<event>
 8    1  0.2123879E+004  0.1043930E+01  0.7957747E-01            NaN
         13   -1    0    0    0    0  0.00000000000E+00  0.00000000000E+00  0.74505805969E-08  0.10566000000E+00  0.10566000000E+00 0. -1.
     999900   -1    0    0    0    0 -0.00000000000E+00 -0.00000000000E+00 -0.74505805969E-08  0.93827000000E+00  0.93827000000E+00 0. -1.
     999902    2    1    2    0    0  0.74176580342E-02  0.98373036150E-02 -0.48589749223E-02  0.10306859889E+01  0.10306008946E+01 0.  0.
     999903    2    3    3    0    0  0.50012330487E-01 -0.12245672644E+00 -0.82088066501E-03  0.13976942561E+00  0.45143498308E-01 0.  0.
         14    1    1    2    0    0 -0.74176580342E-02 -0.98373036150E-02  0.48589749223E-02  0.13244011115E-01  0.00000000000E+00 0.  1.
     999901    1    3    3    0    0 -0.42594672453E-01  0.13229403006E+00 -0.40380942573E-02  0.89091656327E+00  0.88000000000E+00 0. -1.
        -11    1    4    4    0    0  0.11450219157E-01 -0.31047397046E-01 -0.20072992544E-01  0.38707034667E-01  0.51100000000E-03 0. -1.
         11    1    4    4    0    0  0.38562111330E-01 -0.91409329394E-01  0.19252111879E-01  0.10106239094E+00  0.51100000000E-03 0.  1.
</event>
<event>
 8    1  0.2123879E+004  0.1043930E+01  0.7957747E-01            NaN
         13   -1    0    0    0    0  0.00000000000E+00  0.00000000000E+00  0.74505805969E-08  0.10566000000E+00  0.10566000000E+00 0. -1.
     999900   -1    0    0    0    0 -0.00000000000E+00 -0.00000000000E+00 -0.74505805969E-08  0.93827000000E+00  0.93827000000E+00 0.  1.
     999902    2    1    2    0    0  0.89960123425E-02 -0.42797344997E-02  0.79577523323E-02  0.10311796985E+01  0.10311008682E+01 0.  0.
     999903    2    3    3    0    0  0.91716929170E-01  0.47774547353E-01 -0.85138002795E-01  0.14088805083E+00  0.43664182978E-01 0.  0.
         14    1    1    2    0    0 -0.89960123425E-02  0.42797344997E-02 -0.79577523323E-02  0.12750301472E-01  0.00000000000E+00 0.  1.
     999901    1    3    3    0    0 -0.82720916828E-01 -0.52054281852E-01  0.93095755127E-01  0.89029164770E+00  0.88000000000E+00 0. -1.
        -11    1    4    4    0    0  0.34846659231E-01 -0.96483952889E-03 -0.13938122036E-01  0.37546676841E-01  0.51100000000E-03 0. -1.
         11    1    4    4    0    0  0.56870269939E-01  0.48739386881E-01 -0.71199880760E-01  0.10334137399E+00  0.51100000000E-03 0.  1.
</event>
<event>
 8    1  0.2123879E+004  0.1043930E+01  0.7957747E-01            NaN
         13   -1    0    0    0    0  0.00000000000E+00  0.00000000000E+00  0.74505805969E-08  0.10566000000E+00  0.10566000000E+00 0. -1.
     999900   -1    0    0    0    0 -0.00000000000E+00 -0.00000000000E+00 -0.74505805969E-08  0.93827000000E+00  0.93827000000E+00 0. -1.
     999902    2    1    2    0    0  0.26501513221E-03 -0.11335320726E-01 -0.84759468883E-02  0.10297736797E+01  0.10296763715E+01 0.  0.
     999903    2    3    3    0    0  0.63778387236E-01 -0.47972579900E-01  0.10506493292E+00  0.13945476572E+00  0.45165699950E-01 0.  0.
         14    1    1    2    0    0 -0.26501513221E-03  0.11335320726E-01  0.84759468883E-02  0.14156320307E-01  0.00000000000E+00 0. -1.
     999901    1    3    3    0    0 -0.63513372104E-01  0.36637259174E-01 -0.11354087980E+00  0.89031891398E+00  0.88000000000E+00 0. -1.
        -11    1    4    4    0    0  0.55148156007E-01 -0.16373823102E-01  0.78234356542E-01  0.97109715572E-01  0.51100000000E-03 0. -1.
         11    1    4    4    0    0  0.86302312291E-02 -0.31598756798E-01  0.26830576374E-01  0.42345050145E-01  0.51100000000E-03 0.  1.
</event>
<event>
 8    1  0.2123879E+004  0.1043930E+01  0.7957747E-01            NaN
         13   -1    0    0    0    0  0.00000000000E+00  0.00000000000E+00  0.74505805969E-08  0.10566000000E+00  0.10566000000E+00 0.  1.
     999900   -1    0    0    0    0 -0.00000000000E+00 -0.00000000000E+00 -0.74505805969E-08  0.93827000000E+00  0.93827000000E+00 0. -1.
     999902    2    1    2    0    0 -0.13104403495E-01  0.31964851494E-03  0.45886178510E-02  0.10300417683E+01  0.10299481353E+01 0.  0.
     999903    2    3    3    0    0  0.58094376025E-01  0.11346508334E+00  0.34555863411E-01  0.13944130151E+00  0.44726806382E-01 0.  0.
         14    1    1    2    0    0  0.13104403495E-01 -0.31964851494E-03 -0.45886178510E-02  0.13888231705E-01  0.00000000000E+00 0. -1.
     999901    1    3    3    0    0 -0.71198779519E-01 -0.11314543482E+00 -0.29967245560E-01  0.89060046678E+00  0.88000000000E+00 0.  1.
        -11    1    4    4    0    0  0.49996852761E-01  0.53290101810E-01  0.28445543254E-01  0.78415115182E-01  0.51100000000E-03 0. -1.
         11    1    4    4    0    0  0.80975232638E-02  0.60174981526E-01  0.61103201576E-02  0.61026186331E-01  0.51100000000E-03 0.  1.
</event>
<event>
 8    1  0.2123879E+004  0.1043930E+01  0.7957747E-01            NaN
         13   -1    0    0    0    0  0.00000000000E+00  0.00000000000E+00  0.74505805969E-08  0.10566000000E+00  0.10566000000E+00 0. -1.
     999900   -1    0    0    0    0 -0.00000000000E+00 -0.00000000000E+00 -0.74505805969E-08  0.93827000000E+00  0.93827000000E+00 0.  1.
     999902    2    1    2    0    0 -0.10504618039E-01  0.22541920293E-02 -0.10920472539E-01  0.10286105646E+01  0.10284964795E+01 0.  0.
     999903    2    3    3    0    0  0.64844026515E-01 -0.10835090638E+00  0.29756303624E-01  0.13756314374E+00  0.45754936588E-01 0.  0.
         14    1    1    2    0    0  0.10504618039E-01 -0.22541920293E-02  0.10920472539E-01  0.15319435444E-01  0.00000000000E+00 0. -1.
     999901    1    3    3    0    0 -0.75348644554E-01  0.11060509841E+00 -0.40676776163E-01  0.89104742082E+00  0.88000000000E+00 0. -1.
        -11    1    4    4    0    0  0.34418866811E-01 -0.92239542957E-01  0.30669047118E-01  0.10311955804E+00  0.51100000000E-03 0.  1.
         11    1    4    4    0    0  0.30425159704E-01 -0.16111363419E-01 -0.91274349472E-03  0.34443585701E-01  0.51100000000E-03 0. -1.
</event>
<event>
 7    1  0.3249795E+004  0.1043930E+01  0.7957747E-01            NaN
         13   -1    0    0    0    0  0.00000000000E+00  0.00000000000E+00  0.74505805969E-08  0.10566000000E+00  0.10566000000E+00 0. -1.
     999900   -1    0    0    0    0 -0.00000000000E+00 -0.00000000000E+00 -0.74505805969E-08  0.93827000000E+00  0.93827000000E+00 0.  1.
     999903    2    1    2    0    0  0.37820310789E-01  0.50949811407E-01 -0.17409142053E-01  0.79898142140E-01  0.45325221453E-01 0.  0.
         14    1    1    2    0    0 -0.18149344061E-02  0.64493317977E-01  0.39201488993E-01  0.75494627556E-01  0.00000000000E+00 0.  1.
     999901    1    1    2    0    0 -0.36005376383E-01 -0.11544312938E+00 -0.21792346941E-01  0.88853723030E+00  0.88000000000E+00 0. -1.
        -11    1    3    3    0    0 -0.65370666005E-02  0.22665121495E-01 -0.13402356383E-01  0.27135313703E-01  0.51100000000E-03 0.  1.
         11    1    3    3    0    0  0.44357377390E-01  0.28284689912E-01 -0.40067856700E-02  0.52762828437E-01  0.51100000000E-03 0. -1.
</event>
<event>
 8    1  0.2123879E+004  0.1043930E+01  0.7957747E-01            NaN
         13   -1    0    0    0    0  0.00000000000E+00  0.00000000000E+00  0.74505805969E-08  0.10566000000E+00  0.10566000000E+00 0. -1.
     999900   -1    0    0    0    0 -0.00000000000E+00 -0.00000000000E+00 -0.74505805969E-08  0.93827000000E+00  0.93827000000E+00 0.  1.
     999902    2    1    2    0    0  0.18636957625E-01 -0.18213511567E-02  0.68206281209E-02  0.10240007632E+01  0.10238068122E+01 0.  0.
     999903    2    3    3    0    0  0.96977680122E-01 -0.76485175742E-01 -0.37239641946E-01  0.13627712219E+00  0.43931885330E-01 0.  0.
         14    1    1    2    0    0 -0.18636957625E-01  0.18213511567E-02 -0.68206281209E-02  0.19929236752E-01  0.00000000000E+00 0.  1.
     999901    1    3    3    0    0 -0.78340722497E-01  0.74663824585E-01  0.44060270066E-01  0.88772364106E+00  0.88000000000E+00 0. -1.
        -11    1    4    4    0    0  0.65003234608E-01 -0.71332614623E-01 -0.16756545436E-01  0.97953077309E-01  0.51100000000E-03 0.  1.
         11    1    4    4    0    0  0.31974445515E-01 -0.51525611191E-02 -0.20483096509E-01  0.38324044876E-01  0.51100000000E-03 0. -1.
</event>
<event>
 8    1  0.2123879E+004  0.1043930E+01  0.7957747E-01            NaN
         13   -1    0    0    0    0  0.00000000000E+00  0.00000000000E+00  0.74505805969E-08  0.10566000000E+00  0.10566000000E+00 0.  1.
     999900   -1    0    0    0    0 -0.00000000000E+00 -0.00000000000E+00 -0.74505805969E-08  0.93827000000E+00  0.93827000000E+00 0.  1.
     999902    2    1    2    0    0  0.32742854654E-02 -0.13105402796E-01 -0.43908518807E-02  0.10297260531E+01  0.10296280845E+01 0.  0.
     999903    2    3    3    0    0  0.94311291872E-01 -0.18774720653E-01 -0.92751965359E-01  0.14060988290E+00  0.43830379670E-01 0.  0.
         14    1    1    2    0    0 -0.32742854654E-02  0.13105402796E-01  0.43908518807E-02  0.14203946916E-01  0.00000000000E+00 0. -1.
     999901    1    3    3    0    0 -0.91037006406E-01  0.56693178570E-02  0.88361113479E-01  0.88911617018E+00  0.88000000000E+00 0. -1.
        -11    1    4    4    0    0  0.76294163959E-01 -0.30073401736E-01 -0.84610813167E-01  0.11783233755E+00  0.51100000000E-03 0.  1.
         11    1    4    4    0    0  0.18017127913E-01  0.11298681082E-01 -0.81411521922E-02  0.22777545356E-01  0.51100000000E-03 0. -1.
</event>
<event>
 8    1  0.2123879E+004  0.1043930E+01  0.7957747E-01            NaN
         13   -1    0    0    0    0  0.00000000000E+00  0.00000000000E+00  0.74505805969E-08  0.10566000000E+00  0.10566000000E+00 0.  1.
     999900   -1    0    0    0    0 -0.00000000000E+00 -0.00000000000E+00 -0.74505805969E-08  0.93827000000E+00  0.93827000000E+00 0. -1.
     999902    2    1    2    0    0  0.13317051133E-01 -0.52593664193E-03  0.22709898041E-02  0.10304104640E+01  0.10303217684E+01 0.  0.
     999903    2    3    3    0    0  0.96925592999E-01 -0.84988859564E-01  0.28201686121E-01  0.14204298670E+00  0.52566131144E-01 0.  0.
         14    1    1    2    0    0 -0.13317051133E-01  0.52593664193E-03 -0.22709898041E-02  0.13519536047E-01  0.00000000000E+00 0. -1.
     999901    1    3    3    0    0 -0.83608541866E-01  0.84462922922E-01 -0.25930696317E-01  0.88836747725E+00  0.88000000000E+00 0.  1.
        -11    1    4    4    0    0  0.24769813956E-01 -0.49252630769E-01  0.27286688263E-01  0.61515768697E-01  0.51100000000E-03 0.  1.
         11    1    4    4    0    0  0.72155779043E-01 -0.35736228796E-01  0.91499785848E-03  0.80527218007E-01  0.51100000000E-03 0. -1.
</event>
<event>
 8    1  0.2123879E+004  0.1043930E+01  0.7957747E-01            NaN
         13   -1    0    0    0    0  0.00000000000E+00  0.00000000000E+00  0.74505805969E-08  0.10566000000E+00  0.10566000000E+00 0.  1.
     999900   -1    0    0    0    0 -0.00000000000E+00 -0.00000000000E+00 -0.74505805969E-08  0.93827000000E+00  0.93827000000E+00 0. -1.
     999902    2    1    2    0    0 -0.76346821419E-02 -0.11522552232E-01  0.92550533721E-04  0.10301073321E+01  0.10300145871E+01 0.  0.
     999903    2    3    3    0    0  0.93792962110E-01 -0.66616764324E-02 -0.92599864146E-01  0.13943170157E+00  0.44999632110E-01 0.  0.
         14    1    1    2    0    0  0.76346821419E-02  0.11522552232E-01 -0.92550533721E-04  0.13822667867E-01  0.00000000000E+00 0.  1.
     999901    1    3    3    0    0 -0.10142764425E+00 -0.48608757998E-02  0.92692414679E-01  0.89067563056E+00  0.88000000000E+00 0.  1.
        -11    1    4    4    0    0  0.37570874725E-01  0.16104027455E-01 -0.53231736572E-01  0.67117726625E-01  0.51100000000E-03 0.  1.
         11    1    4    4    0    0  0.56222087385E-01 -0.22765703887E-01 -0.39368127574E-01  0.72313974950E-01  0.51100000000E-03 0. -1.
</event>
<event>
 8    1  0.2123879E+004  0.1043930E+01  0.7957747E-01            NaN
         13   -1    0    0    0    0  0.00000000000E+00  0.00000000000E+00  0.74505805969E-08  0.10566000000E+00  0.10566000000E+00 0.  1.
     999900   -1    0    0    0    0 -0.00000000000E+00 -0.00000000000E+00 -0.74505805969E-08  0.93827000000E+00  0.93827000000E+00 0.  1.
     999902    2    1    2    0    0 -0.36232890467E-02 -0.94312235370E-02  0.83917503131E-02  0.10307961630E+01  0.10307124875E+01 0.  0.
     999903    2    3    3    0    0 -0.12552808692E-01 -0.11969854089E+00 -0.58302717159E-01  0.14136557572E+00  0.45822543292E-01 0.  0.
         14    1    1    2    0    0  0.36232890467E-02  0.94312235370E-02 -0.83917503131E-02  0.13133836996E-01  0.00000000000E+00 0. -1.
     999901    1    3    3    0    0  0.89295196457E-02  0.11026731736E+00  0.66694467472E-01  0.88943058728E+00  0.88000000000E+00 0. -1.
        -11    1    4    4    0    0  0.94034326585E-02 -0.83566068813E-01 -0.25581187251E-01  0.87899776250E-01  0.51100000000E-03 0.  1.
         11    1    4    4    0    0 -0.21956241351E-01 -0.36132472079E-01 -0.32721529909E-01  0.53465799474E-01  0.51100000000E-03 0. -1.
</event>
<event>
 8    1  0.2123879E+004  0.1043930E+01  0.7957747E-01            NaN
         13   -1    0    0    0    0  0.00000000000E+00  0.00000000000E+00  0.74505805969E-08  0.10566000000E+00  0.10566000000E+00 0.  1.
     999900   -1    0    0    0    0 -0.00000000000E+00 -0.00000000000E+00 -0.74505805969E-08  0.93827000000E+00  0.93827000000E+00 0.  1.
     999902    2    1    2    0    0 -0.24139127212E-02 -0.14170302107E-01 -0.38271791375E-03  0.10295504691E+01  0.10294500461E+01 0.  0.
     999903    2    3    3    0    0  0.82937544993E-01 -0.74300476077E-01  0.72626391451E-01  0.14037622339E+00  0.45074319104E-01 0.  0.
         14    1    1    2    0    0  0.24139127212E-02  0.14170302107E-01  0.38271791375E-03  0.14379530918E-01  0.00000000000E+00 0.  1.
     999901    1    3    3    0    0 -0.85351457714E-01  0.60130173971E-01 -0.73009109364E-01  0.88917424569E+00  0.88000000000E+00 0.  1.
        -11    1    4    4    0    0  0.41041495849E-01 -0.96254914647E-02  0.34090870670E-01  0.54217184098E-01  0.51100000000E-03 0. -1.
         11    1    4    4    0    0  0.41896049144E-01 -0.64674984613E-01  0.38535520780E-01  0.86159039290E-01  0.51100000000E-03 0.  1.
</event>
<event>
 8    1  0.2123879E+004  0.1043930E+01  0.7957747E-01            NaN
         13   -1    0    0    0    0  0.00000000000E+00  0.00000000000E+00  0.74505805969E-08  0.10566000000E+00  0.10566000000E+00 0.  1.
     999900   -1    0    0    0    0 -0.00000000000E+00 -0.00000000000E+00 -0.74505805969E-08  0.93827000000E+00  0.93827000000E+00 0.  1.
     999902    2    1    2    0    0  0.70877515041E-02 -0.48893889172E-02 -0.10747888675E-01  0.10301583096E+01  0.10300662519E+01 0.  0.
     999903    2    3    3    0    0  0.70802412249E-01 -0.25846772351E-01 -0.11147098690E+00  0.14187687198E+00  0.44969196802E-01 0.  0.
         14    1    1    2    0    0 -0.70877515041E-02  0.48893889172E-02  0.10747888675E-01  0.13771690395E-01  0.00000000000E+00 0.  1.
     999901    1    3    3    0    0 -0.63714660745E-01  0.20957383434E-01  0.10072309822E+00  0.88828143763E+00  0.88000000000E+00 0. -1.
        -11    1    4    4    0    0  0.31400349141E-01 -0.32586092656E-01 -0.75885569966E-01  0.88355623538E-01  0.51100000000E-03 0. -1.
         11    1    4    4    0    0  0.39402063108E-01  0.67393203048E-02 -0.35585416933E-01  0.53521248441E-01  0.51100000000E-03 0.  1.
</event>
<event>
 8    1  0.2123879E+004  0.1043930E+01  0.7957747E-01            NaN
         13   -1    0    0    0    0  0.00000000000E+00  0.00000000000E+00  0.74505805969E-08  0.10566000000E+00  0.10566000000E+00 0. -1.
     999900   -1    0    0    0    0 -0.00000000000E+00 -0.00000000000E+00 -0.74505805969E-08  0.93827000000E+00  0.93827000000E+00 0. -1.
     999902    2    1    2    0    0  0.13109109947E-02 -0.12894608385E-01  0.20332902325E-02  0.10308104085E+01  0.10307269156E+01 0.  0.
     999903    2    3    3    0    0  0.10898392534E+00  0.14598288267E-01  0.75153544122E-01  0.14081270682E+00  0.45711674718E-01 0.  0.
         14    1    1    2    0    0 -0.13109109947E-02  0.12894608385E-01 -0.20332902325E-02  0.13119591541E-01  0.00000000000E+00 0.  1.
     999901    1    3    3    0    0 -0.10767301435E+00 -0.27492896652E-01 -0.73120253889E-01  0.88999770163E+00  0.88000000000E+00 0. -1.
        -11    1    4    4    0    0  0.54128985372E-01  0.27524538105E-01  0.26111732479E-01  0.66103184109E-01  0.51100000000E-03 0. -1.
         11    1    4    4    0    0  0.54854939973E-01 -0.12926249838E-01  0.49041811642E-01  0.74709522716E-01  0.51100000000E-03 0.  1.
</event>
<event>
 8    1  0.2123879E+004  0.1043930E+01  0.7957747E-01            NaN
         13   -1    0    0    0    0  0.00000000000E+00  0.00000000000E+00  0.74505805969E-08  0.10566000000E+00  0.10566000000E+00 0. -1.
     999900   -1    0    0    0    0 -0.00000000000E+00 -0.00000000000E+00 -0.74505805969E-08  0.93827000000E+00  0.93827000000E+00 0. -1.
     999902    2    1    2    0    0 -0.12440245245E-01 -0.22470833804E-02 -0.62438068102E-02  0.10298305600E+01  0.10297340375E+01 0.  0.
     999903    2    3    3    0    0 -0.26987263816E-01  0.20546709740E-02  0.12820716689E+00  0.13948951006E+00  0.47830029210E-01 0.  0.
         14    1    1    2    0    0  0.12440245245E-01  0.22470833804E-02  0.62438068102E-02  0.14099440023E-01  0.00000000000E+00 0. -1.
     999901    1    3    3    0    0  0.14547018571E-01 -0.43017543544E-02 -0.13445097370E+00  0.89034104992E+00  0.88000000000E+00 0. -1.
        -11    1    4    4    0    0  0.10329906661E-01  0.87608119606E-02  0.59391147162E-01  0.60918209757E-01  0.51100000000E-03 0.  1.
         11    1    4    4    0    0 -0.37317170477E-01 -0.67061409866E-02  0.68816019726E-01  0.78571300303E-01  0.51100000000E-03 0. -1.
</event>
<event>
 8    1  0.2123879E+004  0.1043930E+01  0.7957747E-01            NaN
         13   -1    0    0    0    0  0.00000000000E+00  0.00000000000E+00  0.74505805969E-08  0.10566000000E+00  0.10566000000E+00 0.  1.
     999900   -1    0    0    0    0 -0.00000000000E+00 -0.00000000000E+00 -0.74505805969E-08  0.93827000000E+00  0.93827000000E+00 0.  1.
     999902    2    1    2    0    0  0.67757227141E-02  0.11893642456E-01  0.76444858655E-02  0.10282517567E+01  0.10281322229E+01 0.  0.
     999903    2    3    3    0    0  0.10856997978E+00  0.93926010812E-02 -0.73127308239E-01  0.13870557537E+00  0.44899576424E-01 0.  0.
         14    1    1    2    0    0 -0.67757227141E-02 -0.11893642456E-01 -0.76444858655E-02  0.15678243311E-01  0.00000000000E+00 0.  1.
     999901    1    3    3    0    0 -0.10179425707E+00  0.25010413748E-02  0.80771794104E-01  0.88954618132E+00  0.88000000000E+00 0. -1.
        -11    1    4    4    0    0  0.72684833118E-01 -0.53133205967E-02 -0.67828373574E-01  0.99560362212E-01  0.51100000000E-03 0. -1.
         11    1    4    4    0    0  0.35885146663E-01  0.14705921678E-01 -0.52989346655E-02  0.39145213156E-01  0.51100000000E-03 0.  1.
</event>
<event>
 8    1  0.2123879E+004  0.1043930E+01  0.7957747E-01            NaN
         13   -1    0    0    0    0  0.00000000000E+00  0.00000000000E+00  0.74505805969E-08  0.10566000000E+00  0.10566000000E+00 0. -1.
     999900   -1    0    0    0    0 -0.00000000000E+00 -0.00000000000E+00 -0.74505805969E-08  0.93827000000E+00  0.93827000000E+00 0.  1.
     999902    2    1    2    0    0  0.50699449385E-02 -0.37277362730E-02  0.36671900576E-02  0.10366465501E+01  0.10366209631E+01 0.  0.
     999903    2    3    3    0    0  0.68225060375E-01 -0.11208216459E+00 -0.46784569591E-01  0.14632378235E+00  0.44774801479E-01 0.  0.
         14    1    1    2    0    0 -0.50699449385E-02  0.37277362730E-02 -0.36671900576E-02  0.72834498913E-02  0.00000000000E+00 0.  1.
     999901    1    3    3    0    0 -0.63155115436E-01  0.10835442831E+00  0.50451759649E-01  0.89032276776E+00  0.88000000000E+00 0. -1.
        -11    1    4    4    0    0  0.23500048768E-01 -0.12282195607E-01  0.19488502549E-02  0.26592550824E-01  0.51100000000E-03 0.  1.
         11    1    4    4    0    0  0.44725011607E-01 -0.99799968979E-01 -0.48733419846E-01  0.11973123152E+00  0.51100000000E-03 0. -1.
</event>
<event>
 8    1  0.2123879E+004  0.1043930E+01  0.7957747E-01            NaN
         13   -1    0    0    0    0  0.00000000000E+00  0.00000000000E+00  0.74505805969E-08  0.10566000000E+00  0.10566000000E+00 0. -1.
     999900   -1    0    0    0    0 -0.00000000000E+00 -0.00000000000E+00 -0.74505805969E-08  0.93827000000E+00  0.93827000000E+00 0. -1.
     999902    2    1    2    0    0  0.11379788338E-01  0.15411326928E-01  0.15996443174E-01  0.10189721400E+01  0.10186664456E+01 0.  0.
     999903    2    3    3    0    0 -0.23775329387E-01  0.85568313905E-01 -0.83438285625E-01  0.12990231689E+00  0.45005130736E-01 0.  0.
         14    1    1    2    0    0 -0.11379788338E-01 -0.15411326928E-01 -0.15996443174E-01  0.24957859975E-01  0.00000000000E+00 0.  1.
     999901    1    3    3    0    0  0.35155117725E-01 -0.70156986977E-01  0.99434728799E-01  0.88906982314E+00  0.88000000000E+00 0.  1.
        -11    1    4    4    0    0 -0.46442508952E-02  0.74725584062E-01 -0.75993400935E-01  0.10668055158E+00  0.51100000000E-03 0.  1.
         11    1    4    4    0    0 -0.19131078492E-01  0.10842729843E-01 -0.74448846901E-02  0.23221765302E-01  0.51100000000E-03 0. -1.
</event>
<event>
 8    1  0.2123879E+004  0.1043930E+01  0.7957747E-01            NaN
         13   -1    0    0    0    0  0.00000000000E+00  0.00000000000E+00  0.74505805969E-08  0.10566000000E+00  0.10566000000E+00 0. -1.
     999900   -1    0    0    0    0 -0.00000000000E+00 -0.00000000000E+00 -0.74505805969E-08  0.93827000000E+00  0.93827000000E+00 0. -1.
     999902    2    1    2    0    0 -0.22356878351E-02  0.95861768861E-02  0.99874603066E-02  0.10299070741E+01  0.10298116036E+01 0.  0.
     999903    2    3    3    0    0 -0.11499268773E+00  0.58955875252E-01  0.33214935342E-01  0.14103642899E+00  0.45704801870E-01 0.  0.
         14    1    1    2    0    0  0.22356878351E-02 -0.95861768861E-02 -0.99874603066E-02  0.14022925899E-01  0.00000000000E+00 0. -1.
     999901    1    3    3    0    0  0.11275699990E+00 -0.49369698366E-01 -0.23227475036E-01  0.88887064511E+00  0.88000000000E+00 0.  1.
        -11    1    4    4    0    0 -0.62439205681E-01  0.56260120505E-01  0.15189102905E-01  0.85409750810E-01  0.51100000000E-03 0.  1.
         11    1    4    4    0    0 -0.52553482051E-01  0.26957547466E-02  0.18025832437E-01  0.55626678181E-01  0.51100000000E-03 0. -1.
</event>
<event>
 8    1  0.2123879E+004  0.1043930E+01  0.7957747E-01            NaN
         13   -1    0    0    0    0  0.00000000000E+00  0.00000000000E+00  0.74505805969E-08  0.10566000000E+00  0.10566000000E+00 0. -1.
     999900   -1    0    0    0    0 -0.00000000000E+00 -0.00000000000E+00 -0.74505805969E-08  0.93827000000E+00  0.93827000000E+00 0.  1.
     999902    2    1    2    0    0  0.12298936155E-01 -0.90192001566E-02  0.60706481891E-02  0.10275146849E+01  0.10273835530E+01 0.  0.
     999903    2    3    3    0    0  0.12252074610E+00 -0.45264478330E-01 -0.22162809193E-01  0.13944954327E+00  0.43529056763E-01 0.  0.
         14    1    1    2    0    0 -0.12298936155E-01  0.90192001566E-02 -0.60706481891E-02  0.16415315150E-01  0.00000000000E+00 0.  1.
     999901    1    3    3    0    0 -0.11022180995E+00  0.36245278174E-01  0.28233457382E-01  0.88806514158E+00  0.88000000000E+00 0. -1.
        -11    1    4    4    0    0  0.71167592072E-01 -0.84470203969E-02 -0.25759336021E-01  0.76157618320E-01  0.51100000000E-03 0.  1.
         11    1    4    4    0    0  0.51353154029E-01 -0.36817457934E-01  0.35965268284E-02  0.63291924948E-01  0.51100000000E-03 0. -1.
</event>
<event>
 8    1  0.2123879E+004  0.1043930E+01  0.7957747E-01            NaN
         13   -1    0    0    0    0  0.00000000000E+00  0.00000000000E+00  0.74505805969E-08  0.10566000000E+00  0.10566000000E+00 0.  1.
     999900   -1    0    0    0    0 -0.00000000000E+00 -0.00000000000E+00 -0.74505805969E-08  0.93827000000E+00  0.93827000000E+00 0.  1.
     999902    2    1    2    0    0  0.49973860047E-02  0.96893328882E-02 -0.82747641423E-02  0.10302431903E+01  0.10301522714E+01 0.  0.
     999903    2    3    3    0    0  0.11070484812E+00  0.74709427090E-01 -0.13809966424E-01  0.14151808168E+00  0.44716779566E-01 0.  0.
         14    1    1    2    0    0 -0.49973860047E-02 -0.96893328882E-02  0.82747641423E-02  0.13686809720E-01  0.00000000000E+00 0. -1.
     999901    1    3    3    0    0 -0.10570746212E+00 -0.65020094202E-01  0.55352022813E-02  0.88872510860E+00  0.88000000000E+00 0. -1.
        -11    1    4    4    0    0  0.84563556420E-01  0.47517517913E-01  0.90285808592E-02  0.97420151798E-01  0.51100000000E-03 0.  1.
         11    1    4    4    0    0  0.26141291704E-01  0.27191909177E-01 -0.22838547283E-01  0.44097929879E-01  0.51100000000E-03 0. -1.
</event>
<event>
 8    1  0.2123879E+004  0.1043930E+01  0.7957747E-01            NaN
         13   -1    0    0    0    0  0.00000000000E+00  0.00000000000E+00  0.74505805969E-08  0.10566000000E+00  0.10566000000E+00 0.  1.
     999900   -1    0    0    0    0 -0.00000000000E+00 -0.00000000000E+00 -0.74505805969E-08  0.93827000000E+00  0.93827000000E+00 0.  1.
     999902    2    1    2    0    0 -0.87440905310E-02 -0.84951784334E-02 -0.62893330409E-02  0.10302120233E+01  0.10301206871E+01 0.  0.
     999903    2    3    3    0    0  0.65741699512E-01 -0.11026115925E+00  0.34619153366E-01  0.14028059217E+00  0.44728787884E-01 0.  0.
         14    1    1    2    0    0  0.87440905310E-02  0.84951784334E-02  0.62893330409E-02  0.13717976743E-01  0.00000000000E+00 0. -1.
     999901    1    3    3    0    0 -0.74485790043E-01  0.10176598082E+00 -0.40908486407E-01  0.88993143108E+00  0.88000000000E+00 0. -1.
        -11    1    4    4    0    0  0.21017627934E-01 -0.76518418902E-01  0.14000780097E-01  0.80579724990E-01  0.51100000000E-03 0. -1.
         11    1    4    4    0    0  0.44724071578E-01 -0.33742740353E-01  0.20618373269E-01  0.59700867182E-01  0.51100000000E-03 0.  1.
</event>
<event>
 8    1  0.2123879E+004  0.1043930E+01  0.7957747E-01            NaN
         13   -1    0    0    0    0  0.00000000000E+00  0.00000000000E+00  0.74505805969E-08  0.10566000000E+00  0.10566000000E+00 0. -1.
     999900   -1    0    0    0    0 -0.00000000000E+00 -0.00000000000E+00 -0.74505805969E-08  0.93827000000E+00  0.93827000000E+00 0.  1.
     999902    2    1    2    0    0 -0.91129549073E-02  0.99556169776E-02  0.93191623208E-02  0.10275285658E+01  0.10273976575E+01 0.  0.
     999903    2    3    3    0    0  0.28545553118E-02  0.12405489418E+00  0.45135020196E-01  0.13935930153E+00  0.44565453208E-01 0.  0.
         14    1    1    2    0    0  0.91129549073E-02 -0.99556169776E-02 -0.93191623208E-02  0.16401434172E-01  0.00000000000E+00 0.  1.
     999901    1    3    3    0    0 -0.11967510219E-01 -0.11409927720E+00 -0.35815857875E-01  0.88816926429E+00  0.88000000000E+00 0. -1.
        -11    1    4    4    0    0  0.10903411450E-01  0.60277988367E-01  0.79059491142E-03  0.61263418319E-01  0.51100000000E-03 0.  1.
         11    1    4    4    0    0 -0.80488561377E-02  0.63776905815E-01  0.44344425284E-01  0.78095883216E-01  0.51100000000E-03 0. -1.
</event>
<event>
 8    1  0.2123879E+004  0.1043930E+01  0.7957747E-01            NaN
         13   -1    0    0    0    0  0.00000000000E+00  0.00000000000E+00  0.74505805969E-08  0.10566000000E+00  0.10566000000E+00 0. -1.
     999900   -1    0    0    0    0 -0.00000000000E+00 -0.00000000000E+00 -0.74505805969E-08  0.93827000000E+00  0.93827000000E+00 0. -1.
     999902    2    1    2    0    0 -0.80601800833E-02  0.16462380916E-02 -0.11498183518E-01  0.10297919369E+01  0.10296948813E+01 0.  0.
     999903    2    3    3    0    0 -0.12289851241E+00  0.20623164602E-01 -0.49793025947E-01  0.14130194754E+00  0.44244046764E-01 0.  0.
         14    1    1    2    0    0  0.80601800833E-02 -0.16462380916E-02  0.11498183518E-01  0.14138063058E-01  0.00000000000E+00 0. -1.
     999901    1    3    3    0    0  0.11483833233E+00 -0.18976926510E-01  0.38294842429E-01  0.88848998940E+00  0.88000000000E+00 0.  1.
        -11    1    4    4    0    0 -0.44264207271E-01 -0.12119902823E-01 -0.86450368938E-02  0.46703424646E-01  0.51100000000E-03 0. -1.
         11    1    4    4    0    0 -0.78634305141E-01  0.32743067425E-01 -0.41147989053E-01  0.94598522893E-01  0.51100000000E-03 0.  1.
</event>
<event>
 8    1  0.2123879E+004  0.1043930E+01  0.7957747E-01            NaN
         13   -1    0    0    0    0  0.00000000000E+00  0.00000000000E+00  0.74505805969E-08  0.10566000000E+00  0.10566000000E+00 0. -1.
     999900   -1    0    0    0    0 -0.00000000000E+00 -0.00000000000E+00 -0.74505805969E-08  0.93827000000E+00  0.93827000000E+00 0.  1.
     999902    2    1    2    0    0  0.13296493938E-01 -0.13861183188E-02  0.61287630446E-03  0.10305474108E+01  0.10304605147E+01 0.  0.
     999903    2    3    3    0    0  0.59586995636E-01  0.73936525594E-01  0.93848711892E-01  0.14121663309E+00  0.46014528914E-01 0.  0.
         14    1    1    2    0    0 -0.13296493938E-01  0.13861183188E-02 -0.61287630446E-03  0.13382589151E-01  0.00000000000E+00 0. -1.
     999901    1    3    3    0    0 -0.46290501699E-01 -0.75322643913E-01 -0.93235835588E-01  0.88933077776E+00  0.88000000000E+00 0.  1.
        -11    1    4    4    0    0  0.38092667294E-01  0.50811315733E-01  0.88902704652E-01  0.10925563200E+00  0.51100000000E-03 0.  1.
         11    1    4    4    0    0  0.21494328342E-01  0.23125209862E-01  0.49460072401E-02  0.31961001090E-01  0.51100000000E-03 0. -1.
</event>
<event>
 8    1  0.2123879E+004  0.1043930E+01  0.7957747E-01            NaN
         13   -1    0    0    0    0  0.00000000000E+00  0.00000000000E+00  0.74505805969E-08  0.10566000000E+00  0.10566000000E+00 0.  1.
     999900   -1    0    0    0    0 -0.00000000000E+00 -0.00000000000E+00 -0.74505805969E-08  0.93827000000E+00  0.93827000000E+00 0.  1.
     999902    2    1    2    0    0  0.10512844228E-01 -0.42161065965E-02  0.64179352188E-02  0.10309113464E+01  0.10308291414E+01 0.  0.
     999903    2    3    3    0    0 -0.10464095217E+00  0.64249653265E-01 -0.55381729311E-01  0.13862935308E+00  0.32759956932E-01 0.  0.
         14    1    1    2    0    0 -0.10512844228E-01  0.42161065965E-02 -0.64179352188E-02  0.13018653581E-01  0.00000000000E+00 0. -1.
     999901    1    3    3    0    0  0.11515379640E+00 -0.68465759862E-01  0.61799664530E-01  0.89228199334E+00  0.88000000000E+00 0. -1.
        -11    1    4    4    0    0 -0.36475561933E-01  0.40582454371E-01 -0.18709103868E-01  0.57686167402E-01  0.51100000000E-03 0. -1.
         11    1    4    4    0    0 -0.68165390239E-01  0.23667198895E-01 -0.36672625444E-01  0.80943185679E-01  0.51100000000E-03 0.  1.
</event>
<event>
 8    1  0.2123879E+004  0.1043930E+01  0.7957747E-01            NaN
         13   -1    0    0    0    0  0.00000000000E+00  0.00000000000E+00  0.74505805969E-08  0.10566000000E+00  0.10566000000E+00 0.  1.
     999900   -1    0    0    0    0 -0.00000000000E+00 -0.00000000000E+00 -0.74505805969E-08  0.93827000000E+00  0.93827000000E+00 0. -1.
     999902    2    1    2    0    0  0.13677484236E-01  0.23603470124E-02 -0.33027737754E-02  0.10296627954E+01  0.10295639461E+01 0.  0.
     999903    2    3    3    0    0  0.13204699004E+00 -0.23061197253E-01 -0.17587167467E-02  0.14137231421E+00  0.44886654416E-01 0.  0.
         14    1    1    2    0    0 -0.13677484236E-01 -0.23603470124E-02  0.33027737754E-02  0.14267204620E-01  0.00000000000E+00 0.  1.
     999901    1    3    3    0    0 -0.11836950580E+00  0.25421544265E-01 -0.15440570287E-02  0.88829048117E+00  0.88000000000E+00 0. -1.
        -11    1    4    4    0    0  0.35928896290E-01  0.98877098465E-02 -0.12231700051E-01  0.39224074262E-01  0.51100000000E-03 0.  1.
         11    1    4    4    0    0  0.96118093749E-01 -0.32948907099E-01  0.10472983304E-01  0.10214823995E+00  0.51100000000E-03 0. -1.
</event>
<event>
 8    1  0.2123879E+004  0.1043930E+01  0.7957747E-01            NaN
         13   -1    0    0    0    0  0.00000000000E+00  0.00000000000E+00  0.74505805969E-08  0.10566000000E+00  0.10566000000E+00 0. -1.
     999900   -1    0    0    0    0 -0.00000000000E+00 -0.00000000000E+00 -0.74505805969E-08  0.93827000000E+00  0.93827000000E+00 0. -1.
     999902    2    1    2    0    0 -0.81162286898E-02  0.11773826424E-01 -0.64208860916E-02  0.10282544160E+01  0.10281349231E+01 0.  0.
     999903    2    3    3    0    0  0.20891174892E-01 -0.11091177636E+00  0.63621494988E-01  0.13651503602E+00  0.43020891574E-01 0.  0.
         14    1    1    2    0    0  0.81162286898E-02 -0.11773826424E-01  0.64208860916E-02  0.15675584040E-01  0.00000000000E+00 0. -1.
     999901    1    3    3    0    0 -0.29007403582E-01  0.12268560278E+00 -0.70042381079E-01  0.89173937994E+00  0.88000000000E+00 0.  1.
        -11    1    4    4    0    0 -0.21652369250E-02 -0.37093665463E-01  0.12838524420E-02  0.37182491398E-01  0.51100000000E-03 0. -1.
         11    1    4    4    0    0  0.23056411818E-01 -0.73818110892E-01  0.62337642546E-01  0.99332544620E-01  0.51100000000E-03 0.  1.
</event>
<event>
 8    1  0.2123879E+004  0.1043930E+01  0.7957747E-01            NaN
         13   -1    0    0    0    0  0.00000000000E+00  0.00000000000E+00  0.74505805969E-08  0.10566000000E+00  0.10566000000E+00 0.  1.
     999900   -1    0    0    0    0 -0.00000000000E+00 -0.00000000000E+00 -0.74505805969E-08  0.93827000000E+00  0.93827000000E+00 0. -1.
     999902    2    1    2    0    0  0.99726246913E-02  0.45775743008E-02 -0.82340583641E-02  0.10302111390E+01  0.10301197910E+01 0.  0.
     999903    2    3    3    0    0  0.41439775717E-01  0.86750142071E-01  0.91589294648E-01  0.14020708605E+00  0.45017617911E-01 0.  0.
         14    1    1    2    0    0 -0.99726246913E-02 -0.45775743008E-02  0.82340583641E-02  0.13718860990E-01  0.00000000000E+00 0.  1.
     999901    1    3    3    0    0 -0.31467151026E-01 -0.82172567770E-01 -0.99823353012E-01  0.89000405297E+00  0.88000000000E+00 0. -1.
        -11    1    4    4    0    0  0.19968240055E-01  0.33730673675E-01  0.98168758409E-02  0.40411893419E-01  0.51100000000E-03 0.  1.
         11    1    4    4    0    0  0.21471535662E-01  0.53019468396E-01  0.81772418807E-01  0.99795192626E-01  0.51100000000E-03 0. -1.
</event>
<event>
 8    1  0.2123879E+004  0.1043930E+01  0.7957747E-01            NaN
         13   -1    0    0    0    0  0.00000000000E+00  0.00000000000E+00  0.74505805969E-08  0.10566000000E+00  0.10566000000E+00 0.  1.
     999900   -1    0    0    0    0 -0.00000000000E+00 -0.00000000000E+00 -0.74505805969E-08  0.93827000000E+00  0.93827000000E+00 0.  1.
     999902    2    1    2    0    0  0.51894999342E-02  0.52661056642E-02  0.10682260758E-01  0.10309387155E+01  0.10308568580E+01 0.  0.
     999903    2    3    3    0    0 -0.32439729433E-01  0.29286231766E-01 -0.12480534474E+00  0.13945129740E+00  0.44274946124E-01 0.  0.
         14    1    1    2    0    0 -0.51894999342E-02 -0.52661056642E-02 -0.10682260758E-01  0.12991284515E-01  0.00000000000E+00 0. -1.
     999901    1    3    3    0    0  0.37629229367E-01 -0.24020126102E-01  0.13548760550E+00  0.89148741809E+00  0.88000000000E+00 0. -1.
        -11    1    4    4    0    0 -0.13350188696E-01  0.36451222866E-01 -0.59588373188E-01  0.71119297851E-01  0.51100000000E-03 0. -1.
         11    1    4    4    0    0 -0.19089540737E-01 -0.71649910997E-02 -0.65216971552E-01  0.68331999550E-01  0.51100000000E-03 0.  1.
</event>
<event>
 7    1  0.2123879E+004  0.1043930E+01  0.7957747E-01            NaN
         13   -1    0    0    0    0  0.00000000000E+00  0.00000000000E+00  0.74505805969E-08  0.10566000000E+00  0.10566000000E+00 0. -1.
     999900   -1    0    0    0    0 -0.00000000000E+00 -0.00000000000E+00 -0.74505805969E-08  0.93827000000E+00  0.93827000000E+00 0.  1.
     999903    2    1    2    0    0  0.42782218246E-01  0.42887311522E-01 -0.91428055730E-01  0.11852930618E+00  0.44949609124E-01 0.  0.
         14    1    1    2    0    0 -0.19250607738E-01  0.20929083262E-01  0.28930965720E-01  0.40566158334E-01  0.00000000000E+00 0. -1.
     999901    1    1    2    0    0 -0.23531610507E-01 -0.63816394784E-01  0.62497090010E-01  0.88483453549E+00  0.88000000000E+00 0. -1.
        -11    1    3    3    0    0  0.41782922142E-01  0.50595724889E-01 -0.71067360000E-01  0.96729368540E-01  0.51100000000E-03 0.  1.
         11    1    3    3    0    0  0.99929610381E-03 -0.77084133668E-02 -0.20360695730E-01  0.21799937636E-01  0.51100000000E-03 0. -1.
</event>
<event>
 8    1  0.2123879E+004  0.1043930E+01  0.7957747E-01            NaN
         13   -1    0    0    0    0  0.00000000000E+00  0.00000000000E+00  0.74505805969E-08  0.10566000000E+00  0.10566000000E+00 0.  1.
     999900   -1    0    0    0    0 -0.00000000000E+00 -0.00000000000E+00 -0.74505805969E-08  0.93827000000E+00  0.93827000000E+00 0. -1.
     999902    2    1    2    0    0  0.95668871892E-02 -0.11819763906E-01 -0.17541955851E-01  0.10207146524E+01  0.10204506109E+01 0.  0.
     999903    2    3    3    0    0 -0.11585513444E+00  0.38226721176E-01 -0.77717082518E-02  0.13036034544E+00  0.45273897854E-01 0.  0.
         14    1    1    2    0    0 -0.95668871892E-02  0.11819763906E-01  0.17541955851E-01  0.23215347604E-01  0.00000000000E+00 0.  1.
     999901    1    3    3    0    0  0.12542202163E+00 -0.50046485082E-01 -0.97702475990E-02  0.89035430696E+00  0.88000000000E+00 0. -1.
        -11    1    4    4    0    0 -0.45130069062E-01 -0.69912409971E-02 -0.82631760198E-02  0.46412732986E-01  0.51100000000E-03 0.  1.
         11    1    4    4    0    0 -0.70725065374E-01  0.45217962173E-01  0.49146776801E-03  0.83947612454E-01  0.51100000000E-03 0. -1.
</event>
<event>
 8    1  0.2123879E+004  0.1043930E+01  0.7957747E-01            NaN
         13   -1    0    0    0    0  0.00000000000E+00  0.00000000000E+00  0.74505805969E-08  0.10566000000E+00  0.10566000000E+00 0. -1.
     999900   -1    0    0    0    0 -0.00000000000E+00 -0.00000000000E+00 -0.74505805969E-08  0.93827000000E+00  0.93827000000E+00 0. -1.
     999902    2    1    2    0    0  0.73868695749E-02 -0.20838286071E-02 -0.11669261899E-01  0.10299629009E+01  0.10298681942E+01 0.  0.
     999903    2    3    3    0    0 -0.85659470851E-01  0.48402922879E-01 -0.89603819308E-01  0.14019870249E+00  0.44118520560E-01 0.  0.
         14    1    1    2    0    0 -0.73868695749E-02  0.20838286071E-02  0.11669261899E-01  0.13967099092E-01  0.00000000000E+00 0. -1.
     999901    1    3    3    0    0  0.93046340426E-01 -0.50486751487E-01  0.77934557410E-01  0.88976419841E+00  0.88000000000E+00 0.  1.
        -11    1    4    4    0    0 -0.68187770689E-01  0.22512420045E-01 -0.41789401353E-01  0.83084272364E-01  0.51100000000E-03 0.  1.
         11    1    4    4    0    0 -0.17471700162E-01  0.25890502835E-01 -0.47814417955E-01  0.57114430129E-01  0.51100000000E-03 0. -1.
</event>
<event>
 8    1  0.2123879E+004  0.1043930E+01  0.7957747E-01            NaN
         13   -1    0    0    0    0  0.00000000000E+00  0.00000000000E+00  0.74505805969E-08  0.10566000000E+00  0.10566000000E+00 0. -1.
     999900   -1    0    0    0    0 -0.00000000000E+00 -0.00000000000E+00 -0.74505805969E-08  0.93827000000E+00  0.93827000000E+00 0. -1.
     999902    2    1    2    0    0 -0.28776756854E-02 -0.41330777117E-03 -0.14410584689E-01  0.10292290887E+01  0.10291240937E+01 0.  0.
     999903    2    3    3    0    0 -0.10693431728E+00 -0.49712214111E-01 -0.58421156577E-01  0.14063745179E+00  0.49594443904E-01 0.  0.
         14    1    1    2    0    0  0.28776756854E-02  0.41330777117E-03  0.14410584689E-01  0.14700911256E-01  0.00000000000E+00 0. -1.
     999901    1    3    3    0    0  0.10405664160E+00  0.49298906340E-01  0.44010571888E-01  0.88859163695E+00  0.88000000000E+00 0.  1.
        -11    1    4    4    0    0 -0.73643442388E-01 -0.72954373856E-02 -0.33707233994E-01  0.81320469489E-01  0.51100000000E-03 0. -1.
         11    1    4    4    0    0 -0.33290874893E-01 -0.42416776725E-01 -0.24713922583E-01  0.59316982301E-01  0.51100000000E-03 0.  1.
</event>
<event>
 8    1  0.2123879E+004  0.1043930E+01  0.7957747E-01            NaN
         13   -1    0    0    0    0  0.00000000000E+00  0.00000000000E+00  0.74505805969E-08  0.10566000000E+00  0.10566000000E+00 0.  1.
     999900   -1    0    0    0    0 -0.00000000000E+00 -0.00000000000E+00 -0.74505805969E-08  0.93827000000E+00  0.93827000000E+00 0. -1.
     999902    2    1    2    0    0 -0.92289360552E-02  0.53793033004E-02  0.85340806145E-02  0.10302573742E+01  0.10301666450E+01 0.  0.
     999903    2    3    3    0    0 -0.70123423541E-01  0.84017855763E-03 -0.11242448809E+00  0.13988682346E+00  0.44844814934E-01 0.  0.
         14    1    1    2    0    0  0.92289360552E-02 -0.53793033004E-02 -0.85340806145E-02  0.13672625814E-01  0.00000000000E+00 0. -1.
     999901    1    3    3    0    0  0.60894487485E-01  0.45391247427E-02  0.12095856870E+00  0.89037055073E+00  0.88000000000E+00 0.  1.
        -11    1    4    4    0    0 -0.61572241175E-01  0.12619188274E-01 -0.10747325132E+00  0.12450359700E+00  0.51100000000E-03 0.  1.
         11    1    4    4    0    0 -0.85511823653E-02 -0.11779009716E-01 -0.49512367704E-02  0.15383226459E-01  0.51100000000E-03 0. -1.
</event>
<event>
 7    1  0.2123879E+004  0.1043930E+01  0.7957747E-01            NaN
         13   -1    0    0    0    0  0.00000000000E+00  0.00000000000E+00  0.74505805969E-08  0.10566000000E+00  0.10566000000E+00 0. -1.
     999900   -1    0    0    0    0 -0.00000000000E+00 -0.00000000000E+00 -0.74505805969E-08  0.93827000000E+00  0.93827000000E+00 0.  1.
     999903    2    1    2    0    0 -0.62218257011E-01  0.80111868554E-01  0.17071028422E-01  0.11246999649E+00  0.45486889433E-01 0.  0.
         14    1    1    2    0    0  0.27401722908E-01  0.60263963208E-02  0.35215570691E-01  0.45025640362E-01  0.00000000000E+00 0. -1.
     999901    1    1    2    0    0  0.34816534103E-01 -0.86138264875E-01 -0.52286599112E-01  0.88643436315E+00  0.88000000000E+00 0.  1.
        -11    1    3    3    0    0 -0.10861727256E-01  0.11585501886E-01  0.21482355520E-01  0.26719911913E-01  0.51100000000E-03 0.  1.
         11    1    3    3    0    0 -0.51356529755E-01  0.68526366669E-01 -0.44113270982E-02  0.85750084578E-01  0.51100000000E-03 0. -1.
</event>
<event>
 8    1  0.2123879E+004  0.1043930E+01  0.7957747E-01            NaN
         13   -1    0    0    0    0  0.00000000000E+00  0.00000000000E+00  0.74505805969E-08  0.10566000000E+00  0.10566000000E+00 0. -1.
     999900   -1    0    0    0    0 -0.00000000000E+00 -0.00000000000E+00 -0.74505805969E-08  0.93827000000E+00  0.93827000000E+00 0. -1.
     999902    2    1    2    0    0 -0.38193675954E-02 -0.10720399424E-01 -0.33600304972E-02  0.10320638996E+01  0.10319956825E+01 0.  0.
     999903    2    3    3    0    0  0.54075113486E-01  0.11009875159E+00 -0.51363632511E-01  0.14063056843E+00  0.45748016709E-01 0.  0.
         14    1    1    2    0    0  0.38193675954E-02  0.10720399424E-01  0.33600304972E-02  0.11866100352E-01  0.00000000000E+00 0. -1.
     999901    1    3    3    0    0 -0.57894481082E-01 -0.12081915102E+00  0.48003602014E-01  0.89143333121E+00  0.88000000000E+00 0.  1.
        -11    1    4    4    0    0  0.37854687360E-01  0.84875192565E-01 -0.16071486411E-01  0.94315054284E-01  0.51100000000E-03 0.  1.
         11    1    4    4    0    0  0.16220426127E-01  0.25223559026E-01 -0.35292146100E-01  0.46315514150E-01  0.51100000000E-03 0. -1.
</event>
<event>
 8    1  0.2123879E+004  0.1043930E+01  0.7957747E-01            NaN
         13   -1    0    0    0    0  0.00000000000E+00  0.00000000000E+00  0.74505805969E-08  0.10566000000E+00  0.10566000000E+00 0.  1.
     999900   -1    0    0    0    0 -0.00000000000E+00 -0.00000000000E+00 -0.74505805969E-08  0.93827000000E+00  0.93827000000E+00 0. -1.
     999902    2    1    2    0    0 -0.16090284394E-02 -0.56499378754E-02  0.10738834157E-01  0.10316893575E+01  0.10316167394E+01 0.  0.
     999903    2    3    3    0    0 -0.79627885748E-02  0.53036289056E-02  0.13576324708E+00  0.14276222057E+00  0.43102875573E-01 0.  0.
         14    1    1    2    0    0  0.16090284394E-02  0.56499378754E-02 -0.10738834157E-01  0.12240642530E-01  0.00000000000E+00 0. -1.
     999901    1    3    3    0    0  0.63537601353E-02 -0.10953566781E-01 -0.12502441292E+00  0.88892713690E+00  0.88000000000E+00 0. -1.
        -11    1    4    4    0    0  0.13334432776E-01  0.41050970082E-02  0.16539817561E-01  0.21644528289E-01  0.51100000000E-03 0. -1.
         11    1    4    4    0    0 -0.21297221351E-01  0.11985318975E-02  0.11922342952E+00  0.12111769228E+00  0.51100000000E-03 0.  1.
</event>
<event>
 8    1  0.2123879E+004  0.1043930E+01  0.7957747E-01            NaN
         13   -1    0    0    0    0  0.00000000000E+00  0.00000000000E+00  0.74505805969E-08  0.10566000000E+00  0.10566000000E+00 0. -1.
     999900   -1    0    0    0    0 -0.00000000000E+00 -0.00000000000E+00 -0.74505805969E-08  0.93827000000E+00  0.93827000000E+00 0. -1.
     999902    2    1    2    0    0  0.12117523116E-01 -0.36635598040E-02  0.51753871055E-02  0.10302537188E+01  0.10301629407E+01 0.  0.
     999903    2    3    3    0    0  0.11004999314E+00 -0.72721815527E-01 -0.24634273604E-01  0.14163207417E+00  0.45313723668E-01 0.  0.
         14    1    1    2    0    0 -0.12117523116E-01  0.36635598040E-02 -0.51753871055E-02  0.13676281241E-01  0.00000000000E+00 0. -1.
     999901    1    3    3    0    0 -0.97932470025E-01  0.69058255723E-01  0.29809660710E-01  0.88862164459E+00  0.88000000000E+00 0.  1.
        -11    1    4    4    0    0  0.65259978345E-01 -0.48873599594E-01 -0.36791320145E-01  0.89450298322E-01  0.51100000000E-03 0.  1.
         11    1    4    4    0    0  0.44790014795E-01 -0.23848215933E-01  0.12157046541E-01  0.52181775843E-01  0.51100000000E-03 0. -1.
</event>
<event>
 8    1  0.2123879E+004  0.1043930E+01  0.7957747E-01            NaN
         13   -1    0    0    0    0  0.00000000000E+00  0.00000000000E+00  0.74505805969E-08  0.10566000000E+00  0.10566000000E+00 0. -1.
     999900   -1    0    0    0    0 -0.00000000000E+00 -0.00000000000E+00 -0.74505805969E-08  0.93827000000E+00  0.93827000000E+00 0.  1.
     999902    2    1    2    0    0  0.10788092376E-01 -0.26446289486E-02 -0.82456703224E-02  0.10300964148E+01  0.10300035222E+01 0.  0.
     999903    2    3    3    0    0 -0.80069994387E-01 -0.52827625458E-01 -0.92406307956E-01  0.14000847649E+00  0.43144938586E-01 0.  0.
         14    1    1    2    0    0 -0.10788092376E-01  0.26446289486E-02  0.82456703224E-02  0.13833585163E-01  0.00000000000E+00 0. -1.
     999901    1    3    3    0    0  0.90858086763E-01  0.50182996509E-01  0.84160637634E-01  0.89008793835E+00  0.88000000000E+00 0.  1.
        -11    1    4    4    0    0 -0.18843369808E-01 -0.95421279660E-02 -0.49015202501E-01  0.53374862895E-01  0.51100000000E-03 0.  1.
         11    1    4    4    0    0 -0.61226624579E-01 -0.43285497492E-01 -0.43391105456E-01  0.86633613593E-01  0.51100000000E-03 0. -1.
</event>
<event>
 8    1  0.2123879E+004  0.1043930E+01  0.7957747E-01            NaN
         13   -1    0    0    0    0  0.00000000000E+00  0.00000000000E+00  0.74505805969E-08  0.10566000000E+00  0.10566000000E+00 0. -1.
     999900   -1    0    0    0    0 -0.00000000000E+00 -0.00000000000E+00 -0.74505805969E-08  0.93827000000E+00  0.93827000000E+00 0.  1.
     999902    2    1    2    0    0 -0.98180303340E-02  0.22775715996E-02 -0.81161822334E-02  0.10309896188E+01  0.10309084055E+01 0.  0.
     999903    2    3    3    0    0 -0.80504199527E-01 -0.82145872556E-01 -0.70141802324E-01  0.14196148088E+00  0.44769622514E-01 0.  0.
         14    1    1    2    0    0  0.98180303340E-02 -0.22775715996E-02  0.81161822334E-02  0.12940381218E-01  0.00000000000E+00 0. -1.
     999901    1    3    3    0    0  0.70686169193E-01  0.84423444155E-01  0.62025620091E-01  0.88902813790E+00  0.88000000000E+00 0. -1.
        -11    1    4    4    0    0 -0.33526282806E-01 -0.51864845836E-01 -0.15235856632E-01  0.63611055020E-01  0.51100000000E-03 0. -1.
         11    1    4    4    0    0 -0.46977916721E-01 -0.30281026720E-01 -0.54905945692E-01  0.78350425858E-01  0.51100000000E-03 0.  1.
</event>
<event>
 8    1  0.2123879E+004  0.1043930E+01  0.7957747E-01            NaN
         13   -1    0    0    0    0  0.00000000000E+00  0.00000000000E+00  0.74505805969E-08  0.10566000000E+00  0.10566000000E+00 0. -1.
     999900   -1    0    0    0    0 -0.00000000000E+00 -0.00000000000E+00 -0.74505805969E-08  0.93827000000E+00  0.93827000000E+00 0.  1.
     999902    2    1    2    0    0  0.10678428275E-02 -0.10813879070E-01  0.13061401447E-01  0.10269394003E+01  0.10267988369E+01 0.  0.
     999903    2    3    3    0    0  0.11980297680E+00  0.30390370735E-01  0.41941861834E-01  0.13754078148E+00  0.43382241914E-01 0.  0.
         14    1    1    2    0    0 -0.10678428275E-02  0.10813879070E-01 -0.13061401447E-01  0.16990599654E-01  0.00000000000E+00 0.  1.
     999901    1    3    3    0    0 -0.11873513397E+00 -0.41204249806E-01 -0.28880460387E-01  0.88939861886E+00  0.88000000000E+00 0. -1.
        -11    1    4    4    0    0  0.57055948868E-01 -0.46751922283E-04  0.18315363633E-02  0.57087644315E-01  0.51100000000E-03 0. -1.
         11    1    4    4    0    0  0.62747027932E-01  0.30437122657E-01  0.40110325471E-01  0.80453137169E-01  0.51100000000E-03 0.  1.
</event>
<event>
 8    1  0.2123879E+004  0.1043930E+01  0.7957747E-01            NaN
         13   -1    0    0    0    0  0.00000000000E+00  0.00000000000E+00  0.74505805969E-08  0.10566000000E+00  0.10566000000E+00 0. -1.
     999900   -1    0    0    0    0 -0.00000000000E+00 -0.00000000000E+00 -0.74505805969E-08  0.93827000000E+00  0.93827000000E+00 0. -1.
     999902    2    1    2    0    0 -0.11233178511E-01  0.88996569080E-02 -0.29413165253E-02  0.10292999099E+01  0.10291959313E+01 0.  0.
     999903    2    3    3    0    0 -0.11830174157E+00  0.61826079644E-01  0.88245538057E-02  0.14115390891E+00  0.45042058876E-01 0.  0.
         14    1    1    2    0    0  0.11233178511E-01 -0.88996569080E-02  0.29413165253E-02  0.14630090070E-01  0.00000000000E+00 0. -1.
     999901    1    3    3    0    0  0.10706856306E+00 -0.52926422736E-01 -0.11765870331E-01  0.88814600102E+00  0.88000000000E+00 0. -1.
        -11    1    4    4    0    0 -0.86445813185E-02  0.80383247979E-02  0.14715982193E-01  0.18872326423E-01  0.51100000000E-03 0. -1.
         11    1    4    4    0    0 -0.10965716025E+00  0.53787754846E-01 -0.58914283869E-02  0.12228158249E+00  0.51100000000E-03 0.  1.
</event>
<event>
 7    1  0.2123879E+004  0.1043930E+01  0.7957747E-01            NaN
         13   -1    0    0    0    0  0.00000000000E+00  0.00000000000E+00  0.74505805969E-08  0.10566000000E+00  0.10566000000E+00 0. -1.
     999900   -1    0    0    0    0 -0.00000000000E+00 -0.00000000000E+00 -0.74505805969E-08  0.93827000000E+00  0.93827000000E+00 0.  1.
     999903    2    1    2    0    0 -0.99216529696E-01  0.32918274761E-01 -0.55087137312E-01  0.12630962070E+00  0.44631771266E-01 0.  0.
         14    1    1    2    0    0  0.24174745443E-01 -0.42899891125E-02 -0.18735669328E-01  0.30884423728E-01  0.00000000000E+00 0.  1.
     999901    1    1    2    0    0  0.75041784253E-01 -0.28628285649E-01  0.73822806640E-01  0.88673595557E+00  0.88000000000E+00 0. -1.
        -11    1    3    3    0    0 -0.45630126855E-01 -0.52969412184E-02 -0.34145122558E-01  0.57239117556E-01  0.51100000000E-03 0. -1.
         11    1    3    3    0    0 -0.53586402840E-01  0.38215215979E-01 -0.20942014754E-01  0.69070503145E-01  0.51100000000E-03 0.  1.
</event>
<event>
 8    1  0.2123879E+004  0.1043930E+01  0.7957747E-01            NaN
         13   -1    0    0    0    0  0.00000000000E+00  0.00000000000E+00  0.74505805969E-08  0.10566000000E+00  0.10566000000E+00 0.  1.
     999900   -1    0    0    0    0 -0.00000000000E+00 -0.00000000000E+00 -0.74505805969E-08  0.93827000000E+00  0.93827000000E+00 0. -1.
     999902    2    1    2    0    0  0.12992007627E-01 -0.42339783591E-02 -0.49933579925E-02  0.10293817197E+01  0.10292789090E+01 0.  0.
     999903    2    3    3    0    0  0.16361097395E-01 -0.77088808253E-02 -0.13128224150E+00  0.14035286316E+00  0.46225392503E-01 0.  0.
         14    1    1    2    0    0 -0.12992007627E-01  0.42339783591E-02  0.49933579925E-02  0.14548280275E-01  0.00000000000E+00 0.  1.
     999901    1    3    3    0    0 -0.33690897680E-02  0.34749024662E-02  0.12628888351E+00  0.88902885657E+00  0.88000000000E+00 0.  1.
        -11    1    4    4    0    0  0.27101412846E-01  0.85351641878E-02 -0.58934602604E-01  0.65428465603E-01  0.51100000000E-03 0. -1.
         11    1    4    4    0    0 -0.10740315452E-01 -0.16244045013E-01 -0.72347638894E-01  0.74924397555E-01  0.51100000000E-03 0.  1.
</event>
<event>
 8    1  0.2123879E+004  0.1043930E+01  0.7957747E-01            NaN
         13   -1    0    0    0    0  0.00000000000E+00  0.00000000000E+00  0.74505805969E-08  0.10566000000E+00  0.10566000000E+00 0.  1.
     999900   -1    0    0    0    0 -0.00000000000E+00 -0.00000000000E+00 -0.74505805969E-08  0.93827000000E+00  0.93827000000E+00 0. -1.
     999902    2    1    2    0    0  0.12807775520E-01 -0.31943663181E-02 -0.44889414444E-02  0.10299874864E+01  0.10298931151E+01 0.  0.
     999903    2    3    3    0    0 -0.96741720620E-01  0.85922370405E-01 -0.20948096854E-01  0.13857636427E+00  0.44977458010E-01 0.  0.
         14    1    1    2    0    0 -0.12807775520E-01  0.31943663181E-02  0.44889414444E-02  0.13942513591E-01  0.00000000000E+00 0. -1.
     999901    1    3    3    0    0  0.10954949614E+00 -0.89116736723E-01  0.16459155410E-01  0.89141112213E+00  0.88000000000E+00 0. -1.
        -11    1    4    4    0    0 -0.89865206590E-01  0.55802391595E-01 -0.20039211142E-01  0.10766379785E+00  0.51100000000E-03 0. -1.
         11    1    4    4    0    0 -0.68765140308E-02  0.30119978810E-01 -0.90888571168E-03  0.30912566425E-01  0.51100000000E-03 0.  1.
</event>
<event>
 8    1  0.2123879E+004  0.1043930E+01  0.7957747E-01            NaN
         13   -1    0    0    0    0  0.00000000000E+00  0.00000000000E+00  0.74505805969E-08  0.10566000000E+00  0.10566000000E+00 0. -1.
     999900   -1    0    0    0    0 -0.00000000000E+00 -0.00000000000E+00 -0.74505805969E-08  0.93827000000E+00  0.93827000000E+00 0. -1.
     999902    2    1    2    0    0  0.12013947503E-02 -0.10855919019E-01 -0.75351132895E-02  0.10306607777E+01  0.10305753570E+01 0.  0.
     999903    2    3    3    0    0 -0.80339829762E-01  0.72483509276E-02 -0.10698168976E+00  0.14112923954E+00  0.44332307317E-01 0.  0.
         14    1    1    2    0    0 -0.12013947503E-02  0.10855919019E-01  0.75351132895E-02  0.13269222260E-01  0.00000000000E+00 0. -1.
     999901    1    3    3    0    0  0.81541224512E-01 -0.18104269947E-01  0.99446576467E-01  0.88953153820E+00  0.88000000000E+00 0.  1.
        -11    1    4    4    0    0 -0.25911159342E-01  0.20474992359E-01 -0.23259692613E-01  0.40396632434E-01  0.51100000000E-03 0. -1.
         11    1    4    4    0    0 -0.54428670419E-01 -0.13226641431E-01 -0.83721997144E-01  0.10073260710E+00  0.51100000000E-03 0.  1.
</event>
<event>
 8    1  0.2123879E+004  0.1043930E+01  0.7957747E-01            NaN
         13   -1    0    0    0    0  0.00000000000E+00  0.00000000000E+00  0.74505805969E-08  0.10566000000E+00  0.10566000000E+00 0.  1.
     999900   -1    0    0    0    0 -0.00000000000E+00 -0.00000000000E+00 -0.74505805969E-08  0.93827000000E+00  0.93827000000E+00 0.  1.
     999902    2    1    2    0    0  0.93713077360E-02  0.10894849001E-01  0.95737700168E-02  0.10266622203E+01  0.10265169937E+01 0.  0.
     999903    2    3    3    0    0  0.57624893314E-01  0.99686835711E-01 -0.60342607717E-01  0.13812368692E+00  0.46677928820E-01 0.  0.
         14    1    1    2    0    0 -0.93713077360E-02 -0.10894849001E-01 -0.95737700168E-02  0.17267779700E-01  0.00000000000E+00 0.  1.
     999901    1    3    3    0    0 -0.48253585578E-01 -0.88791986710E-01  0.69916377734E-01  0.88853853338E+00  0.88000000000E+00 0. -1.
        -11    1    4    4    0    0  0.38682453148E-01  0.58076791324E-01 -0.60568300818E-01  0.92401439691E-01  0.51100000000E-03 0. -1.
         11    1    4    4    0    0  0.18942440166E-01  0.41610044386E-01  0.22569310089E-03  0.45722247229E-01  0.51100000000E-03 0.  1.
</event>
<event>
 8    1  0.2123879E+004  0.1043930E+01  0.7957747E-01            NaN
         13   -1    0    0    0    0  0.00000000000E+00  0.00000000000E+00  0.74505805969E-08  0.10566000000E+00  0.10566000000E+00 0.  1.
     999900   -1    0    0    0    0 -0.00000000000E+00 -0.00000000000E+00 -0.74505805969E-08  0.93827000000E+00  0.93827000000E+00 0. -1.
     999902    2    1    2    0    0  0.12574276054E-01 -0.16444053089E-02 -0.57007764362E-02  0.10300262113E+01  0.10299323671E+01 0.  0.
     999903    2    3    3    0    0  0.77054543109E-01 -0.48149256064E-01 -0.98545804576E-01  0.14157778558E+00  0.45576751721E-01 0.  0.
         14    1    1    2    0    0 -0.12574276054E-01  0.16444053089E-02  0.57007764362E-02  0.13903788659E-01  0.00000000000E+00 0.  1.
     999901    1    3    3    0    0 -0.64480267055E-01  0.46504850755E-01  0.92845028140E-01  0.88844842576E+00  0.88000000000E+00 0.  1.
        -11    1    4    4    0    0  0.52892262366E-01 -0.27674437213E-01 -0.31664150284E-01  0.67574739566E-01  0.51100000000E-03 0.  1.
         11    1    4    4    0    0  0.24162280743E-01 -0.20474818851E-01 -0.66881654293E-01  0.74003046016E-01  0.51100000000E-03 0. -1.
</event>
<event>
 8    1  0.2123879E+004  0.1043930E+01  0.7957747E-01            NaN
         13   -1    0    0    0    0  0.00000000000E+00  0.00000000000E+00  0.74505805969E-08  0.10566000000E+00  0.10566000000E+00 0.  1.
     999900   -1    0    0    0    0 -0.00000000000E+00 -0.00000000000E+00 -0.74505805969E-08  0.93827000000E+00  0.93827000000E+00 0.  1.
     999902    2    1    2    0    0 -0.12807556556E-01 -0.36547814170E-02 -0.40757660059E-02  0.10300015112E+01  0.10299073309E+01 0.  0.
     999903    2    3    3    0    0  0.82256740447E-01  0.92076003587E-01 -0.46454335361E-01  0.13871168913E+00  0.42880830695E-01 0.  0.
         14    1    1    2    0    0  0.12807556556E-01  0.36547814170E-02  0.40757660059E-02  0.13928488816E-01  0.00000000000E+00 0. -1.
     999901    1    3    3    0    0 -0.95064297004E-01 -0.95730785004E-01  0.42378569355E-01  0.89128982206E+00  0.88000000000E+00 0. -1.
        -11    1    4    4    0    0  0.15170420211E-01  0.41206008638E-01 -0.29293485565E-01  0.52786799626E-01  0.51100000000E-03 0. -1.
         11    1    4    4    0    0  0.67086320237E-01  0.50869994949E-01 -0.17160849796E-01  0.85924889501E-01  0.51100000000E-03 0.  1.
</event>
<event>
 8    1  0.2123879E+004  0.1043930E+01  0.7957747E-01            NaN
         13   -1    0    0    0    0  0.00000000000E+00  0.00000000000E+00  0.74505805969E-08  0.10566000000E+00  0.10566000000E+00 0. -1.
     999900   -1    0    0    0    0 -0.00000000000E+00 -0.00000000000E+00 -0.74505805969E-08  0.93827000000E+00  0.93827000000E+00 0. -1.
     999902    2    1    2    0    0 -0.10103316727E-01 -0.10537027754E-01 -0.37997070667E-02  0.10288454471E+01  0.10287348591E+01 0.  0.
     999903    2    3    3    0    0  0.54033258112E-01 -0.11395232039E+00 -0.41012215350E-01  0.13969248288E+00  0.43900611178E-01 0.  0.
         14    1    1    2    0    0  0.10103316727E-01  0.10537027754E-01  0.37997070667E-02  0.15084552912E-01  0.00000000000E+00 0.  1.
     999901    1    3    3    0    0 -0.64136574839E-01  0.10341529263E+00  0.37212508283E-01  0.88915296421E+00  0.88000000000E+00 0.  1.
        -11    1    4    4    0    0  0.30080704309E-01 -0.22591888259E-01 -0.21208303137E-01  0.43189066090E-01  0.51100000000E-03 0. -1.
         11    1    4    4    0    0  0.23952553803E-01 -0.91360432129E-01 -0.19803912213E-01  0.96503416792E-01  0.51100000000E-03 0.  1.
</event>
<event>
 8    1  0.2123879E+004  0.1043930E+01  0.7957747E-01            NaN
         13   -1    0    0    0    0  0.00000000000E+00  0.00000000000E+00  0.74505805969E-08  0.10566000000E+00  0.10566000000E+00 0. -1.
     999900   -1    0    0    0    0 -0.00000000000E+00 -0.00000000000E+00 -0.74505805969E-08  0.93827000000E+00  0.93827000000E+00 0. -1.
     999902    2    1    2    0    0 -0.37519533430E-02  0.10727451715E-01 -0.95927703914E-02  0.10290579921E+01  0.10289505209E+01 0.  0.
     999903    2    3    3    0    0  0.86210411271E-01 -0.50190142475E-01 -0.84916838843E-01  0.13918277863E+00  0.47007349785E-01 0.  0.
         14    1    1    2    0    0  0.37519533430E-02 -0.10727451715E-01  0.95927703914E-02  0.14872007866E-01  0.00000000000E+00 0. -1.
     999901    1    3    3    0    0 -0.89962364614E-01  0.60917594190E-01  0.75324068451E-01  0.88987521351E+00  0.88000000000E+00 0.  1.
        -11    1    4    4    0    0  0.44259016775E-01 -0.19769535847E-01 -0.12373666830E-01  0.50030629272E-01  0.51100000000E-03 0. -1.
         11    1    4    4    0    0  0.41951394496E-01 -0.30420606628E-01 -0.72543172013E-01  0.89152149354E-01  0.51100000000E-03 0.  1.
</event>
<event>
 8    1  0.2123879E+004  0.1043930E+01  0.7957747E-01            NaN
         13   -1    0    0    0    0  0.00000000000E+00  0.00000000000E+00  0.74505805969E-08  0.10566000000E+00  0.10566000000E+00 0. -1.
     999900   -1    0    0    0    0 -0.00000000000E+00 -0.00000000000E+00 -0.74505805969E-08  0.93827000000E+00  0.93827000000E+00 0.  1.
     999902    2    1    2    0    0 -0.52497741334E-02  0.11384638179E-01  0.44127675582E-02  0.10306393028E+01  0.10305536036E+01 0.  0.
     999903    2    3    3    0    0  0.12914310693E-01  0.33980149734E-01 -0.12759797751E+00  0.14032063628E+00  0.45685961777E-01 0.  0.
         14    1    1    2    0    0  0.52497741334E-02 -0.11384638179E-01 -0.44127675582E-02  0.13290697214E-01  0.00000000000E+00 0. -1.
     999901    1    3    3    0    0 -0.18164084827E-01 -0.22595511556E-01  0.13201074507E+00  0.89031866651E+00  0.88000000000E+00 0. -1.
        -11    1    4    4    0    0  0.21069633970E-01  0.13454211148E-01 -0.10777793677E+00  0.11064036356E+00  0.51100000000E-03 0. -1.
         11    1    4    4    0    0 -0.81553232768E-02  0.20525938587E-01 -0.19820040744E-01  0.29680272720E-01  0.51100000000E-03 0.  1.
</event>
<event>
 8    1  0.2123879E+004  0.1043930E+01  0.7957747E-01            NaN
         13   -1    0    0    0    0  0.00000000000E+00  0.00000000000E+00  0.74505805969E-08  0.10566000000E+00  0.10566000000E+00 0.  1.
     999900   -1    0    0    0    0 -0.00000000000E+00 -0.00000000000E+00 -0.74505805969E-08  0.93827000000E+00  0.93827000000E+00 0.  1.
     999902    2    1    2    0    0  0.10727040579E-01  0.58800532570E-02  0.34351680340E-04  0.10316970279E+01  0.10316245014E+01 0.  0.
     999903    2    3    3    0    0 -0.27215785194E-01  0.11488911854E+00 -0.67615954964E-01  0.14158512578E+00  0.39169145421E-01 0.  0.
         14    1    1    2    0    0 -0.10727040579E-01 -0.58800532570E-02 -0.34351680340E-04  0.12232972081E-01  0.00000000000E+00 0.  1.
     999901    1    3    3    0    0  0.37942825773E-01 -0.10900906529E+00  0.67650306645E-01  0.89011190214E+00  0.88000000000E+00 0. -1.
        -11    1    4    4    0    0  0.28729502763E-02  0.51633804941E-01 -0.14605551216E-01  0.53739063104E-01  0.51100000000E-03 0. -1.
         11    1    4    4    0    0 -0.30088735470E-01  0.63255313601E-01 -0.53010403748E-01  0.87846062675E-01  0.51100000000E-03 0.  1.
</event>
<event>
 8    1  0.2123879E+004  0.1043930E+01  0.7957747E-01            NaN
         13   -1    0    0    0    0  0.00000000000E+00  0.00000000000E+00  0.74505805969E-08  0.10566000000E+00  0.10566000000E+00 0. -1.
     999900   -1    0    0    0    0 -0.00000000000E+00 -0.00000000000E+00 -0.74505805969E-08  0.93827000000E+00  0.93827000000E+00 0. -1.
     999902    2    1    2    0    0  0.15948649386E-02 -0.11394682279E-01  0.59274788759E-02  0.10309871493E+01  0.10309059048E+01 0.  0.
     999903    2    3    3    0    0  0.50237775658E-02  0.50605449313E-01 -0.12193553115E+00  0.13958111214E+00  0.45038464315E-01 0.  0.
         14    1    1    2    0    0 -0.15948649386E-02  0.11394682279E-01 -0.59274788759E-02  0.12942850700E-01  0.00000000000E+00 0.  1.
     999901    1    3    3    0    0 -0.34289126272E-02 -0.62000131592E-01  0.12786301002E+00  0.89140603716E+00  0.88000000000E+00 0. -1.
        -11    1    4    4    0    0 -0.18048746335E-01  0.32954818449E-01 -0.81949612455E-01  0.90154186846E-01  0.51100000000E-03 0.  1.
         11    1    4    4    0    0  0.23072523901E-01  0.17650630864E-01 -0.39985918693E-01  0.49426925291E-01  0.51100000000E-03 0. -1.
</event>
<event>
 8    1  0.2123879E+004  0.1043930E+01  0.7957747E-01            NaN
         13   -1    0    0    0    0  0.00000000000E+00  0.00000000000E+00  0.74505805969E-08  0.10566000000E+00  0.10566000000E+00 0. -1.
     999900   -1    0    0    0    0 -0.00000000000E+00 -0.00000000000E+00 -0.74505805969E-08  0.93827000000E+00  0.93827000000E+00 0. -1.
     999902    2    1    2    0    0  0.11306363530E-01 -0.37124037353E-02 -0.69210998756E-02  0.10301634673E+01  0.10300714791E+01 0.  0.
     999903    2    3    3    0    0 -0.11945937251E+00 -0.53580751029E-01 -0.79137410988E-02  0.13910369656E+00  0.46322484126E-01 0.  0.
         14    1    1    2    0    0 -0.11306363530E-01  0.37124037353E-02  0.69210998756E-02  0.13766532652E-01  0.00000000000E+00 0. -1.
     999901    1    3    3    0    0  0.13076573604E+00  0.49868347294E-01  0.99264122319E-03  0.89105977079E+00  0.88000000000E+00 0. -1.
        -11    1    4    4    0    0 -0.88625714646E-01 -0.15683390623E-01 -0.61189540078E-02  0.90211910284E-01  0.51100000000E-03 0.  1.
         11    1    4    4    0    0 -0.30833657867E-01 -0.37897360407E-01 -0.17947870910E-02  0.48891786273E-01  0.51100000000E-03 0. -1.
</event>
<event>
 8    1  0.2123879E+004  0.1043930E+01  0.7957747E-01            NaN
         13   -1    0    0    0    0  0.00000000000E+00  0.00000000000E+00  0.74505805969E-08  0.10566000000E+00  0.10566000000E+00 0. -1.
     999900   -1    0    0    0    0 -0.00000000000E+00 -0.00000000000E+00 -0.74505805969E-08  0.93827000000E+00  0.93827000000E+00 0. -1.
     999902    2    1    2    0    0 -0.11870065586E-01 -0.17588617654E-02 -0.11843130158E-02  0.10318720296E+01  0.10318015754E+01 0.  0.
     999903    2    3    3    0    0 -0.49653792043E-01 -0.10799393193E+00  0.66596305302E-01  0.14209244327E+00  0.40336164353E-01 0.  0.
         14    1    1    2    0    0  0.11870065586E-01  0.17588617654E-02  0.11843130158E-02  0.12057970353E-01  0.00000000000E+00 0.  1.
     999901    1    3    3    0    0  0.37783726457E-01  0.10623507017E+00 -0.67780618318E-01  0.88977958638E+00  0.88000000000E+00 0. -1.
        -11    1    4    4    0    0 -0.48470910156E-01 -0.80643494372E-01  0.35263497441E-01  0.10048172813E+00  0.51100000000E-03 0.  1.
         11    1    4    4    0    0 -0.11828818864E-02 -0.27350437562E-01  0.31332807862E-01  0.41610715133E-01  0.51100000000E-03 0. -1.
</event>
<event>
 8    1  0.2123879E+004  0.1043930E+01  0.7957747E-01            NaN
         13   -1    0    0    0    0  0.00000000000E+00  0.00000000000E+00  0.74505805969E-08  0.10566000000E+00  0.10566000000E+00 0.  1.
     999900   -1    0    0    0    0 -0.00000000000E+00 -0.00000000000E+00 -0.74505805969E-08  0.93827000000E+00  0.93827000000E+00 0.  1.
     999902    2    1    2    0    0  0.27343835336E-02  0.38267487382E-02  0.11554013381E-01  0.10314553824E+01  0.10313799444E+01 0.  0.
     999903    2    3    3    0    0  0.78837226266E-01  0.71084602404E-01  0.84122559036E-01  0.14264637289E+00  0.44755489233E-01 0.  0.
         14    1    1    2    0    0 -0.27343835336E-02 -0.38267487382E-02 -0.11554013381E-01  0.12474617606E-01  0.00000000000E+00 0. -1.
     999901    1    3    3    0    0 -0.76102842732E-01 -0.67257853666E-01 -0.72568545655E-01  0.88880900950E+00  0.88000000000E+00 0.  1.
        -11    1    4    4    0    0  0.62315568842E-01  0.47258354872E-01  0.82384176119E-01  0.11359575618E+00  0.51100000000E-03 0.  1.
         11    1    4    4    0    0  0.16521657424E-01  0.23826247532E-01  0.17383829173E-02  0.29050616717E-01  0.51100000000E-03 0. -1.
</event>
<event>
 8    1  0.2123879E+004  0.1043930E+01  0.7957747E-01            NaN
         13   -1    0    0    0    0  0.00000000000E+00  0.00000000000E+00  0.74505805969E-08  0.10566000000E+00  0.10566000000E+00 0.  1.
     999900   -1    0    0    0    0 -0.00000000000E+00 -0.00000000000E+00 -0.74505805969E-08  0.93827000000E+00  0.93827000000E+00 0. -1.
     999902    2    1    2    0    0 -0.52923727929E-02 -0.87183442515E-02  0.16355253568E-01  0.10246553261E+01  0.10244740232E+01 0.  0.
     999903    2    3    3    0    0 -0.59599223922E-01  0.11203460331E+00  0.74989361975E-02  0.13470648327E+00  0.44562122478E-01 0.  0.
         14    1    1    2    0    0  0.52923727929E-02  0.87183442515E-02 -0.16355253568E-01  0.19274673941E-01  0.00000000000E+00 0. -1.
     999901    1    3    3    0    0  0.54306851129E-01 -0.12075294756E+00  0.88563173702E-02  0.88994884279E+00  0.88000000000E+00 0.  1.
        -11    1    4    4    0    0 -0.55868956012E-01  0.97695017395E-01  0.21196623469E-01  0.11452167759E+00  0.51100000000E-03 0.  1.
         11    1    4    4    0    0 -0.37302679106E-02  0.14339585915E-01 -0.13697687271E-01  0.20184805684E-01  0.51100000000E-03 0. -1.
</event>
<event>
 8    1  0.2123879E+004  0.1043930E+01  0.7957747E-01            NaN
         13   -1    0    0    0    0  0.00000000000E+00  0.00000000000E+00  0.74505805969E-08  0.10566000000E+00  0.10566000000E+00 0. -1.
     999900   -1    0    0    0    0 -0.00000000000E+00 -0.00000000000E+00 -0.74505805969E-08  0.93827000000E+00  0.93827000000E+00 0. -1.
     999902    2    1    2    0    0  0.87988011629E-02 -0.99863476130E-02  0.47849461546E-02  0.10297863884E+01  0.10296892560E+01 0.  0.
     999903    2    3    3    0    0  0.11793454425E+00 -0.27084226293E-01 -0.55963147663E-01  0.14080197974E+00  0.45290303164E-01 0.  0.
         14    1    1    2    0    0 -0.87988011629E-02  0.99863476130E-02 -0.47849461546E-02  0.14143611641E-01  0.00000000000E+00 0.  1.
     999901    1    3    3    0    0 -0.10913574308E+00  0.17097878680E-01  0.60748093818E-01  0.88898440862E+00  0.88000000000E+00 0.  1.
        -11    1    4    4    0    0  0.74204653415E-01  0.56002739764E-02 -0.28515017277E-01  0.79693544207E-01  0.51100000000E-03 0. -1.
         11    1    4    4    0    0  0.43729890831E-01 -0.32684500270E-01 -0.27448130387E-01  0.61108435528E-01  0.51100000000E-03 0.  1.
</event>
<event>
 8    1  0.2123879E+004  0.1043930E+01  0.7957747E-01            NaN
         13   -1    0    0    0    0  0.00000000000E+00  0.00000000000E+00  0.74505805969E-08  0.10566000000E+00  0.10566000000E+00 0. -1.
     999900   -1    0    0    0    0 -0.00000000000E+00 -0.00000000000E+00 -0.74505805969E-08  0.93827000000E+00  0.93827000000E+00 0. -1.
     999902    2    1    2    0    0 -0.85532165781E-03 -0.40147838012E-02  0.13340037901E-01  0.10299726838E+01  0.10298781106E+01 0.  0.
     999903    2    3    3    0    0 -0.76816621571E-01 -0.62702871839E-01  0.90104627398E-01  0.14143049969E+00  0.45291267110E-01 0.  0.
         14    1    1    2    0    0  0.85532165781E-03  0.40147838012E-02 -0.13340037901E-01  0.13957316193E-01  0.00000000000E+00 0.  1.
     999901    1    3    3    0    0  0.75961299914E-01  0.58688088037E-01 -0.76764589498E-01  0.88854218412E+00  0.88000000000E+00 0. -1.
        -11    1    4    4    0    0 -0.58886434390E-01 -0.34294502989E-01  0.34298612066E-01  0.76291421543E-01  0.51100000000E-03 0. -1.
         11    1    4    4    0    0 -0.17930187181E-01 -0.28408368850E-01  0.55806015332E-01  0.65139078143E-01  0.51100000000E-03 0.  1.
</event>
<event>
 8    1  0.2123879E+004  0.1043930E+01  0.7957747E-01            NaN
         13   -1    0    0    0    0  0.00000000000E+00  0.00000000000E+00  0.74505805969E-08  0.10566000000E+00  0.10566000000E+00 0. -1.
     999900   -1    0    0    0    0 -0.00000000000E+00 -0.00000000000E+00 -0.74505805969E-08  0.93827000000E+00  0.93827000000E+00 0.  1.
     999902    2    1    2    0    0 -0.15263175809E-01 -0.29603163430E-02 -0.61487694975E-02  0.10272106886E+01  0.10270746143E+01 0.  0.
     999903    2    3    3    0    0 -0.51395086550E-01  0.11804376271E+00 -0.21478654007E-01  0.13806362115E+00  0.44993844837E-01 0.  0.
         14    1    1    2    0    0  0.15263175809E-01  0.29603163430E-02  0.61487694975E-02  0.16719311438E-01  0.00000000000E+00 0. -1.
     999901    1    3    3    0    0  0.36131910741E-01 -0.12100407905E+00  0.15329884510E-01  0.88914706741E+00  0.88000000000E+00 0. -1.
        -11    1    4    4    0    0 -0.12605517228E-01  0.27114254172E-01 -0.25240224275E-01  0.39133258059E-01  0.51100000000E-03 0. -1.
         11    1    4    4    0    0 -0.38789569322E-01  0.90929508534E-01  0.37615702674E-02  0.98930363096E-01  0.51100000000E-03 0.  1.
</event>
<event>
 8    1  0.2123879E+004  0.1043930E+01  0.7957747E-01            NaN
         13   -1    0    0    0    0  0.00000000000E+00  0.00000000000E+00  0.74505805969E-08  0.10566000000E+00  0.10566000000E+00 0.  1.
     999900   -1    0    0    0    0 -0.00000000000E+00 -0.00000000000E+00 -0.74505805969E-08  0.93827000000E+00  0.93827000000E+00 0.  1.
     999902    2    1    2    0    0 -0.12101857939E-01  0.81391170882E-02  0.15142944858E-02  0.10292673508E+01  0.10291629056E+01 0.  0.
     999903    2    3    3    0    0  0.86338051978E-02 -0.11798356145E+00 -0.55363812062E-01  0.13821627668E+00  0.45209778686E-01 0.  0.
         14    1    1    2    0    0  0.12101857939E-01 -0.81391170882E-02 -0.15142944858E-02  0.14662649159E-01  0.00000000000E+00 0. -1.
     999901    1    3    3    0    0 -0.20735663137E-01  0.12612267853E+00  0.56878106547E-01  0.89105107416E+00  0.88000000000E+00 0. -1.
        -11    1    4    4    0    0  0.92877652508E-02 -0.56045883788E-01 -0.50618783391E-01  0.76091563434E-01  0.51100000000E-03 0. -1.
         11    1    4    4    0    0 -0.65396005299E-03 -0.61937677657E-01 -0.47450286709E-02  0.62124713242E-01  0.51100000000E-03 0.  1.
</event>
<event>
 8    1  0.2123879E+004  0.1043930E+01  0.7957747E-01            NaN
         13   -1    0    0    0    0  0.00000000000E+00  0.00000000000E+00  0.74505805969E-08  0.10566000000E+00  0.10566000000E+00 0. -1.
     999900   -1    0    0    0    0 -0.00000000000E+00 -0.00000000000E+00 -0.74505805969E-08  0.93827000000E+00  0.93827000000E+00 0. -1.
     999902    2    1    2    0    0 -0.95113243066E-02 -0.79091953012E-02 -0.40722904504E-02  0.10309067819E+01  0.10308245189E+01 0.  0.
     999903    2    3    3    0    0  0.11783669983E+00 -0.48954747988E-01 -0.37390378776E-01  0.14016981081E+00  0.44356287715E-01 0.  0.
         14    1    1    2    0    0  0.95113243066E-02  0.79091953012E-02  0.40722904504E-02  0.13023218108E-01  0.00000000000E+00 0. -1.
     999901    1    3    3    0    0 -0.12734802413E+00  0.41045552687E-01  0.33318088325E-01  0.89073697108E+00  0.88000000000E+00 0. -1.
        -11    1    4    4    0    0  0.33691718035E-01 -0.37053626394E-01 -0.12608848914E-01  0.51646367588E-01  0.51100000000E-03 0.  1.
         11    1    4    4    0    0  0.84144981793E-01 -0.11901121594E-01 -0.24781529862E-01  0.88523443220E-01  0.51100000000E-03 0. -1.
</event>
<event>
 8    1  0.2123879E+004  0.1043930E+01  0.7957747E-01            NaN
         13   -1    0    0    0    0  0.00000000000E+00  0.00000000000E+00  0.74505805969E-08  0.10566000000E+00  0.10566000000E+00 0.  1.
     999900   -1    0    0    0    0 -0.00000000000E+00 -0.00000000000E+00 -0.74505805969E-08  0.93827000000E+00  0.93827000000E+00 0.  1.
     999902    2    1    2    0    0 -0.12676261640E-01  0.81478803769E-02 -0.38703894708E-02  0.10283718678E+01  0.10282541723E+01 0.  0.
     999903    2    3    3    0    0 -0.11747473877E-01  0.71238719040E-01 -0.11090522849E+00  0.13964369035E+00  0.44580627130E-01 0.  0.
         14    1    1    2    0    0  0.12676261640E-01 -0.81478803769E-02  0.38703894708E-02  0.15558132229E-01  0.00000000000E+00 0. -1.
     999901    1    3    3    0    0 -0.92878776351E-03 -0.63090838663E-01  0.10703483902E+00  0.88872817742E+00  0.88000000000E+00 0. -1.
        -11    1    4    4    0    0 -0.27760236032E-01  0.55333949214E-01 -0.86823836017E-01  0.10663543624E+00  0.51100000000E-03 0.  1.
         11    1    4    4    0    0  0.16012762156E-01  0.15904769826E-01 -0.24081392478E-01  0.33008254115E-01  0.51100000000E-03 0. -1.
</event>
<event>
 8    1  0.2123879E+004  0.1043930E+01  0.7957747E-01            NaN
         13   -1    0    0    0    0  0.00000000000E+00  0.00000000000E+00  0.74505805969E-08  0.10566000000E+00  0.10566000000E+00 0. -1.
     999900   -1    0    0    0    0 -0.00000000000E+00 -0.00000000000E+00 -0.74505805969E-08  0.93827000000E+00  0.93827000000E+00 0.  1.
     999902    2    1    2    0    0 -0.21742387300E-02  0.12944110239E-01  0.39823355110E-02  0.10302137213E+01  0.10301224079E+01 0.  0.
     999903    2    3    3    0    0 -0.79568233388E-01 -0.86317033828E-01 -0.48412306239E-01  0.13971509495E+00  0.58265103349E-01 0.  0.
         14    1    1    2    0    0  0.21742387300E-02 -0.12944110239E-01 -0.39823355110E-02  0.13716278652E-01  0.00000000000E+00 0. -1.
     999901    1    3    3    0    0  0.77393994658E-01  0.99261144068E-01  0.52394641750E-01  0.89049862640E+00  0.88000000000E+00 0.  1.
        -11    1    4    4    0    0 -0.80060216648E-01 -0.63069262841E-01 -0.54632875220E-01  0.11563901755E+00  0.51100000000E-03 0.  1.
         11    1    4    4    0    0  0.49198325963E-03 -0.23247770987E-01  0.62205689805E-02  0.24076077397E-01  0.51100000000E-03 0. -1.
</event>
<event>
 8    1  0.2123879E+004  0.1043930E+01  0.7957747E-01            NaN
         13   -1    0    0    0    0  0.00000000000E+00  0.00000000000E+00  0.74505805969E-08  0.10566000000E+00  0.10566000000E+00 0. -1.
     999900   -1    0    0    0    0 -0.00000000000E+00 -0.00000000000E+00 -0.74505805969E-08  0.93827000000E+00  0.93827000000E+00 0.  1.
     999902    2    1    2    0    0  0.99595717852E-02 -0.39815523407E-02  0.64921712011E-02  0.10313922922E+01  0.10313160846E+01 0.  0.
     999903    2    3    3    0    0 -0.23092698347E-02 -0.11062582387E+00  0.77059481627E-01  0.14206486635E+00  0.44730939041E-01 0.  0.
         14    1    1    2    0    0 -0.99595717852E-02  0.39815523407E-02 -0.64921712011E-02  0.12537707769E-01  0.00000000000E+00 0.  1.
     999901    1    3    3    0    0  0.12268841620E-01  0.10664427153E+00 -0.70567310426E-01  0.88932742588E+00  0.88000000000E+00 0.  1.
        -11    1    4    4    0    0 -0.10515811172E-01 -0.10327325369E+00  0.55181695409E-01  0.11756371822E+00  0.51100000000E-03 0. -1.
         11    1    4    4    0    0  0.82065413373E-02 -0.73525701874E-02  0.21877786218E-01  0.24501148134E-01  0.51100000000E-03 0.  1.
</event>
<event>
 8    1  0.2123879E+004  0.1043930E+01  0.7957747E-01            NaN
         13   -1    0    0    0    0  0.00000000000E+00  0.00000000000E+00  0.74505805969E-08  0.10566000000E+00  0.10566000000E+00 0. -1.
     999900   -1    0    0    0    0 -0.00000000000E+00 -0.00000000000E+00 -0.74505805969E-08  0.93827000000E+00  0.93827000000E+00 0.  1.
     999902    2    1    2    0    0  0.61448323417E-02 -0.11353383605E-01  0.32814522068E-02  0.10306098569E+01  0.10305237750E+01 0.  0.
     999903    2    3    3    0    0  0.12428086550E+00 -0.51654193011E-01 -0.30679513889E-02  0.14177883105E+00  0.44473985931E-01 0.  0.
         14    1    1    2    0    0 -0.61448323417E-02  0.11353383605E-01 -0.32814522068E-02  0.13320143106E-01  0.00000000000E+00 0. -1.
     999901    1    3    3    0    0 -0.11813603316E+00  0.40300809406E-01  0.63494035957E-02  0.88883102584E+00  0.88000000000E+00 0.  1.
        -11    1    4    4    0    0  0.53545970995E-01 -0.45812963600E-01 -0.61107184257E-02  0.70736133936E-01  0.51100000000E-03 0. -1.
         11    1    4    4    0    0  0.70734894504E-01 -0.58412294108E-02  0.30427670368E-02  0.71042697118E-01  0.51100000000E-03 0.  1.
</event>
<event>
 8    1  0.2123879E+004  0.1043930E+01  0.7957747E-01            NaN
         13   -1    0    0    0    0  0.00000000000E+00  0.00000000000E+00  0.74505805969E-08  0.10566000000E+00  0.10566000000E+00 0.  1.
     999900   -1    0    0    0    0 -0.00000000000E+00 -0.00000000000E+00 -0.74505805969E-08  0.93827000000E+00  0.93827000000E+00 0. -1.
     999902    2    1    2    0    0  0.10993588992E-01  0.46068404609E-02  0.70874739943E-02  0.10300622581E+01  0.10299689031E+01 0.  0.
     999903    2    3    3    0    0  0.82031205877E-01  0.10666180684E+00 -0.70028283998E-02  0.14120901048E+00  0.42250269322E-01 0.  0.
         14    1    1    2    0    0 -0.10993588992E-01 -0.46068404609E-02 -0.70874739943E-02  0.13867741906E-01  0.00000000000E+00 0. -1.
     999901    1    3    3    0    0 -0.71037616886E-01 -0.10205496638E+00  0.14090302394E-01  0.88885324762E+00  0.88000000000E+00 0.  1.
        -11    1    4    4    0    0  0.82703399167E-01  0.90929395637E-01  0.22529114470E-02  0.12293634107E+00  0.51100000000E-03 0.  1.
         11    1    4    4    0    0 -0.67219328968E-03  0.15732411206E-01 -0.92557398468E-02  0.18272669408E-01  0.51100000000E-03 0. -1.
</event>
<event>
 8    1  0.2123879E+004  0.1043930E+01  0.7957747E-01            NaN
         13   -1    0    0    0    0  0.00000000000E+00  0.00000000000E+00  0.74505805969E-08  0.10566000000E+00  0.10566000000E+00 0. -1.
     999900   -1    0    0    0    0 -0.00000000000E+00 -0.00000000000E+00 -0.74505805969E-08  0.93827000000E+00  0.93827000000E+00 0. -1.
     999902    2    1    2    0    0 -0.44501529717E-02 -0.24390196647E-02 -0.12494239509E-01  0.10304445004E+01  0.10303562538E+01 0.  0.
     999903    2    3    3    0    0 -0.21260397593E-01  0.54137242618E-01 -0.12129737260E+00  0.14178169622E+00  0.44790079684E-01 0.  0.
         14    1    1    2    0    0  0.44501529717E-02  0.24390196647E-02  0.12494239509E-01  0.13485499595E-01  0.00000000000E+00 0. -1.
     999901    1    3    3    0    0  0.16810244621E-01 -0.56576262283E-01  0.10880313309E+00  0.88866280419E+00  0.88000000000E+00 0.  1.
        -11    1    4    4    0    0  0.54660853397E-02  0.42980210261E-01 -0.84400830055E-01  0.94873272306E-01  0.51100000000E-03 0.  1.
         11    1    4    4    0    0 -0.26726482933E-01  0.11157032357E-01 -0.36896542546E-01  0.46908423911E-01  0.51100000000E-03 0. -1.
</event>
<event>
 8    1  0.2123879E+004  0.1043930E+01  0.7957747E-01            NaN
         13   -1    0    0    0    0  0.00000000000E+00  0.00000000000E+00  0.74505805969E-08  0.10566000000E+00  0.10566000000E+00 0. -1.
     999900   -1    0    0    0    0 -0.00000000000E+00 -0.00000000000E+00 -0.74505805969E-08  0.93827000000E+00  0.93827000000E+00 0.  1.
     999902    2    1    2    0    0  0.68821028929E-02 -0.12750064202E-01  0.19406505819E-03  0.10294398261E+01  0.10293378408E+01 0.  0.
     999903    2    3    3    0    0  0.51803071401E-01 -0.54338374835E-01 -0.10942511285E+00  0.14052821908E+00  0.46239678298E-01 0.  0.
         14    1    1    2    0    0 -0.68821028929E-02  0.12750064202E-01 -0.19406505819E-03  0.14490173865E-01  0.00000000000E+00 0. -1.
     999901    1    3    3    0    0 -0.44920968508E-01  0.41588310633E-01  0.10961917791E+00  0.88891160706E+00  0.88000000000E+00 0. -1.
        -11    1    4    4    0    0  0.21876153286E-01 -0.52366903414E-01 -0.59077624628E-01  0.81922435928E-01  0.51100000000E-03 0.  1.
         11    1    4    4    0    0  0.29926918115E-01 -0.19714714209E-02 -0.50347488222E-01  0.58605783151E-01  0.51100000000E-03 0. -1.
</event>
<event>
 8    1  0.2123879E+004  0.1043930E+01  0.7957747E-01            NaN
         13   -1    0    0    0    0  0.00000000000E+00  0.00000000000E+00  0.74505805969E-08  0.10566000000E+00  0.10566000000E+00 0.  1.
     999900   -1    0    0    0    0 -0.00000000000E+00 -0.00000000000E+00 -0.74505805969E-08  0.93827000000E+00  0.93827000000E+00 0.  1.
     999902    2    1    2    0    0 -0.13222660133E-01  0.30576488997E-02 -0.11097323740E-02  0.10303131184E+01  0.10302231324E+01 0.  0.
     999903    2    3    3    0    0 -0.73727878940E-01  0.90257390028E-01  0.65791936540E-01  0.14141463735E+00  0.45687242815E-01 0.  0.
         14    1    1    2    0    0  0.13222660133E-01 -0.30576488997E-02  0.11097323740E-02  0.13616881572E-01  0.00000000000E+00 0. -1.
     999901    1    3    3    0    0  0.60505218807E-01 -0.87199741129E-01 -0.66901668914E-01  0.88889848108E+00  0.88000000000E+00 0.  1.
        -11    1    4    4    0    0 -0.12411757618E-01  0.42088746228E-01  0.86116856948E-02  0.44720650015E-01  0.51100000000E-03 0. -1.
         11    1    4    4    0    0 -0.61316121322E-01  0.48168643800E-01  0.57180250845E-01  0.96693987338E-01  0.51100000000E-03 0.  1.
</event>
<event>
 8    1  0.2123879E+004  0.1043930E+01  0.7957747E-01            NaN
         13   -1    0    0    0    0  0.00000000000E+00  0.00000000000E+00  0.74505805969E-08  0.10566000000E+00  0.10566000000E+00 0.  1.
     999900   -1    0    0    0    0 -0.00000000000E+00 -0.00000000000E+00 -0.74505805969E-08  0.93827000000E+00  0.93827000000E+00 0.  1.
     999902    2    1    2    0    0 -0.12278920359E-01  0.63498422552E-02  0.18676185757E-02  0.10299807928E+01  0.10298863302E+01 0.  0.
     999903    2    3    3    0    0  0.37430585170E-02  0.82042586837E-02  0.13230707542E+00  0.14021981673E+00  0.45553424134E-01 0.  0.
         14    1    1    2    0    0  0.12278920359E-01 -0.63498422552E-02 -0.18676185757E-02  0.13949207182E-01  0.00000000000E+00 0.  1.
     999901    1    3    3    0    0 -0.16021978876E-01 -0.18544164285E-02 -0.13043945684E+00  0.88976097609E+00  0.88000000000E+00 0.  1.
        -11    1    4    4    0    0  0.10737757439E-01 -0.12324123576E-01  0.99851262095E-01  0.10118161453E+00  0.51100000000E-03 0.  1.
         11    1    4    4    0    0 -0.69946989223E-02  0.20528382259E-01  0.32455813324E-01  0.39038202196E-01  0.51100000000E-03 0. -1.
</event>
<event>
 8    1  0.2123879E+004  0.1043930E+01  0.7957747E-01            NaN
         13   -1    0    0    0    0  0.00000000000E+00  0.00000000000E+00  0.74505805969E-08  0.10566000000E+00  0.10566000000E+00 0.  1.
     999900   -1    0    0    0    0 -0.00000000000E+00 -0.00000000000E+00 -0.74505805969E-08  0.93827000000E+00  0.93827000000E+00 0.  1.
     999902    2    1    2    0    0  0.64400822747E-02 -0.10830390656E-01 -0.54173050898E-02  0.10302143441E+01  0.10301230391E+01 0.  0.
     999903    2    3    3    0    0 -0.88352794200E-01  0.88905719359E-01 -0.39157035292E-01  0.13888312036E+00  0.45219514937E-01 0.  0.
         14    1    1    2    0    0 -0.64400822747E-02  0.10830390656E-01  0.54173050898E-02  0.13715655869E-01  0.00000000000E+00 0. -1.
     999901    1    3    3    0    0  0.94792876475E-01 -0.99736110015E-01  0.33739730202E-01  0.89133122377E+00  0.88000000000E+00 0. -1.
        -11    1    4    4    0    0 -0.26893534719E-01  0.18209654241E-01 -0.30917359663E-01  0.44844151980E-01  0.51100000000E-03 0. -1.
         11    1    4    4    0    0 -0.61459259480E-01  0.70696065117E-01 -0.82396756293E-02  0.94038968382E-01  0.51100000000E-03 0.  1.
</event>
<event>
 8    1  0.2123879E+004  0.1043930E+01  0.7957747E-01            NaN
         13   -1    0    0    0    0  0.00000000000E+00  0.00000000000E+00  0.74505805969E-08  0.10566000000E+00  0.10566000000E+00 0. -1.
     999900   -1    0    0    0    0 -0.00000000000E+00 -0.00000000000E+00 -0.74505805969E-08  0.93827000000E+00  0.93827000000E+00 0.  1.
     999902    2    1    2    0    0  0.89719293702E-02 -0.33097344616E-02 -0.98799079180E-02  0.10301800022E+01  0.10300882363E+01 0.  0.
     999903    2    3    3    0    0  0.57334123068E-01 -0.16313505091E-01 -0.12048148743E+00  0.14184408082E+00  0.45283797716E-01 0.  0.
         14    1    1    2    0    0 -0.89719293702E-02  0.33097344616E-02  0.98799079180E-02  0.13749997793E-01  0.00000000000E+00 0. -1.
     999901    1    3    3    0    0 -0.48362193697E-01  0.13003770629E-01  0.11060157951E+00  0.88833592138E+00  0.88000000000E+00 0. -1.
        -11    1    4    4    0    0  0.61923736611E-01 -0.21442293304E-01 -0.94761521868E-01  0.11521427102E+00  0.51100000000E-03 0. -1.
         11    1    4    4    0    0 -0.45896135430E-02  0.51287882126E-02 -0.25719965561E-01  0.26629809809E-01  0.51100000000E-03 0.  1.
</event>
<event>
 8    1  0.2123879E+004  0.1043930E+01  0.7957747E-01            NaN
         13   -1    0    0    0    0  0.00000000000E+00  0.00000000000E+00  0.74505805969E-08  0.10566000000E+00  0.10566000000E+00 0.  1.
     999900   -1    0    0    0    0 -0.00000000000E+00 -0.00000000000E+00 -0.74505805969E-08  0.93827000000E+00  0.93827000000E+00 0.  1.
     999902    2    1    2    0    0 -0.32093812291E-02  0.11018782705E-01  0.16348821338E-01  0.10239550742E+01  0.10237602241E+01 0.  0.
     999903    2    3    3    0    0 -0.92321044426E-01 -0.81149288793E-01 -0.28186951921E-01  0.13355107771E+00  0.43965938911E-01 0.  0.
         14    1    1    2    0    0  0.32093812291E-02 -0.11018782705E-01 -0.16348821338E-01  0.19974925765E-01  0.00000000000E+00 0.  1.
     999901    1    3    3    0    0  0.89111663197E-01  0.92168071498E-01  0.44535773260E-01  0.89040399652E+00  0.88000000000E+00 0. -1.
        -11    1    4    4    0    0 -0.46685832102E-01 -0.59970529527E-01 -0.33304339537E-01  0.82978741156E-01  0.51100000000E-03 0.  1.
         11    1    4    4    0    0 -0.45635212323E-01 -0.21178759265E-01  0.51173876157E-02  0.50572336557E-01  0.51100000000E-03 0. -1.
</event>
<event>
 8    1  0.2123879E+004  0.1043930E+01  0.7957747E-01            NaN
         13   -1    0    0    0    0  0.00000000000E+00  0.00000000000E+00  0.74505805969E-08  0.10566000000E+00  0.10566000000E+00 0. -1.
     999900   -1    0    0    0    0 -0.00000000000E+00 -0.00000000000E+00 -0.74505805969E-08  0.93827000000E+00  0.93827000000E+00 0. -1.
     999902    2    1    2    0    0  0.93649730949E-02 -0.22121210372E-02 -0.96289700887E-02  0.10303170185E+01  0.10302270844E+01 0.  0.
     999903    2    3    3    0    0  0.32505053580E-01 -0.12875603038E+00  0.15270171494E-01  0.14061550025E+00  0.43644551847E-01 0.  0.
         14    1    1    2    0    0 -0.93649730949E-02  0.22121210372E-02  0.96289700887E-02  0.13612981507E-01  0.00000000000E+00 0. -1.
     999901    1    3    3    0    0 -0.23140080485E-01  0.12654390934E+00 -0.24899141583E-01  0.88970151824E+00  0.88000000000E+00 0. -1.
        -11    1    4    4    0    0  0.14575677330E-01 -0.93826341146E-01 -0.74590540487E-02  0.95245636492E-01  0.51100000000E-03 0. -1.
         11    1    4    4    0    0  0.17929376249E-01 -0.34929689230E-01  0.22729225543E-01  0.45369863755E-01  0.51100000000E-03 0.  1.
</event>
<event>
 8    1  0.2123879E+004  0.1043930E+01  0.7957747E-01            NaN
         13   -1    0    0    0    0  0.00000000000E+00  0.00000000000E+00  0.74505805969E-08  0.10566000000E+00  0.10566000000E+00 0. -1.
     999900   -1    0    0    0    0 -0.00000000000E+00 -0.00000000000E+00 -0.74505805969E-08  0.93827000000E+00  0.93827000000E+00 0.  1.
     999902    2    1    2    0    0  0.71379127263E-02  0.13287709789E-01  0.41819513733E-02  0.10282774684E+01  0.10281583293E+01 0.  0.
     999903    2    3    3    0    0  0.46107281987E-01  0.31349726357E-01  0.12080037831E+00  0.13954539080E+00  0.42089166044E-01 0.  0.
         14    1    1    2    0    0 -0.71379127263E-02 -0.13287709789E-01 -0.41819513733E-02  0.15652531642E-01  0.00000000000E+00 0.  1.
     999901    1    3    3    0    0 -0.38969369261E-01 -0.18062016568E-01 -0.11661842694E+00  0.88873207756E+00  0.88000000000E+00 0.  1.
        -11    1    4    4    0    0  0.27182491401E-01  0.27418369360E-02  0.22388393709E-01  0.35325724372E-01  0.51100000000E-03 0. -1.
         11    1    4    4    0    0  0.18924790586E-01  0.28607889421E-01  0.98411984601E-01  0.10421966643E+00  0.51100000000E-03 0.  1.
</event>
<event>
 8    1  0.2123879E+004  0.1043930E+01  0.7957747E-01            NaN
         13   -1    0    0    0    0  0.00000000000E+00  0.00000000000E+00  0.74505805969E-08  0.10566000000E+00  0.10566000000E+00 0. -1.
     999900   -1    0    0    0    0 -0.00000000000E+00 -0.00000000000E+00 -0.74505805969E-08  0.93827000000E+00  0.93827000000E+00 0. -1.
     999902    2    1    2    0    0 -0.12361149113E-01 -0.65856019121E-02 -0.27557826541E-02  0.10296554598E+01  0.10295565081E+01 0.  0.
     999903    2    3    3    0    0  0.11989494335E+00 -0.38628911498E-01 -0.35883662548E-01  0.13857975925E+00  0.45273857715E-01 0.  0.
         14    1    1    2    0    0  0.12361149113E-01  0.65856019121E-02  0.27557826541E-02  0.14274540202E-01  0.00000000000E+00 0. -1.
     999901    1    3    3    0    0 -0.13225609246E+00  0.32043309586E-01  0.33127879894E-01  0.89107570055E+00  0.88000000000E+00 0.  1.
        -11    1    4    4    0    0  0.52733483868E-01  0.61409391199E-02 -0.12504960793E-01  0.54545087951E-01  0.51100000000E-03 0. -1.
         11    1    4    4    0    0  0.67161459478E-01 -0.44769850618E-01 -0.23378701755E-01  0.84034671299E-01  0.51100000000E-03 0.  1.
</event>
<event>
 8    1  0.2123879E+004  0.1043930E+01  0.7957747E-01            NaN
         13   -1    0    0    0    0  0.00000000000E+00  0.00000000000E+00  0.74505805969E-08  0.10566000000E+00  0.10566000000E+00 0. -1.
     999900   -1    0    0    0    0 -0.00000000000E+00 -0.00000000000E+00 -0.74505805969E-08  0.93827000000E+00  0.93827000000E+00 0.  1.
     999902    2    1    2    0    0  0.10844985824E-02  0.11139760616E-01 -0.87835317527E-02  0.10297025324E+01  0.10296042368E+01 0.  0.
     999903    2    3    3    0    0 -0.50444184043E-01 -0.77787188153E-01 -0.94135371445E-01  0.13961930940E+00  0.45128938134E-01 0.  0.
         14    1    1    2    0    0 -0.10844985824E-02 -0.11139760616E-01  0.87835317527E-02  0.14227467582E-01  0.00000000000E+00 0. -1.
     999901    1    3    3    0    0  0.51528682625E-01  0.88926948769E-01  0.85351839692E-01  0.89008322301E+00  0.88000000000E+00 0. -1.
        -11    1    4    4    0    0 -0.19557324936E-01 -0.58028933704E-01 -0.78984219105E-01  0.99943054257E-01  0.51100000000E-03 0.  1.
         11    1    4    4    0    0 -0.30886859107E-01 -0.19758254449E-01 -0.15151152339E-01  0.39676255148E-01  0.51100000000E-03 0. -1.
</event>
<event>
 8    1  0.2123879E+004  0.1043930E+01  0.7957747E-01            NaN
         13   -1    0    0    0    0  0.00000000000E+00  0.00000000000E+00  0.74505805969E-08  0.10566000000E+00  0.10566000000E+00 0.  1.
     999900   -1    0    0    0    0 -0.00000000000E+00 -0.00000000000E+00 -0.74505805969E-08  0.93827000000E+00  0.93827000000E+00 0.  1.
     999902    2    1    2    0    0 -0.31651978935E-02 -0.95463478341E-02  0.22457932336E-01  0.10193228880E+01  0.10190258290E+01 0.  0.
     999903    2    3    3    0    0 -0.52645314914E-01 -0.11165355222E+00 -0.16161144952E-02  0.13171164267E+00  0.45905338273E-01 0.  0.
         14    1    1    2    0    0  0.31651978935E-02  0.95463478341E-02 -0.22457932336E-01  0.24607111970E-01  0.00000000000E+00 0. -1.
     999901    1    3    3    0    0  0.49480117020E-01  0.10210720439E+00  0.24074046831E-01  0.88761124537E+00  0.88000000000E+00 0.  1.
        -11    1    4    4    0    0 -0.17295900750E-01 -0.11023090398E-01  0.12648796123E-01  0.24102071883E-01  0.51100000000E-03 0. -1.
         11    1    4    4    0    0 -0.35349414164E-01 -0.10063046182E+00 -0.14264910618E-01  0.10760957078E+00  0.51100000000E-03 0.  1.
</event>
<event>
 8    1  0.2123879E+004  0.1043930E+01  0.7957747E-01            NaN
         13   -1    0    0    0    0  0.00000000000E+00  0.00000000000E+00  0.74505805969E-08  0.10566000000E+00  0.10566000000E+00 0.  1.
     999900   -1    0    0    0    0 -0.00000000000E+00 -0.00000000000E+00 -0.74505805969E-08  0.93827000000E+00  0.93827000000E+00 0.  1.
     999902    2    1    2    0    0  0.53633372045E-02  0.89453999866E-02  0.97814417963E-02  0.10296309731E+01  0.10295316793E+01 0.  0.
     999903    2    3    3    0    0  0.87276632117E-01 -0.97491706493E-01 -0.13648075381E-01  0.13913246788E+00  0.45273947330E-01 0.  0.
         14    1    1    2    0    0 -0.53633372045E-02 -0.89453999866E-02 -0.97814417963E-02  0.14299026908E-01  0.00000000000E+00 0. -1.
     999901    1    3    3    0    0 -0.81913294912E-01  0.10643710648E+00  0.23429517177E-01  0.89049850522E+00  0.88000000000E+00 0.  1.
        -11    1    4    4    0    0  0.14373884029E-01 -0.48200422488E-01 -0.81532615325E-02  0.50957100238E-01  0.51100000000E-03 0.  1.
         11    1    4    4    0    0  0.72902748088E-01 -0.49291284006E-01 -0.54948138481E-02  0.88175367637E-01  0.51100000000E-03 0. -1.
</event>
<event>
 8    1  0.2123879E+004  0.1043930E+01  0.7957747E-01            NaN
         13   -1    0    0    0    0  0.00000000000E+00  0.00000000000E+00  0.74505805969E-08  0.10566000000E+00  0.10566000000E+00 0.  1.
     999900   -1    0    0    0    0 -0.00000000000E+00 -0.00000000000E+00 -0.74505805969E-08  0.93827000000E+00  0.93827000000E+00 0. -1.
     999902    2    1    2    0    0  0.10510731993E-01  0.90246642660E-02 -0.46729509993E-02  0.10293095854E+01  0.10292057453E+01 0.  0.
     999903    2    3    3    0    0  0.61902720813E-01  0.26115555042E-01 -0.11509704494E+00  0.14075642684E+00  0.45288772146E-01 0.  0.
         14    1    1    2    0    0 -0.10510731993E-01 -0.90246642660E-02  0.46729509993E-02  0.14620414604E-01  0.00000000000E+00 0. -1.
     999901    1    3    3    0    0 -0.51391988820E-01 -0.17090890776E-01  0.11042409394E+00  0.88855315856E+00  0.88000000000E+00 0.  1.
        -11    1    4    4    0    0  0.51727719788E-01  0.29564951595E-01 -0.59776138993E-01  0.84399592838E-01  0.51100000000E-03 0. -1.
         11    1    4    4    0    0  0.10175001025E-01 -0.34493965534E-02 -0.55320905949E-01  0.56356834000E-01  0.51100000000E-03 0.  1.
</event>
<event>
 8    1  0.2123879E+004  0.1043930E+01  0.7957747E-01            NaN
         13   -1    0    0    0    0  0.00000000000E+00  0.00000000000E+00  0.74505805969E-08  0.10566000000E+00  0.10566000000E+00 0. -1.
     999900   -1    0    0    0    0 -0.00000000000E+00 -0.00000000000E+00 -0.74505805969E-08  0.93827000000E+00  0.93827000000E+00 0.  1.
     999902    2    1    2    0    0  0.89688704277E-02 -0.98175673821E-02  0.23474911588E-01  0.10169504385E+01  0.10165924934E+01 0.  0.
     999903    2    3    3    0    0 -0.11141295825E+00  0.29108481505E-01 -0.24491004546E-01  0.12660907076E+00  0.46582148227E-01 0.  0.
         14    1    1    2    0    0 -0.89688704277E-02  0.98175673821E-02 -0.23474911588E-01  0.26979561526E-01  0.00000000000E+00 0.  1.
     999901    1    3    3    0    0  0.12038182868E+00 -0.38926048887E-01  0.47965916134E-01  0.89034136772E+00  0.88000000000E+00 0. -1.
        -11    1    4    4    0    0 -0.94644675627E-01  0.72416953532E-02 -0.27650297987E-01  0.98867875854E-01  0.51100000000E-03 0. -1.
         11    1    4    4    0    0 -0.16768282621E-01  0.21866786151E-01  0.31592934409E-02  0.27741194904E-01  0.51100000000E-03 0.  1.
</event>
<event>
 8    1  0.2123879E+004  0.1043930E+01  0.7957747E-01            NaN
         13   -1    0    0    0    0  0.00000000000E+00  0.00000000000E+00  0.74505805969E-08  0.10566000000E+00  0.10566000000E+00 0. -1.
     999900   -1    0    0    0    0 -0.00000000000E+00 -0.00000000000E+00 -0.74505805969E-08  0.93827000000E+00  0.93827000000E+00 0. -1.
     999902    2    1    2    0    0 -0.21643698290E-02  0.12262535723E-01  0.18246382701E-02  0.10313449460E+01  0.10312681582E+01 0.  0.
     999903    2    3    3    0    0 -0.43187843138E-02 -0.99791667673E-01  0.86970721698E-01  0.14015998119E+00  0.45868126836E-01 0.  0.
         14    1    1    2    0    0  0.21643698290E-02 -0.12262535723E-01 -0.18246382701E-02  0.12585053990E-01  0.00000000000E+00 0.  1.
     999901    1    3    3    0    0  0.21544144847E-02  0.11205420340E+00 -0.85146083427E-01  0.89118496482E+00  0.88000000000E+00 0. -1.
        -11    1    4    4    0    0  0.20269085248E-01 -0.34228569968E-01  0.28570649139E-01  0.48979321474E-01  0.51100000000E-03 0.  1.
         11    1    4    4    0    0 -0.24587869561E-01 -0.65563097705E-01  0.58400072558E-01  0.91180659715E-01  0.51100000000E-03 0. -1.
</event>
<event>
 8    1  0.2123879E+004  0.1043930E+01  0.7957747E-01            NaN
         13   -1    0    0    0    0  0.00000000000E+00  0.00000000000E+00  0.74505805969E-08  0.10566000000E+00  0.10566000000E+00 0.  1.
     999900   -1    0    0    0    0 -0.00000000000E+00 -0.00000000000E+00 -0.74505805969E-08  0.93827000000E+00  0.93827000000E+00 0. -1.
     999902    2    1    2    0    0  0.20159822768E-02  0.25302272589E-02 -0.11021733793E-01  0.10324432750E+01  0.10323793737E+01 0.  0.
     999903    2    3    3    0    0 -0.48242162363E-01  0.16892682227E-01 -0.12624397374E+00  0.14339416178E+00  0.44851708810E-01 0.  0.
         14    1    1    2    0    0 -0.20159822768E-02 -0.25302272589E-02  0.11021733793E-01  0.11486724961E-01  0.00000000000E+00 0.  1.
     999901    1    3    3    0    0  0.50258144640E-01 -0.14362454968E-01  0.11522223995E+00  0.88904911326E+00  0.88000000000E+00 0. -1.
        -11    1    4    4    0    0 -0.15417669505E-01 -0.14988386431E-01 -0.50657344197E-01  0.55034388366E-01  0.51100000000E-03 0.  1.
         11    1    4    4    0    0 -0.32824492858E-01  0.31881068657E-01 -0.75586629544E-01  0.88359773409E-01  0.51100000000E-03 0. -1.
</event>
<event>
 8    1  0.2123879E+004  0.1043930E+01  0.7957747E-01            NaN
         13   -1    0    0    0    0  0.00000000000E+00  0.00000000000E+00  0.74505805969E-08  0.10566000000E+00  0.10566000000E+00 0.  1.
     999900   -1    0    0    0    0 -0.00000000000E+00 -0.00000000000E+00 -0.74505805969E-08  0.93827000000E+00  0.93827000000E+00 0.  1.
     999902    2    1    2    0    0  0.13372038771E-01  0.53556531967E-02  0.17851242877E-02  0.10294151417E+01  0.10293128061E+01 0.  0.
     999903    2    3    3    0    0  0.66010616691E-01 -0.11467660130E-01 -0.11478893600E+00  0.14000896045E+00  0.44012503149E-01 0.  0.
         14    1    1    2    0    0 -0.13372038771E-01 -0.53556531967E-02 -0.17851242877E-02  0.14514858277E-01  0.00000000000E+00 0.  1.
     999901    1    3    3    0    0 -0.52638577920E-01  0.16823313327E-01  0.11657406029E+00  0.88940618127E+00  0.88000000000E+00 0. -1.
        -11    1    4    4    0    0  0.59161413813E-01 -0.19529947722E-01 -0.68807933222E-01  0.92823943774E-01  0.51100000000E-03 0. -1.
         11    1    4    4    0    0  0.68492028779E-02  0.80622875920E-02 -0.45981002777E-01  0.47185016676E-01  0.51100000000E-03 0.  1.
</event>
<event>
 8    1  0.2123879E+004  0.1043930E+01  0.7957747E-01            NaN
         13   -1    0    0    0    0  0.00000000000E+00  0.00000000000E+00  0.74505805969E-08  0.10566000000E+00  0.10566000000E+00 0.  1.
     999900   -1    0    0    0    0 -0.00000000000E+00 -0.00000000000E+00 -0.74505805969E-08  0.93827000000E+00  0.93827000000E+00 0.  1.
     999902    2    1    2    0    0  0.11149403555E-03  0.12512765332E-01 -0.76299004198E-02  0.10292740419E+01  0.10291696926E+01 0.  0.
     999903    2    3    3    0    0 -0.10272726124E+00  0.78336874631E-01  0.28386499438E-01  0.14011387410E+00  0.46222810783E-01 0.  0.
         14    1    1    2    0    0 -0.11149403555E-03 -0.12512765332E-01  0.76299004198E-02  0.14655958092E-01  0.00000000000E+00 0.  1.
     999901    1    3    3    0    0  0.10283875528E+00 -0.65824109300E-01 -0.36016399858E-01  0.88916016780E+00  0.88000000000E+00 0. -1.
        -11    1    4    4    0    0 -0.41716033045E-01  0.78434163332E-02 -0.68549018771E-03  0.42455595751E-01  0.51100000000E-03 0. -1.
         11    1    4    4    0    0 -0.61011228197E-01  0.70493458298E-01  0.29071989626E-01  0.97658278353E-01  0.51100000000E-03 0.  1.
</event>
<event>
 8    1  0.2123879E+004  0.1043930E+01  0.7957747E-01            NaN
         13   -1    0    0    0    0  0.00000000000E+00  0.00000000000E+00  0.74505805969E-08  0.10566000000E+00  0.10566000000E+00 0. -1.
     999900   -1    0    0    0    0 -0.00000000000E+00 -0.00000000000E+00 -0.74505805969E-08  0.93827000000E+00  0.93827000000E+00 0. -1.
     999902    2    1    2    0    0 -0.27853491593E-02 -0.12951492163E-01  0.20886998385E-02  0.10305187366E+01  0.10304314652E+01 0.  0.
     999903    2    3    3    0    0 -0.10769084061E+00 -0.49963944084E-02  0.78979087803E-01  0.14092299836E+00  0.44713689735E-01 0.  0.
         14    1    1    2    0    0  0.27853491593E-02  0.12951492163E-01 -0.20886998385E-02  0.13411263408E-01  0.00000000000E+00 0. -1.
     999901    1    3    3    0    0  0.10490549145E+00 -0.79550977545E-02 -0.76890387965E-01  0.88959573823E+00  0.88000000000E+00 0. -1.
        -11    1    4    4    0    0 -0.67080728692E-01  0.12719428372E-01  0.29141988689E-01  0.74236949329E-01  0.51100000000E-03 0.  1.
         11    1    4    4    0    0 -0.40610111913E-01 -0.17715822781E-01  0.49837099115E-01  0.66686049032E-01  0.51100000000E-03 0. -1.
</event>
<event>
 8    1  0.2123879E+004  0.1043930E+01  0.7957747E-01            NaN
         13   -1    0    0    0    0  0.00000000000E+00  0.00000000000E+00  0.74505805969E-08  0.10566000000E+00  0.10566000000E+00 0. -1.
     999900   -1    0    0    0    0 -0.00000000000E+00 -0.00000000000E+00 -0.74505805969E-08  0.93827000000E+00  0.93827000000E+00 0.  1.
     999902    2    1    2    0    0  0.41688581471E-02 -0.42889794729E-02  0.31659763729E-02  0.10371625685E+01  0.10371404897E+01 0.  0.
     999903    2    3    3    0    0 -0.65542803377E-01  0.72606088932E-01 -0.97943808742E-01  0.14531294216E+00  0.44219433099E-01 0.  0.
         14    1    1    2    0    0 -0.41688581471E-02  0.42889794729E-02 -0.31659763729E-02  0.67674315337E-02  0.00000000000E+00 0.  1.
     999901    1    3    3    0    0  0.69711661524E-01 -0.76895068405E-01  0.10110978512E+00  0.89184962631E+00  0.88000000000E+00 0. -1.
        -11    1    4    4    0    0 -0.45321635835E-01  0.27858585041E-01 -0.28775160666E-01  0.60484894209E-01  0.51100000000E-03 0.  1.
         11    1    4    4    0    0 -0.20221167543E-01  0.44747503891E-01 -0.69168648077E-01  0.84828047950E-01  0.51100000000E-03 0. -1.
</event>
<event>
 8    1  0.2123879E+004  0.1043930E+01  0.7957747E-01            NaN
         13   -1    0    0    0    0  0.00000000000E+00  0.00000000000E+00  0.74505805969E-08  0.10566000000E+00  0.10566000000E+00 0. -1.
     999900   -1    0    0    0    0 -0.00000000000E+00 -0.00000000000E+00 -0.74505805969E-08  0.93827000000E+00  0.93827000000E+00 0.  1.
     999902    2    1    2    0    0 -0.40023026219E-02 -0.96810896035E-02 -0.58635263061E-02  0.10319248818E+01  0.10318550474E+01 0.  0.
     999903    2    3    3    0    0  0.87756454874E-01  0.64846079059E-01  0.75974154525E-01  0.14025713289E+00  0.44651784170E-01 0.  0.
         14    1    1    2    0    0  0.40023026219E-02  0.96810896035E-02  0.58635263061E-02  0.12005118197E-01  0.00000000000E+00 0. -1.
     999901    1    3    3    0    0 -0.91758757496E-01 -0.74527168663E-01 -0.81837680831E-01  0.89166774891E+00  0.88000000000E+00 0.  1.
        -11    1    4    4    0    0  0.10943242122E-01  0.23686483901E-01  0.24035350019E-02  0.26207673862E-01  0.51100000000E-03 0.  1.
         11    1    4    4    0    0  0.76813212752E-01  0.41159595158E-01  0.73570619523E-01  0.11404945903E+00  0.51100000000E-03 0. -1.
</event>
<event>
 8    1  0.2123879E+004  0.1043930E+01  0.7957747E-01            NaN
         13   -1    0    0    0    0  0.00000000000E+00  0.00000000000E+00  0.74505805969E-08  0.10566000000E+00  0.10566000000E+00 0.  1.
     999900   -1    0    0    0    0 -0.00000000000E+00 -0.00000000000E+00 -0.74505805969E-08  0.93827000000E+00  0.93827000000E+00 0. -1.
     999902    2    1    2    0    0 -0.28548842311E-02 -0.42535524641E-02 -0.90156985653E-02  0.10335605307E+01  0.10335085122E+01 0.  0.
     999903    2    3    3    0    0 -0.21140740561E-01 -0.98862157217E-01 -0.92241462344E-01  0.14439705397E+00  0.46058275889E-01 0.  0.
         14    1    1    2    0    0  0.28548842311E-02  0.42535524641E-02  0.90156985653E-02  0.10369469280E-01  0.00000000000E+00 0.  1.
     999901    1    3    3    0    0  0.18285856330E-01  0.94608604753E-01  0.83225763778E-01  0.88916347675E+00  0.88000000000E+00 0.  1.
        -11    1    4    4    0    0 -0.26896492053E-01 -0.42868933986E-01 -0.63475325065E-01  0.81182170450E-01  0.51100000000E-03 0.  1.
         11    1    4    4    0    0  0.57557514921E-02 -0.55993223232E-01 -0.28766137278E-01  0.63214883516E-01  0.51100000000E-03 0. -1.
</event>
<event>
 8    1  0.2123879E+004  0.1043930E+01  0.7957747E-01            NaN
         13   -1    0    0    0    0  0.00000000000E+00  0.00000000000E+00  0.74505805969E-08  0.10566000000E+00  0.10566000000E+00 0. -1.
     999900   -1    0    0    0    0 -0.00000000000E+00 -0.00000000000E+00 -0.74505805969E-08  0.93827000000E+00  0.93827000000E+00 0. -1.
     999902    2    1    2    0    0  0.53822064850E-02  0.64649320260E-02  0.10643915903E-01  0.10303632598E+01  0.10302739397E+01 0.  0.
     999903    2    3    3    0    0  0.15342529883E-01 -0.13109858001E+00 -0.13577051837E-02  0.13953950242E+00  0.45245977362E-01 0.  0.
         14    1    1    2    0    0 -0.53822064850E-02 -0.64649320260E-02 -0.10643915903E-01  0.13566740158E-01  0.00000000000E+00 0.  1.
     999901    1    3    3    0    0 -0.99603233984E-02  0.13756351204E+00  0.12001621087E-01  0.89082375743E+00  0.88000000000E+00 0.  1.
        -11    1    4    4    0    0 -0.15897954896E-01 -0.52593556459E-01  0.19469705756E-02  0.54980714494E-01  0.51100000000E-03 0.  1.
         11    1    4    4    0    0  0.31240484779E-01 -0.78505023551E-01 -0.33046757594E-02  0.84558787922E-01  0.51100000000E-03 0. -1.
</event>
<event>
 8    1  0.2123879E+004  0.1043930E+01  0.7957747E-01            NaN
         13   -1    0    0    0    0  0.00000000000E+00  0.00000000000E+00  0.74505805969E-08  0.10566000000E+00  0.10566000000E+00 0. -1.
     999900   -1    0    0    0    0 -0.00000000000E+00 -0.00000000000E+00 -0.74505805969E-08  0.93827000000E+00  0.93827000000E+00 0.  1.
     999902    2    1    2    0    0 -0.82800737502E-02 -0.10846497836E-01  0.37354719168E-02  0.10297822126E+01  0.10296850225E+01 0.  0.
     999903    2    3    3    0    0 -0.19560519939E-03  0.53724101578E-01  0.11565818695E+00  0.14030966384E+00  0.58512120163E-01 0.  0.
         14    1    1    2    0    0  0.82800737502E-02  0.10846497836E-01 -0.37354719168E-02  0.14147787356E-01  0.00000000000E+00 0.  1.
     999901    1    3    3    0    0 -0.80844685508E-02 -0.64570599414E-01 -0.11192271503E+00  0.88947254881E+00  0.88000000000E+00 0.  1.
        -11    1    4    4    0    0 -0.12078625347E-01 -0.73895866479E-02  0.39358789639E-01  0.41831502770E-01  0.51100000000E-03 0. -1.
         11    1    4    4    0    0  0.11883020148E-01  0.61113688226E-01  0.76299397310E-01  0.98478161068E-01  0.51100000000E-03 0.  1.
</event>
<event>
 8    1  0.2123879E+004  0.1043930E+01  0.7957747E-01            NaN
         13   -1    0    0    0    0  0.00000000000E+00  0.00000000000E+00  0.74505805969E-08  0.10566000000E+00  0.10566000000E+00 0.  1.
     999900   -1    0    0    0    0 -0.00000000000E+00 -0.00000000000E+00 -0.74505805969E-08  0.93827000000E+00  0.93827000000E+00 0.  1.
     999902    2    1    2    0    0  0.35378218843E-02  0.13954367351E-01 -0.55608338582E-02  0.10284974557E+01  0.10283816669E+01 0.  0.
     999903    2    3    3    0    0 -0.75638728338E-01  0.10204846895E+00 -0.38103995579E-01  0.13996577123E+00  0.44759305155E-01 0.  0.
         14    1    1    2    0    0 -0.35378218843E-02 -0.13954367351E-01  0.55608338582E-02  0.15432544348E-01  0.00000000000E+00 0.  1.
     999901    1    3    3    0    0  0.79176550223E-01 -0.88094101599E-01  0.32543161720E-01  0.88853168442E+00  0.88000000000E+00 0. -1.
        -11    1    4    4    0    0 -0.27552520636E-01  0.74019504510E-01 -0.20773804762E-01  0.81669091623E-01  0.51100000000E-03 0.  1.
         11    1    4    4    0    0 -0.48086207702E-01  0.28028964441E-01 -0.17330190816E-01  0.58296679610E-01  0.51100000000E-03 0. -1.
</event>
<event>
 8    1  0.2123879E+004  0.1043930E+01  0.7957747E-01            NaN
         13   -1    0    0    0    0  0.00000000000E+00  0.00000000000E+00  0.74505805969E-08  0.10566000000E+00  0.10566000000E+00 0.  1.
     999900   -1    0    0    0    0 -0.00000000000E+00 -0.00000000000E+00 -0.74505805969E-08  0.93827000000E+00  0.93827000000E+00 0.  1.
     999902    2    1    2    0    0 -0.25355366916E-02 -0.14066225421E-01  0.24019470262E-02  0.10294366569E+01  0.10293346267E+01 0.  0.
     999903    2    3    3    0    0 -0.38571324263E-01 -0.30725795589E-01  0.12425943239E+00  0.14015303175E+00  0.42079023282E-01 0.  0.
         14    1    1    2    0    0  0.25355366916E-02  0.14066225421E-01 -0.24019470262E-02  0.14493343073E-01  0.00000000000E+00 0. -1.
     999901    1    3    3    0    0  0.36035787571E-01  0.16659570168E-01 -0.12185748537E+00  0.88928362517E+00  0.88000000000E+00 0.  1.
        -11    1    4    4    0    0  0.14672835571E-02 -0.17444596626E-01  0.15097299055E-01  0.23122638955E-01  0.51100000000E-03 0.  1.
         11    1    4    4    0    0 -0.40038607820E-01 -0.13281198963E-01  0.10916213334E+00  0.11703039280E+00  0.51100000000E-03 0. -1.
</event>
<event>
 8    1  0.2123879E+004  0.1043930E+01  0.7957747E-01            NaN
         13   -1    0    0    0    0  0.00000000000E+00  0.00000000000E+00  0.74505805969E-08  0.10566000000E+00  0.10566000000E+00 0.  1.
     999900   -1    0    0    0    0 -0.00000000000E+00 -0.00000000000E+00 -0.74505805969E-08  0.93827000000E+00  0.93827000000E+00 0.  1.
     999902    2    1    2    0    0  0.73041423323E-03  0.13237002800E-01 -0.69316630920E-02  0.10289700635E+01  0.10288613083E+01 0.  0.
     999903    2    3    3    0    0  0.54254782479E-01 -0.57849484892E-01 -0.10510573820E+00  0.13905079984E+00  0.44696357905E-01 0.  0.
         14    1    1    2    0    0 -0.73041423323E-03 -0.13237002800E-01  0.69316630920E-02  0.14959936540E-01  0.00000000000E+00 0.  1.
     999901    1    3    3    0    0 -0.53524368246E-01  0.71086487691E-01  0.98174075112E-01  0.88991926361E+00  0.88000000000E+00 0. -1.
        -11    1    4    4    0    0  0.18999237447E-01 -0.50809037361E-01 -0.72219682366E-01  0.90324265528E-01  0.51100000000E-03 0.  1.
         11    1    4    4    0    0  0.35255545032E-01 -0.70404475302E-02 -0.32886055838E-01  0.48726534317E-01  0.51100000000E-03 0. -1.
</event>
<event>
 8    1  0.2123879E+004  0.1043930E+01  0.7957747E-01            NaN
         13   -1    0    0    0    0  0.00000000000E+00  0.00000000000E+00  0.74505805969E-08  0.10566000000E+00  0.10566000000E+00 0.  1.
     999900   -1    0    0    0    0 -0.00000000000E+00 -0.00000000000E+00 -0.74505805969E-08  0.93827000000E+00  0.93827000000E+00 0. -1.
     999902    2    1    2    0    0  0.82391196175E-02 -0.30558917910E-02 -0.97168848465E-02  0.10308288772E+01  0.10307456208E+01 0.  0.
     999903    2    3    3    0    0  0.83481044958E-01 -0.10094669160E+00  0.36298846621E-01  0.14101912028E+00  0.37542863613E-01 0.  0.
         14    1    1    2    0    0 -0.82391196175E-02  0.30558917910E-02  0.97168848465E-02  0.13101122770E-01  0.00000000000E+00 0.  1.
     999901    1    3    3    0    0 -0.75241925340E-01  0.97890799804E-01 -0.46015731467E-01  0.88980975695E+00  0.88000000000E+00 0. -1.
        -11    1    4    4    0    0  0.28495329285E-01 -0.41797555239E-01 -0.40285352933E-02  0.50749479136E-01  0.51100000000E-03 0. -1.
         11    1    4    4    0    0  0.54985715673E-01 -0.59149136356E-01  0.40327381914E-01  0.90269641147E-01  0.51100000000E-03 0.  1.
</event>
<event>
 8    1  0.2123879E+004  0.1043930E+01  0.7957747E-01            NaN
         13   -1    0    0    0    0  0.00000000000E+00  0.00000000000E+00  0.74505805969E-08  0.10566000000E+00  0.10566000000E+00 0.  1.
     999900   -1    0    0    0    0 -0.00000000000E+00 -0.00000000000E+00 -0.74505805969E-08  0.93827000000E+00  0.93827000000E+00 0. -1.
     999902    2    1    2    0    0  0.16273340319E-02 -0.23998209405E-02 -0.88303732291E-02  0.10346357626E+01  0.10345940163E+01 0.  0.
     999903    2    3    3    0    0 -0.61613034803E-01 -0.42509511556E-01 -0.11519185995E+00  0.14507356843E+00  0.46625647747E-01 0.  0.
         14    1    1    2    0    0 -0.16273340319E-02  0.23998209405E-02  0.88303732291E-02  0.92942373524E-02  0.00000000000E+00 0.  1.
     999901    1    3    3    0    0  0.63240368835E-01  0.40109690616E-01  0.10636148672E+00  0.88956219422E+00  0.88000000000E+00 0.  1.
        -11    1    4    4    0    0 -0.10387378453E-01 -0.29423289479E-01 -0.65314918932E-01  0.72387342478E-01  0.51100000000E-03 0.  1.
         11    1    4    4    0    0 -0.51225656351E-01 -0.13086222078E-01 -0.49876941013E-01  0.72686225948E-01  0.51100000000E-03 0. -1.
</event>
<event>
 8    1  0.2123879E+004  0.1043930E+01  0.7957747E-01            NaN
         13   -1    0    0    0    0  0.00000000000E+00  0.00000000000E+00  0.74505805969E-08  0.10566000000E+00  0.10566000000E+00 0. -1.
     999900   -1    0    0    0    0 -0.00000000000E+00 -0.00000000000E+00 -0.74505805969E-08  0.93827000000E+00  0.93827000000E+00 0. -1.
     999902    2    1    2    0    0 -0.91564119629E-02 -0.59044037832E-02 -0.57617262892E-02  0.10316052544E+01  0.10315316290E+01 0.  0.
     999903    2    3    3    0    0 -0.74150128608E-01  0.10888043826E+00 -0.27035407359E-01  0.14151968960E+00  0.44087616024E-01 0.  0.
         14    1    1    2    0    0  0.91564119629E-02  0.59044037832E-02  0.57617262892E-02  0.12324745592E-01  0.00000000000E+00 0. -1.
     999901    1    3    3    0    0  0.64993716645E-01 -0.11478484204E+00  0.21273681070E-01  0.89008556480E+00  0.88000000000E+00 0.  1.
        -11    1    4    4    0    0 -0.46639752112E-01  0.78094794079E-01  0.20964888815E-02  0.90987470159E-01  0.51100000000E-03 0. -1.
         11    1    4    4    0    0 -0.27510376496E-01  0.30785644181E-01 -0.29131896241E-01  0.50532219446E-01  0.51100000000E-03 0.  1.
</event>
<event>
 8    1  0.2123879E+004  0.1043930E+01  0.7957747E-01            NaN
         13   -1    0    0    0    0  0.00000000000E+00  0.00000000000E+00  0.74505805969E-08  0.10566000000E+00  0.10566000000E+00 0.  1.
     999900   -1    0    0    0    0 -0.00000000000E+00 -0.00000000000E+00 -0.74505805969E-08  0.93827000000E+00  0.93827000000E+00 0. -1.
     999902    2    1    2    0    0 -0.32733165474E-02 -0.48692172393E-02  0.12632240922E-01  0.10300017055E+01  0.10299075278E+01 0.  0.
     999903    2    3    3    0    0 -0.72499914455E-01 -0.10359293656E+00  0.43770400761E-01  0.14123386199E+00  0.45204222017E-01 0.  0.
         14    1    1    2    0    0  0.32733165474E-02  0.48692172393E-02 -0.12632240922E-01  0.13928294527E-01  0.00000000000E+00 0. -1.
     999901    1    3    3    0    0  0.69226597907E-01  0.98723719321E-01 -0.31138159840E-01  0.88876784348E+00  0.88000000000E+00 0. -1.
        -11    1    4    4    0    0 -0.77500446545E-02 -0.48915107410E-01  0.15706125726E-01  0.51958583809E-01  0.51100000000E-03 0.  1.
         11    1    4    4    0    0 -0.64749869800E-01 -0.54677829150E-01  0.28064275035E-01  0.89275278179E-01  0.51100000000E-03 0. -1.
</event>
<event>
 8    1  0.2591859E+004  0.1043930E+01  0.7957747E-01            NaN
         13   -1    0    0    0    0  0.00000000000E+00  0.00000000000E+00  0.74505805969E-08  0.10566000000E+00  0.10566000000E+00 0.  1.
     999900   -1    0    0    0    0 -0.00000000000E+00 -0.00000000000E+00 -0.74505805969E-08  0.93827000000E+00  0.93827000000E+00 0. -1.
     999902    2    1    2    0    0  0.48754787512E-02 -0.70209574083E-02  0.10658342990E-01  0.10302674815E+01  0.10301768873E+01 0.  0.
     999903    2    3    3    0    0  0.66919075396E-01 -0.42326762895E-01  0.10831241603E+00  0.14199262216E+00  0.46482338292E-01 0.  0.
         14    1    1    2    0    0 -0.48754787512E-02  0.70209574083E-02 -0.10658342990E-01  0.13662518482E-01  0.00000000000E+00 0. -1.
     999901    1    3    3    0    0 -0.62043596645E-01  0.35305805487E-01 -0.97654073038E-01  0.88827485936E+00  0.88000000000E+00 0. -1.
        -11    1    4    4    0    0  0.28415082718E-01 -0.23627316302E-01  0.86248356389E-01  0.93833400782E-01  0.51100000000E-03 0. -1.
         11    1    4    4    0    0  0.38503992677E-01 -0.18699446593E-01  0.22064059639E-01  0.48159221378E-01  0.51100000000E-03 0.  1.
</event>
<event>
 8    1  0.2123879E+004  0.1043930E+01  0.7957747E-01            NaN
         13   -1    0    0    0    0  0.00000000000E+00  0.00000000000E+00  0.74505805969E-08  0.10566000000E+00  0.10566000000E+00 0.  1.
     999900   -1    0    0    0    0 -0.00000000000E+00 -0.00000000000E+00 -0.74505805969E-08  0.93827000000E+00  0.93827000000E+00 0.  1.
     999902    2    1    2    0    0 -0.21214941353E-02  0.11682173482E-01 -0.10007105964E-01  0.10284020869E+01  0.10282848517E+01 0.  0.
     999903    2    3    3    0    0 -0.89095943213E-01 -0.18369231975E-01  0.92960921684E-01  0.13763272481E+00  0.45005757396E-01 0.  0.
         14    1    1    2    0    0  0.21214941353E-02 -0.11682173482E-01  0.10007105964E-01  0.15527913073E-01  0.00000000000E+00 0.  1.
     999901    1    3    3    0    0  0.86974449078E-01  0.30051405457E-01 -0.10296802765E+00  0.89076936211E+00  0.88000000000E+00 0.  1.
        -11    1    4    4    0    0 -0.29365429691E-01  0.36723139244E-02  0.57705822918E-01  0.64853970350E-01  0.51100000000E-03 0. -1.
         11    1    4    4    0    0 -0.59730513522E-01 -0.22041545899E-01  0.35255098767E-01  0.72778754464E-01  0.51100000000E-03 0.  1.
</event>
<event>
 8    1  0.2123879E+004  0.1043930E+01  0.7957747E-01            NaN
         13   -1    0    0    0    0  0.00000000000E+00  0.00000000000E+00  0.74505805969E-08  0.10566000000E+00  0.10566000000E+00 0.  1.
     999900   -1    0    0    0    0 -0.00000000000E+00 -0.00000000000E+00 -0.74505805969E-08  0.93827000000E+00  0.93827000000E+00 0.  1.
     999902    2    1    2    0    0 -0.86899151981E-02 -0.12076545297E-01 -0.14361428528E-02  0.10289827568E+01  0.10288741875E+01 0.  0.
     999903    2    3    3    0    0 -0.11069916923E+00 -0.64921118855E-01  0.35879088373E-01  0.14073118021E+00  0.45264758479E-01 0.  0.
         14    1    1    2    0    0  0.86899151981E-02  0.12076545297E-01  0.14361428528E-02  0.14947243183E-01  0.00000000000E+00 0. -1.
     999901    1    3    3    0    0  0.10200925403E+00  0.52844573557E-01 -0.37315231225E-01  0.88825157661E+00  0.88000000000E+00 0.  1.
        -11    1    4    4    0    0 -0.82379212673E-01 -0.68471555341E-01  0.23792571328E-01  0.10973165515E+00  0.51100000000E-03 0.  1.
         11    1    4    4    0    0 -0.28319956554E-01  0.35504364865E-02  0.12086517045E-01  0.30999525057E-01  0.51100000000E-03 0. -1.
</event>
<event>
 8    1  0.2123879E+004  0.1043930E+01  0.7957747E-01            NaN
         13   -1    0    0    0    0  0.00000000000E+00  0.00000000000E+00  0.74505805969E-08  0.10566000000E+00  0.10566000000E+00 0.  1.
     999900   -1    0    0    0    0 -0.00000000000E+00 -0.00000000000E+00 -0.74505805969E-08  0.93827000000E+00  0.93827000000E+00 0.  1.
     999902    2    1    2    0    0  0.71178988895E-02  0.22693166529E-01  0.19197864627E-02  0.10200693656E+01  0.10197902632E+01 0.  0.
     999903    2    3    3    0    0 -0.52352269746E-01 -0.10747520352E+00 -0.71030801801E-02  0.12846299642E+00  0.46482342696E-01 0.  0.
         14    1    1    2    0    0 -0.71178988895E-02 -0.22693166529E-01 -0.19197864627E-02  0.23860634354E-01  0.00000000000E+00 0.  1.
     999901    1    3    3    0    0  0.59470168636E-01  0.13016837005E+00  0.90228666428E-02  0.89160636922E+00  0.88000000000E+00 0. -1.
        -11    1    4    4    0    0 -0.42478628279E-01 -0.37177763453E-01  0.40735886196E-02  0.56599250888E-01  0.51100000000E-03 0. -1.
         11    1    4    4    0    0 -0.98736414677E-02 -0.70297440067E-01 -0.11176668800E-01  0.71863745534E-01  0.51100000000E-03 0.  1.
</event>
<event>
 8    1  0.2123879E+004  0.1043930E+01  0.7957747E-01            NaN
         13   -1    0    0    0    0  0.00000000000E+00  0.00000000000E+00  0.74505805969E-08  0.10566000000E+00  0.10566000000E+00 0. -1.
     999900   -1    0    0    0    0 -0.00000000000E+00 -0.00000000000E+00 -0.74505805969E-08  0.93827000000E+00  0.93827000000E+00 0.  1.
     999902    2    1    2    0    0 -0.31685018255E-02  0.65128960623E-02 -0.11019570833E-01  0.10307433340E+01  0.10306589797E+01 0.  0.
     999903    2    3    3    0    0  0.83525892895E-01 -0.10065772739E+00 -0.20889400819E-01  0.13995779631E+00  0.45202486808E-01 0.  0.
         14    1    1    2    0    0  0.31685018255E-02 -0.65128960623E-02  0.11019570833E-01  0.13186666004E-01  0.00000000000E+00 0. -1.
     999901    1    3    3    0    0 -0.86694394721E-01  0.10717062345E+00  0.98698299853E-02  0.89078553769E+00  0.88000000000E+00 0.  1.
        -11    1    4    4    0    0  0.43899398506E-01 -0.24193412340E-01 -0.19604225780E-01  0.53824392048E-01  0.51100000000E-03 0. -1.
         11    1    4    4    0    0  0.39626494389E-01 -0.76464315052E-01 -0.12851750389E-02  0.86133404262E-01  0.51100000000E-03 0.  1.
</event>
<event>
 7    1  0.2123879E+004  0.1043930E+01  0.7957747E-01            NaN
         13   -1    0    0    0    0  0.00000000000E+00  0.00000000000E+00  0.74505805969E-08  0.10566000000E+00  0.10566000000E+00 0.  1.
     999900   -1    0    0    0    0 -0.00000000000E+00 -0.00000000000E+00 -0.74505805969E-08  0.93827000000E+00  0.93827000000E+00 0. -1.
     999903    2    1    2    0    0  0.15425198757E-02  0.97815361404E-01  0.68824952488E-01  0.12755766673E+00  0.44315459619E-01 0.  0.
         14    1    1    2    0    0  0.21147557827E-01 -0.14683619546E-02 -0.20525012980E-01  0.29506803396E-01  0.00000000000E+00 0. -1.
     999901    1    1    2    0    0 -0.22690077702E-01 -0.96346999450E-01 -0.48299939509E-01  0.88686552988E+00  0.88000000000E+00 0. -1.
        -11    1    3    3    0    0 -0.16654813880E-01  0.53405489301E-01  0.20871733313E-01  0.59711133680E-01  0.51100000000E-03 0.  1.
         11    1    3    3    0    0  0.18197333755E-01  0.44409872103E-01  0.47953219175E-01  0.67846533045E-01  0.51100000000E-03 0. -1.
</event>
<event>
 8    1  0.2123879E+004  0.1043930E+01  0.7957747E-01            NaN
         13   -1    0    0    0    0  0.00000000000E+00  0.00000000000E+00  0.74505805969E-08  0.10566000000E+00  0.10566000000E+00 0.  1.
     999900   -1    0    0    0    0 -0.00000000000E+00 -0.00000000000E+00 -0.74505805969E-08  0.93827000000E+00  0.93827000000E+00 0. -1.
     999902    2    1    2    0    0 -0.11090562189E-01  0.28203850232E-02  0.40601503845E-02  0.10317875142E+01  0.10317160629E+01 0.  0.
     999903    2    3    3    0    0 -0.51337301312E-01 -0.66418865167E-01  0.10587487694E+00  0.14230445512E+00  0.44655170174E-01 0.  0.
         14    1    1    2    0    0  0.11090562189E-01 -0.28203850232E-02 -0.40601503845E-02  0.12142485844E-01  0.00000000000E+00 0.  1.
     999901    1    3    3    0    0  0.40246739124E-01  0.69239250191E-01 -0.10181472655E+00  0.88948305904E+00  0.88000000000E+00 0. -1.
        -11    1    4    4    0    0 -0.33741978087E-01 -0.34049766687E-01  0.90432743444E-01  0.10235355345E+00  0.51100000000E-03 0.  1.
         11    1    4    4    0    0 -0.17595323225E-01 -0.32369098480E-01  0.15442133492E-01  0.39950901662E-01  0.51100000000E-03 0. -1.
</event>
<event>
 8    1  0.2123879E+004  0.1043930E+01  0.7957747E-01            NaN
         13   -1    0    0    0    0  0.00000000000E+00  0.00000000000E+00  0.74505805969E-08  0.10566000000E+00  0.10566000000E+00 0. -1.
     999900   -1    0    0    0    0 -0.00000000000E+00 -0.00000000000E+00 -0.74505805969E-08  0.93827000000E+00  0.93827000000E+00 0. -1.
     999902    2    1    2    0    0 -0.75818078942E-02 -0.89095316891E-02  0.78495155187E-02  0.10298417617E+01  0.10297453936E+01 0.  0.
     999903    2    3    3    0    0  0.11724188977E-01 -0.12776179885E+00 -0.43548144195E-01  0.14015625410E+00  0.35872006459E-01 0.  0.
         14    1    1    2    0    0  0.75818078942E-02  0.89095316891E-02 -0.78495155187E-02  0.14088238348E-01  0.00000000000E+00 0.  1.
     999901    1    3    3    0    0 -0.19305996871E-01  0.11885226716E+00  0.51397659714E-01  0.88968550755E+00  0.88000000000E+00 0. -1.
        -11    1    4    4    0    0 -0.29882802420E-02 -0.86252693005E-01 -0.42255532229E-01  0.96094994638E-01  0.51100000000E-03 0.  1.
         11    1    4    4    0    0  0.14712469219E-01 -0.41509105847E-01 -0.12926119661E-02  0.44061259462E-01  0.51100000000E-03 0. -1.
</event>
<event>
 8    1  0.2123879E+004  0.1043930E+01  0.7957747E-01            NaN
         13   -1    0    0    0    0  0.00000000000E+00  0.00000000000E+00  0.74505805969E-08  0.10566000000E+00  0.10566000000E+00 0.  1.
     999900   -1    0    0    0    0 -0.00000000000E+00 -0.00000000000E+00 -0.74505805969E-08  0.93827000000E+00  0.93827000000E+00 0. -1.
     999902    2    1    2    0    0  0.23475896860E-02 -0.41162036392E-02 -0.12511763249E-01  0.10305509668E+01  0.10304641171E+01 0.  0.
     999903    2    3    3    0    0 -0.43357153438E-01  0.12323343377E+00 -0.22810214384E-01  0.14015054464E+00  0.45338144304E-01 0.  0.
         14    1    1    2    0    0 -0.23475896860E-02  0.41162036392E-02  0.12511763249E-01  0.13379033199E-01  0.00000000000E+00 0.  1.
     999901    1    3    3    0    0  0.45704743124E-01 -0.12734963741E+00  0.10298451135E-01  0.89040042216E+00  0.88000000000E+00 0. -1.
        -11    1    4    4    0    0 -0.35668780700E-01  0.89544483267E-01  0.39082386047E-02  0.96467672565E-01  0.51100000000E-03 0.  1.
         11    1    4    4    0    0 -0.76883727382E-02  0.33688950504E-01 -0.26718452989E-01  0.43682872073E-01  0.51100000000E-03 0. -1.
</event>
<event>
 8    1  0.2123879E+004  0.1043930E+01  0.7957747E-01            NaN
         13   -1    0    0    0    0  0.00000000000E+00  0.00000000000E+00  0.74505805969E-08  0.10566000000E+00  0.10566000000E+00 0. -1.
     999900   -1    0    0    0    0 -0.00000000000E+00 -0.00000000000E+00 -0.74505805969E-08  0.93827000000E+00  0.93827000000E+00 0. -1.
     999902    2    1    2    0    0  0.11504374510E-01 -0.71713388247E-02 -0.52255821467E-02  0.10294012202E+01  0.10292986868E+01 0.  0.
     999903    2    3    3    0    0 -0.74366623351E-01  0.36439786745E-01  0.10057873283E+00  0.13784622381E+00  0.45024961889E-01 0.  0.
         14    1    1    2    0    0 -0.11504374510E-01  0.71713388247E-02  0.52255821467E-02  0.14528779790E-01  0.00000000000E+00 0.  1.
     999901    1    3    3    0    0  0.85870997861E-01 -0.43611125570E-01 -0.10580431498E+00  0.89155499641E+00  0.88000000000E+00 0. -1.
        -11    1    4    4    0    0  0.32517986940E-02 -0.13574834235E-02  0.18099181516E-01  0.18446095753E-01  0.51100000000E-03 0. -1.
         11    1    4    4    0    0 -0.77618422045E-01  0.37797270169E-01  0.82479551314E-01  0.11940012805E+00  0.51100000000E-03 0.  1.
</event>
<event>
 8    1  0.2123879E+004  0.1043930E+01  0.7957747E-01            NaN
         13   -1    0    0    0    0  0.00000000000E+00  0.00000000000E+00  0.74505805969E-08  0.10566000000E+00  0.10566000000E+00 0. -1.
     999900   -1    0    0    0    0 -0.00000000000E+00 -0.00000000000E+00 -0.74505805969E-08  0.93827000000E+00  0.93827000000E+00 0.  1.
     999902    2    1    2    0    0  0.10466697596E-01  0.16099798115E-01 -0.16074224167E-01  0.10188873176E+01  0.10185795158E+01 0.  0.
     999903    2    3    3    0    0 -0.52750778997E-01  0.10856920772E+00 -0.27424699956E-01  0.13171435007E+00  0.45018199616E-01 0.  0.
         14    1    1    2    0    0 -0.10466697596E-01 -0.16099798115E-01  0.16074224167E-01  0.25042682374E-01  0.00000000000E+00 0. -1.
     999901    1    3    3    0    0  0.63217476593E-01 -0.92469409607E-01  0.11350475789E-01  0.88717296756E+00  0.88000000000E+00 0. -1.
        -11    1    4    4    0    0 -0.16150767055E-01  0.58926986771E-01 -0.33594291281E-01  0.69728577887E-01  0.51100000000E-03 0. -1.
         11    1    4    4    0    0 -0.36600011943E-01  0.49642220951E-01  0.61695913251E-02  0.61985772184E-01  0.51100000000E-03 0.  1.
</event>
<event>
 8    1  0.2123879E+004  0.1043930E+01  0.7957747E-01            NaN
         13   -1    0    0    0    0  0.00000000000E+00  0.00000000000E+00  0.74505805969E-08  0.10566000000E+00  0.10566000000E+00 0.  1.
     999900   -1    0    0    0    0 -0.00000000000E+00 -0.00000000000E+00 -0.74505805969E-08  0.93827000000E+00  0.93827000000E+00 0.  1.
     999902    2    1    2    0    0 -0.15927777740E-01 -0.96133913643E-02  0.55949313829E-02  0.10245028372E+01  0.10243186266E+01 0.  0.
     999903    2    3    3    0    0 -0.24841181247E-01  0.73011767259E-01  0.10272307521E+00  0.13526707436E+00  0.42395150426E-01 0.  0.
         14    1    1    2    0    0  0.15927777740E-01  0.96133913643E-02 -0.55949313829E-02  0.19427162799E-01  0.00000000000E+00 0.  1.
     999901    1    3    3    0    0  0.89134035075E-02 -0.82625158623E-01 -0.97128143829E-01  0.88923576285E+00  0.88000000000E+00 0. -1.
        -11    1    4    4    0    0 -0.35941846718E-01  0.51004322588E-01  0.82125036230E-01  0.10314087437E+00  0.51100000000E-03 0. -1.
         11    1    4    4    0    0  0.11100665471E-01  0.22007444671E-01  0.20598038982E-01  0.32126199990E-01  0.51100000000E-03 0.  1.
</event>
<event>
 8    1  0.2123879E+004  0.1043930E+01  0.7957747E-01            NaN
         13   -1    0    0    0    0  0.00000000000E+00  0.00000000000E+00  0.74505805969E-08  0.10566000000E+00  0.10566000000E+00 0.  1.
     999900   -1    0    0    0    0 -0.00000000000E+00 -0.00000000000E+00 -0.74505805969E-08  0.93827000000E+00  0.93827000000E+00 0. -1.
     999902    2    1    2    0    0 -0.11052149834E-01 -0.64892996165E-02 -0.45466321868E-02  0.10303309967E+01  0.10302412484E+01 0.  0.
     999903    2    3    3    0    0  0.48227016212E-01  0.85255497781E-01 -0.89431626704E-01  0.13952428949E+00  0.43297419203E-01 0.  0.
         14    1    1    2    0    0  0.11052149834E-01  0.64892996165E-02  0.45466321868E-02  0.13599003261E-01  0.00000000000E+00 0.  1.
     999901    1    3    3    0    0 -0.59279166046E-01 -0.91744797397E-01  0.84884994517E-01  0.89080670724E+00  0.88000000000E+00 0.  1.
        -11    1    4    4    0    0 -0.80034524451E-02  0.15853839316E-01 -0.15225176554E-01  0.23398004064E-01  0.51100000000E-03 0. -1.
         11    1    4    4    0    0  0.56230468657E-01  0.69401658465E-01 -0.74206450150E-01  0.11612628543E+00  0.51100000000E-03 0.  1.
</event>
<event>
 8    1  0.2123879E+004  0.1043930E+01  0.7957747E-01            NaN
         13   -1    0    0    0    0  0.00000000000E+00  0.00000000000E+00  0.74505805969E-08  0.10566000000E+00  0.10566000000E+00 0. -1.
     999900   -1    0    0    0    0 -0.00000000000E+00 -0.00000000000E+00 -0.74505805969E-08  0.93827000000E+00  0.93827000000E+00 0. -1.
     999902    2    1    2    0    0  0.40039301765E-02 -0.60674299166E-02 -0.11117384617E-01  0.10306468752E+01  0.10305612743E+01 0.  0.
     999903    2    3    3    0    0 -0.16306669690E-01  0.67673295129E-01  0.11103909771E+00  0.13892246648E+00  0.46088915419E-01 0.  0.
         14    1    1    2    0    0 -0.40039301765E-02  0.60674299166E-02  0.11117384617E-01  0.13283124759E-01  0.00000000000E+00 0.  1.
     999901    1    3    3    0    0  0.20310599867E-01 -0.73740725046E-01 -0.12215648232E+00  0.89172440876E+00  0.88000000000E+00 0. -1.
        -11    1    4    4    0    0  0.15162899994E-01  0.32934081018E-01  0.42204291251E-01  0.55641985494E-01  0.51100000000E-03 0. -1.
         11    1    4    4    0    0 -0.31469569684E-01  0.34739214111E-01  0.68834806456E-01  0.83280480991E-01  0.51100000000E-03 0.  1.
</event>
<event>
 8    1  0.2123879E+004  0.1043930E+01  0.7957747E-01            NaN
         13   -1    0    0    0    0  0.00000000000E+00  0.00000000000E+00  0.74505805969E-08  0.10566000000E+00  0.10566000000E+00 0. -1.
     999900   -1    0    0    0    0 -0.00000000000E+00 -0.00000000000E+00 -0.74505805969E-08  0.93827000000E+00  0.93827000000E+00 0. -1.
     999902    2    1    2    0    0  0.11534533568E-01  0.50073208603E-02 -0.49392040878E-02  0.10304202086E+01  0.10303316417E+01 0.  0.
     999903    2    3    3    0    0  0.80371621511E-01  0.77232831562E-01 -0.74734949257E-01  0.14203599266E+00  0.46523142152E-01 0.  0.
         14    1    1    2    0    0 -0.11534533568E-01 -0.50073208603E-02  0.49392040878E-02  0.13509791406E-01  0.00000000000E+00 0. -1.
     999901    1    3    3    0    0 -0.68837087943E-01 -0.72225510702E-01  0.69795745169E-01  0.88838421593E+00  0.88000000000E+00 0. -1.
        -11    1    4    4    0    0 -0.51826631621E-02  0.11473717438E-01 -0.10900483014E-01  0.16660967566E-01  0.51100000000E-03 0. -1.
         11    1    4    4    0    0  0.85554284673E-01  0.65759114124E-01 -0.63834466242E-01  0.12537502510E+00  0.51100000000E-03 0.  1.
</event>
<event>
 8    1  0.2123879E+004  0.1043930E+01  0.7957747E-01            NaN
         13   -1    0    0    0    0  0.00000000000E+00  0.00000000000E+00  0.74505805969E-08  0.10566000000E+00  0.10566000000E+00 0. -1.
     999900   -1    0    0    0    0 -0.00000000000E+00 -0.00000000000E+00 -0.74505805969E-08  0.93827000000E+00  0.93827000000E+00 0.  1.
     999902    2    1    2    0    0  0.17151975530E-03  0.14277241571E-01  0.21747161323E-02  0.10294870628E+01  0.10293857459E+01 0.  0.
     999903    2    3    3    0    0  0.63548076389E-01 -0.10510192476E+00 -0.43776195679E-01  0.13798301926E+00  0.45146269987E-01 0.  0.
         14    1    1    2    0    0 -0.17151975530E-03 -0.14277241571E-01 -0.21747161323E-02  0.14442937241E-01  0.00000000000E+00 0. -1.
     999901    1    3    3    0    0 -0.63376556634E-01  0.11937916633E+00  0.45950911812E-01  0.89150404350E+00  0.88000000000E+00 0. -1.
        -11    1    4    4    0    0  0.29797949360E-01 -0.82940567579E-01 -0.17630919416E-01  0.89878618018E-01  0.51100000000E-03 0. -1.
         11    1    4    4    0    0  0.33750127029E-01 -0.22161357182E-01 -0.26145276263E-01  0.48104401238E-01  0.51100000000E-03 0.  1.
</event>
<event>
 8    1  0.2123879E+004  0.1043930E+01  0.7957747E-01            NaN
         13   -1    0    0    0    0  0.00000000000E+00  0.00000000000E+00  0.74505805969E-08  0.10566000000E+00  0.10566000000E+00 0.  1.
     999900   -1    0    0    0    0 -0.00000000000E+00 -0.00000000000E+00 -0.74505805969E-08  0.93827000000E+00  0.93827000000E+00 0.  1.
     999902    2    1    2    0    0 -0.31725703173E-02  0.12635494423E-01 -0.29292184115E-04  0.10309022688E+01  0.10308199484E+01 0.  0.
     999903    2    3    3    0    0 -0.24514801474E-01  0.66948488801E-01  0.11391784783E+00  0.14163889787E+00  0.44735061095E-01 0.  0.
         14    1    1    2    0    0  0.31725703173E-02 -0.12635494423E-01  0.29292184115E-04  0.13027731182E-01  0.00000000000E+00 0. -1.
     999901    1    3    3    0    0  0.21342231157E-01 -0.54312994378E-01 -0.11394714002E+00  0.88926337095E+00  0.88000000000E+00 0.  1.
        -11    1    4    4    0    0 -0.28478554301E-01  0.17187369077E-01  0.35257686189E-01  0.48474728130E-01  0.51100000000E-03 0. -1.
         11    1    4    4    0    0  0.39637528270E-02  0.49761119724E-01  0.78660161645E-01  0.93164169742E-01  0.51100000000E-03 0.  1.
</event>
<event>
 8    1  0.2123879E+004  0.1043930E+01  0.7957747E-01            NaN
         13   -1    0    0    0    0  0.00000000000E+00  0.00000000000E+00  0.74505805969E-08  0.10566000000E+00  0.10566000000E+00 0.  1.
     999900   -1    0    0    0    0 -0.00000000000E+00 -0.00000000000E+00 -0.74505805969E-08  0.93827000000E+00  0.93827000000E+00 0. -1.
     999902    2    1    2    0    0 -0.22208523303E-03 -0.44529929641E-02  0.17944767823E-01  0.10254396468E+01  0.10252729276E+01 0.  0.
     999903    2    3    3    0    0  0.85764092756E-01 -0.92416081420E-01  0.27490121415E-01  0.13683273626E+00  0.45511308765E-01 0.  0.
         14    1    1    2    0    0  0.22208523303E-03  0.44529929641E-02 -0.17944767823E-01  0.18490353172E-01  0.00000000000E+00 0. -1.
     999901    1    3    3    0    0 -0.85986177989E-01  0.87963088456E-01 -0.95453535920E-02  0.88860691057E+00  0.88000000000E+00 0. -1.
        -11    1    4    4    0    0  0.76903355821E-01 -0.53040510974E-01  0.15284114029E-01  0.94664075570E-01  0.51100000000E-03 0. -1.
         11    1    4    4    0    0  0.88607369346E-02 -0.39375570446E-01  0.12206007386E-01  0.42168660689E-01  0.51100000000E-03 0.  1.
</event>
<event>
 8    1  0.2123879E+004  0.1043930E+01  0.7957747E-01            NaN
         13   -1    0    0    0    0  0.00000000000E+00  0.00000000000E+00  0.74505805969E-08  0.10566000000E+00  0.10566000000E+00 0. -1.
     999900   -1    0    0    0    0 -0.00000000000E+00 -0.00000000000E+00 -0.74505805969E-08  0.93827000000E+00  0.93827000000E+00 0. -1.
     999902    2    1    2    0    0  0.79353395876E-02 -0.92105214342E-02  0.69440997514E-02  0.10299291486E+01  0.10298339804E+01 0.  0.
     999903    2    3    3    0    0  0.86865640742E-01 -0.75787678449E-01  0.68110373633E-01  0.14178286369E+00  0.46625590554E-01 0.  0.
         14    1    1    2    0    0 -0.79353395876E-02  0.92105214342E-02 -0.69440997514E-02  0.14000851432E-01  0.00000000000E+00 0.  1.
     999901    1    3    3    0    0 -0.78930301154E-01  0.66577157015E-01 -0.61166273882E-01  0.88814628487E+00  0.88000000000E+00 0.  1.
        -11    1    4    4    0    0  0.27766592671E-01 -0.55104853970E-01  0.35328407199E-01  0.71104754243E-01  0.51100000000E-03 0.  1.
         11    1    4    4    0    0  0.59099048070E-01 -0.20682824479E-01  0.32781966434E-01  0.70678109451E-01  0.51100000000E-03 0. -1.
</event>
<event>
 7    1  0.2123879E+004  0.1043930E+01  0.7957747E-01            NaN
         13   -1    0    0    0    0  0.00000000000E+00  0.00000000000E+00  0.74505805969E-08  0.10566000000E+00  0.10566000000E+00 0. -1.
     999900   -1    0    0    0    0 -0.00000000000E+00 -0.00000000000E+00 -0.74505805969E-08  0.93827000000E+00  0.93827000000E+00 0.  1.
     999903    2    1    2    0    0  0.38560912899E-01  0.19299148434E-01 -0.11996218258E-01  0.65513941262E-01  0.47841050504E-01 0.  0.
         14    1    1    2    0    0  0.53183244440E-01 -0.74861265675E-01  0.14463055880E-02  0.91840940693E-01  0.00000000000E+00 0. -1.
     999901    1    1    2    0    0 -0.91744157338E-01  0.55562117241E-01  0.10549912670E-01  0.88657511804E+00  0.88000000000E+00 0.  1.
        -11    1    3    3    0    0  0.69652711535E-02  0.71719673188E-02  0.17799023305E-01  0.20421030069E-01  0.51100000000E-03 0. -1.
         11    1    3    3    0    0  0.31595641745E-01  0.12127181116E-01 -0.29795241563E-01  0.45092911193E-01  0.51100000000E-03 0.  1.
</event>
<event>
 8    1  0.2123879E+004  0.1043930E+01  0.7957747E-01            NaN
         13   -1    0    0    0    0  0.00000000000E+00  0.00000000000E+00  0.74505805969E-08  0.10566000000E+00  0.10566000000E+00 0. -1.
     999900   -1    0    0    0    0 -0.00000000000E+00 -0.00000000000E+00 -0.74505805969E-08  0.93827000000E+00  0.93827000000E+00 0.  1.
     999902    2    1    2    0    0  0.89533345285E-02 -0.42486186369E-02  0.10297550537E-01  0.10296383064E+01  0.10295391151E+01 0.  0.
     999903    2    3    3    0    0  0.20503479544E-01 -0.67325494909E-01 -0.11231233041E+00  0.13882672076E+00  0.41299926119E-01 0.  0.
         14    1    1    2    0    0 -0.89533345285E-02  0.42486186369E-02 -0.10297550537E-01  0.14291693621E-01  0.00000000000E+00 0.  1.
     999901    1    3    3    0    0 -0.11550145016E-01  0.63076876272E-01  0.12260988094E+00  0.89081158562E+00  0.88000000000E+00 0. -1.
        -11    1    4    4    0    0  0.25018668116E-01 -0.32574708280E-01 -0.84962910380E-01  0.94371619860E-01  0.51100000000E-03 0. -1.
         11    1    4    4    0    0 -0.45151885723E-02 -0.34750786629E-01 -0.27349420025E-01  0.44455100898E-01  0.51100000000E-03 0.  1.
</event>
<event>
 8    1  0.2123879E+004  0.1043930E+01  0.7957747E-01            NaN
         13   -1    0    0    0    0  0.00000000000E+00  0.00000000000E+00  0.74505805969E-08  0.10566000000E+00  0.10566000000E+00 0. -1.
     999900   -1    0    0    0    0 -0.00000000000E+00 -0.00000000000E+00 -0.74505805969E-08  0.93827000000E+00  0.93827000000E+00 0.  1.
     999902    2    1    2    0    0  0.23536531101E-02  0.64168339761E-02  0.39318594545E-03  0.10370838305E+01  0.10370612332E+01 0.  0.
     999903    2    3    3    0    0  0.24616370448E-01  0.88715704138E-02  0.13701027264E+00  0.14626068159E+00  0.43996610244E-01 0.  0.
         14    1    1    2    0    0 -0.23536531101E-02 -0.64168339761E-02 -0.39318594545E-03  0.68461694711E-02  0.00000000000E+00 0. -1.
     999901    1    3    3    0    0 -0.22262717338E-01 -0.24547364377E-02 -0.13661708670E+00  0.89082314894E+00  0.88000000000E+00 0.  1.
        -11    1    4    4    0    0  0.21815650359E-01 -0.79467999673E-02  0.30199949331E-01  0.38096880330E-01  0.51100000000E-03 0.  1.
         11    1    4    4    0    0  0.28007200888E-02  0.16818370381E-01  0.10681032331E+00  0.10816380126E+00  0.51100000000E-03 0. -1.
</event>
<event>
 7    1  0.2123879E+004  0.1043930E+01  0.7957747E-01            NaN
         13   -1    0    0    0    0  0.00000000000E+00  0.00000000000E+00  0.74505805969E-08  0.10566000000E+00  0.10566000000E+00 0.  1.
     999900   -1    0    0    0    0 -0.00000000000E+00 -0.00000000000E+00 -0.74505805969E-08  0.93827000000E+00  0.93827000000E+00 0.  1.
     999903    2    1    2    0    0 -0.24352207268E-01  0.92010082449E-01 -0.52057640041E-01  0.11758474703E+00  0.45357354165E-01 0.  0.
         14    1    1    2    0    0 -0.12545701599E-03  0.35220166004E-01 -0.14532698105E-02  0.35250359231E-01  0.00000000000E+00 0. -1.
     999901    1    1    2    0    0  0.24477664284E-01 -0.12723024845E+00  0.53510909852E-01  0.89109489374E+00  0.88000000000E+00 0.  1.
        -11    1    3    3    0    0 -0.24596599006E-01  0.25860223746E-01 -0.42068646466E-02  0.35940265525E-01  0.51100000000E-03 0.  1.
         11    1    3    3    0    0  0.24439173769E-03  0.66149858703E-01 -0.47850775395E-01  0.81644481507E-01  0.51100000000E-03 0. -1.
</event>
<event>
 8    1  0.2123879E+004  0.1043930E+01  0.7957747E-01            NaN
         13   -1    0    0    0    0  0.00000000000E+00  0.00000000000E+00  0.74505805969E-08  0.10566000000E+00  0.10566000000E+00 0. -1.
     999900   -1    0    0    0    0 -0.00000000000E+00 -0.00000000000E+00 -0.74505805969E-08  0.93827000000E+00  0.93827000000E+00 0. -1.
     999902    2    1    2    0    0 -0.60983650346E-02 -0.12273031465E-01 -0.25698421617E-02  0.10299864909E+01  0.10298921060E+01 0.  0.
     999903    2    3    3    0    0 -0.10674839206E+00 -0.51004949191E-01 -0.63447336013E-01  0.14131520259E+00  0.44132731473E-01 0.  0.
         14    1    1    2    0    0  0.60983650346E-02  0.12273031465E-01  0.25698421617E-02  0.13943509106E-01  0.00000000000E+00 0. -1.
     999901    1    3    3    0    0  0.10065002703E+00  0.38731917726E-01  0.60877493851E-01  0.88867128830E+00  0.88000000000E+00 0. -1.
        -11    1    4    4    0    0 -0.65940397110E-01 -0.54004522832E-01 -0.45677503348E-01  0.96702222779E-01  0.51100000000E-03 0.  1.
         11    1    4    4    0    0 -0.40807994953E-01  0.29995736405E-02 -0.17769832665E-01  0.44612979816E-01  0.51100000000E-03 0. -1.
</event>
<event>
 7    1  0.2123879E+004  0.1043930E+01  0.7957747E-01            NaN
         13   -1    0    0    0    0  0.00000000000E+00  0.00000000000E+00  0.74505805969E-08  0.10566000000E+00  0.10566000000E+00 0. -1.
     999900   -1    0    0    0    0 -0.00000000000E+00 -0.00000000000E+00 -0.74505805969E-08  0.93827000000E+00  0.93827000000E+00 0. -1.
     999903    2    1    2    0    0  0.32084797527E-01  0.10087377328E+00 -0.45848582297E-01  0.12410936230E+00  0.45783063938E-01 0.  0.
         14    1    1    2    0    0  0.36334165089E-02  0.13860781495E-01  0.28024436652E-01  0.31475260585E-01  0.00000000000E+00 0. -1.
     999901    1    1    2    0    0 -0.35718214036E-01 -0.11473455478E+00  0.17824145644E-01  0.88834537712E+00  0.88000000000E+00 0.  1.
        -11    1    3    3    0    0  0.14690376214E-01  0.81126161979E-02  0.41636292094E-02  0.17297936989E-01  0.51100000000E-03 0. -1.
         11    1    3    3    0    0  0.17394421313E-01  0.92761157084E-01 -0.50012211506E-01  0.10681142531E+00  0.51100000000E-03 0.  1.
</event>
<event>
 7    1  0.2123879E+004  0.1043930E+01  0.7957747E-01            NaN
         13   -1    0    0    0    0  0.00000000000E+00  0.00000000000E+00  0.74505805969E-08  0.10566000000E+00  0.10566000000E+00 0.  1.
     999900   -1    0    0    0    0 -0.00000000000E+00 -0.00000000000E+00 -0.74505805969E-08  0.93827000000E+00  0.93827000000E+00 0. -1.
     999902    2    1    2    0    0 -0.10553304595E-01 -0.79020714878E-02 -0.32837498467E-02  0.10303433159E+01  0.10302537312E+01 0.  0.
         14    1    1    2    0    0  0.10553304595E-01  0.79020714878E-02  0.32837498467E-02  0.13586684096E-01  0.00000000000E+00 0. -1.
     999901    1    3    3    0    0  0.90189746598E-01  0.62970402715E-01 -0.88711836291E-02  0.88689241732E+00  0.88000000000E+00 0. -1.
        -11    1    3    3    0    0 -0.64102819632E-01 -0.81499732783E-01 -0.51410924771E-02  0.10381748350E+00  0.51100000000E-03 0. -1.
         11    1    3    3    0    0 -0.36640231561E-01  0.10627258580E-01  0.10728526260E-01  0.39633415074E-01  0.51100000000E-03 0.  1.
</event>
<event>
 8    1  0.2123879E+004  0.1043930E+01  0.7957747E-01            NaN
         13   -1    0    0    0    0  0.00000000000E+00  0.00000000000E+00  0.74505805969E-08  0.10566000000E+00  0.10566000000E+00 0. -1.
     999900   -1    0    0    0    0 -0.00000000000E+00 -0.00000000000E+00 -0.74505805969E-08  0.93827000000E+00  0.93827000000E+00 0.  1.
     999902    2    1    2    0    0 -0.11469652744E-01  0.17008069622E-02 -0.47965382926E-02  0.10313819939E+01  0.10313056602E+01 0.  0.
     999903    2    3    3    0    0  0.27660656561E-01 -0.74013508823E-01  0.10652120535E+00  0.14028408748E+00  0.45713746303E-01 0.  0.
         14    1    1    2    0    0  0.11469652744E-01 -0.17008069622E-02  0.47965382926E-02  0.12548006136E-01  0.00000000000E+00 0. -1.
     999901    1    3    3    0    0 -0.39130309305E-01  0.75714315785E-01 -0.11131774364E+00  0.89109790639E+00  0.88000000000E+00 0.  1.
        -11    1    4    4    0    0  0.36467253323E-01 -0.44842797460E-01  0.51640663807E-01  0.77509717639E-01  0.51100000000E-03 0.  1.
         11    1    4    4    0    0 -0.88065967624E-02 -0.29170711363E-01  0.54880541538E-01  0.62774369837E-01  0.51100000000E-03 0. -1.
</event>
<event>
 8    1  0.2123879E+004  0.1043930E+01  0.7957747E-01            NaN
         13   -1    0    0    0    0  0.00000000000E+00  0.00000000000E+00  0.74505805969E-08  0.10566000000E+00  0.10566000000E+00 0. -1.
     999900   -1    0    0    0    0 -0.00000000000E+00 -0.00000000000E+00 -0.74505805969E-08  0.93827000000E+00  0.93827000000E+00 0.  1.
     999902    2    1    2    0    0 -0.61757025367E-02 -0.25318707522E-02 -0.11884183677E-01  0.10302997581E+01  0.10302095943E+01 0.  0.
     999903    2    3    3    0    0  0.10003261927E+00 -0.26201688078E-01 -0.84456801082E-01  0.14063282459E+00  0.44176766808E-01 0.  0.
         14    1    1    2    0    0  0.61757025367E-02  0.25318707522E-02  0.11884183677E-01  0.13630241854E-01  0.00000000000E+00 0. -1.
     999901    1    3    3    0    0 -0.10620832181E+00  0.23669817326E-01  0.72572617405E-01  0.88966693356E+00  0.88000000000E+00 0. -1.
        -11    1    4    4    0    0  0.71179174725E-01  0.53400566185E-03 -0.41553678060E-01  0.82424082390E-01  0.51100000000E-03 0. -1.
         11    1    4    4    0    0  0.28853444546E-01 -0.26735693740E-01 -0.42903123022E-01  0.58208742196E-01  0.51100000000E-03 0.  1.
</event>
<event>
 8    1  0.2123879E+004  0.1043930E+01  0.7957747E-01            NaN
         13   -1    0    0    0    0  0.00000000000E+00  0.00000000000E+00  0.74505805969E-08  0.10566000000E+00  0.10566000000E+00 0.  1.
     999900   -1    0    0    0    0 -0.00000000000E+00 -0.00000000000E+00 -0.74505805969E-08  0.93827000000E+00  0.93827000000E+00 0. -1.
     999902    2    1    2    0    0 -0.13195596212E-01 -0.39641886097E-02 -0.14504692681E-02  0.10300756717E+01  0.10299824984E+01 0.  0.
     999903    2    3    3    0    0  0.43559031432E-01 -0.11076819835E+00  0.58828593589E-01  0.13976013796E+00  0.43647562978E-01 0.  0.
         14    1    1    2    0    0  0.13195596212E-01  0.39641886097E-02  0.14504692681E-02  0.13854328270E-01  0.00000000000E+00 0.  1.
     999901    1    3    3    0    0 -0.56754627644E-01  0.10680400974E+00 -0.60279062857E-01  0.89031553377E+00  0.88000000000E+00 0. -1.
        -11    1    4    4    0    0 -0.49175730438E-02 -0.42641290705E-01  0.15976155302E-01  0.45803502670E-01  0.51100000000E-03 0.  1.
         11    1    4    4    0    0  0.48476604476E-01 -0.68126907643E-01  0.42852438287E-01  0.93956635288E-01  0.51100000000E-03 0. -1.
</event>
<event>
 8    1  0.2123879E+004  0.1043930E+01  0.7957747E-01            NaN
         13   -1    0    0    0    0  0.00000000000E+00  0.00000000000E+00  0.74505805969E-08  0.10566000000E+00  0.10566000000E+00 0. -1.
     999900   -1    0    0    0    0 -0.00000000000E+00 -0.00000000000E+00 -0.74505805969E-08  0.93827000000E+00  0.93827000000E+00 0.  1.
     999902    2    1    2    0    0  0.39264842753E-02  0.12468927509E-01 -0.51571323054E-02  0.10298769773E+01  0.10297810937E+01 0.  0.
     999903    2    3    3    0    0  0.43575213373E-01 -0.26300115501E-01 -0.12276721418E+00  0.14032248673E+00  0.45034610138E-01 0.  0.
         14    1    1    2    0    0 -0.39264842753E-02 -0.12468927509E-01  0.51571323054E-02  0.14053022650E-01  0.00000000000E+00 0.  1.
     999901    1    3    3    0    0 -0.39648729097E-01  0.38769043010E-01  0.11761008187E+00  0.88955449062E+00  0.88000000000E+00 0. -1.
        -11    1    4    4    0    0  0.46516451893E-01 -0.21899877527E-01 -0.67761563726E-01  0.85060423065E-01  0.51100000000E-03 0. -1.
         11    1    4    4    0    0 -0.29412385204E-02 -0.44002379741E-02 -0.55005650453E-01  0.55262063670E-01  0.51100000000E-03 0.  1.
</event>
<event>
 8    1  0.2123879E+004  0.1043930E+01  0.7957747E-01            NaN
         13   -1    0    0    0    0  0.00000000000E+00  0.00000000000E+00  0.74505805969E-08  0.10566000000E+00  0.10566000000E+00 0.  1.
     999900   -1    0    0    0    0 -0.00000000000E+00 -0.00000000000E+00 -0.74505805969E-08  0.93827000000E+00  0.93827000000E+00 0.  1.
     999902    2    1    2    0    0  0.29300043906E-02 -0.12335171224E-01  0.45432487813E-02  0.10304621685E+01  0.10303741545E+01 0.  0.
     999903    2    3    3    0    0 -0.91275249392E-01  0.55426461285E-01 -0.77019552026E-01  0.13910435085E+00  0.44885913914E-01 0.  0.
         14    1    1    2    0    0 -0.29300043906E-02  0.12335171224E-01 -0.45432487813E-02  0.13467831464E-01  0.00000000000E+00 0. -1.
     999901    1    3    3    0    0  0.94205253783E-01 -0.67761632509E-01  0.81562800807E-01  0.89135781769E+00  0.88000000000E+00 0. -1.
        -11    1    4    4    0    0 -0.74889796540E-01  0.26093047822E-01 -0.39047118026E-01  0.88398344541E-01  0.51100000000E-03 0.  1.
         11    1    4    4    0    0 -0.16385452853E-01  0.29333413463E-01 -0.37972434001E-01  0.50706006306E-01  0.51100000000E-03 0. -1.
</event>
<event>
 8    1  0.2123879E+004  0.1043930E+01  0.7957747E-01            NaN
         13   -1    0    0    0    0  0.00000000000E+00  0.00000000000E+00  0.74505805969E-08  0.10566000000E+00  0.10566000000E+00 0. -1.
     999900   -1    0    0    0    0 -0.00000000000E+00 -0.00000000000E+00 -0.74505805969E-08  0.93827000000E+00  0.93827000000E+00 0.  1.
     999902    2    1    2    0    0 -0.10345503499E-02  0.12882438089E-01  0.40094821316E-02  0.10303984276E+01  0.10303095729E+01 0.  0.
     999903    2    3    3    0    0  0.11329010871E+00  0.59274606080E-01 -0.36390968130E-01  0.14087352218E+00  0.46614579616E-01 0.  0.
         14    1    1    2    0    0  0.10345503499E-02 -0.12882438089E-01 -0.40094821316E-02  0.13531572433E-01  0.00000000000E+00 0.  1.
     999901    1    3    3    0    0 -0.11432465906E+00 -0.46392167991E-01  0.40400450262E-01  0.88952490539E+00  0.88000000000E+00 0.  1.
        -11    1    4    4    0    0  0.30728119962E-01  0.39978734695E-01 -0.59029718406E-02  0.50770294285E-01  0.51100000000E-03 0.  1.
         11    1    4    4    0    0  0.82561988749E-01  0.19295871385E-01 -0.30487996289E-01  0.90103227896E-01  0.51100000000E-03 0. -1.
</event>
<event>
 8    1  0.2123879E+004  0.1043930E+01  0.7957747E-01            NaN
         13   -1    0    0    0    0  0.00000000000E+00  0.00000000000E+00  0.74505805969E-08  0.10566000000E+00  0.10566000000E+00 0.  1.
     999900   -1    0    0    0    0 -0.00000000000E+00 -0.00000000000E+00 -0.74505805969E-08  0.93827000000E+00  0.93827000000E+00 0.  1.
     999902    2    1    2    0    0 -0.83021452935E-02 -0.10871807734E-01  0.29890537025E-03  0.10302474869E+01  0.10301566255E+01 0.  0.
     999903    2    3    3    0    0 -0.10630170420E+00  0.69166341766E-01  0.37439871012E-01  0.14042195893E+00  0.47249840834E-01 0.  0.
         14    1    1    2    0    0  0.83021452935E-02  0.10871807734E-01 -0.29890537025E-03  0.13682513084E-01  0.00000000000E+00 0. -1.
     999901    1    3    3    0    0  0.97999558911E-01 -0.80038149500E-01 -0.37140965642E-01  0.88982552798E+00  0.88000000000E+00 0.  1.
        -11    1    4    4    0    0 -0.17447849628E-01  0.24398222520E-01  0.27034243713E-01  0.40383315526E-01  0.51100000000E-03 0. -1.
         11    1    4    4    0    0 -0.88853854577E-01  0.44768119245E-01  0.10405627299E-01  0.10003864341E+00  0.51100000000E-03 0.  1.
</event>
<event>
 8    1  0.2123879E+004  0.1043930E+01  0.7957747E-01            NaN
         13   -1    0    0    0    0  0.00000000000E+00  0.00000000000E+00  0.74505805969E-08  0.10566000000E+00  0.10566000000E+00 0. -1.
     999900   -1    0    0    0    0 -0.00000000000E+00 -0.00000000000E+00 -0.74505805969E-08  0.93827000000E+00  0.93827000000E+00 0. -1.
     999902    2    1    2    0    0 -0.59434894655E-02  0.12688766374E-01  0.63830006073E-03  0.10299036931E+01  0.10298081762E+01 0.  0.
     999903    2    3    3    0    0 -0.11488450737E+00 -0.63693433648E-01  0.14788785449E-01  0.13978986771E+00  0.45466420731E-01 0.  0.
         14    1    1    2    0    0  0.59434894655E-02 -0.12688766374E-01 -0.63830006073E-03  0.14026306930E-01  0.00000000000E+00 0. -1.
     999901    1    3    3    0    0  0.10894101791E+00  0.76382200023E-01 -0.14150485388E-01  0.89011382536E+00  0.88000000000E+00 0.  1.
        -11    1    4    4    0    0 -0.67151763644E-01 -0.17372809864E-01  0.22278180851E-01  0.72854322769E-01  0.51100000000E-03 0. -1.
         11    1    4    4    0    0 -0.47732743731E-01 -0.46320623784E-01 -0.74893954020E-02  0.66935544939E-01  0.51100000000E-03 0.  1.
</event>
<event>
 8    1  0.2123879E+004  0.1043930E+01  0.7957747E-01            NaN
         13   -1    0    0    0    0  0.00000000000E+00  0.00000000000E+00  0.74505805969E-08  0.10566000000E+00  0.10566000000E+00 0.  1.
     999900   -1    0    0    0    0 -0.00000000000E+00 -0.00000000000E+00 -0.74505805969E-08  0.93827000000E+00  0.93827000000E+00 0. -1.
     999902    2    1    2    0    0 -0.91994757323E-02  0.19988854793E-02  0.10613585644E-01  0.10297428898E+01  0.10296451548E+01 0.  0.
     999903    2    3    3    0    0  0.13706697834E-01  0.27462730691E-01 -0.12708713210E+00  0.13837619312E+00  0.45329422380E-01 0.  0.
         14    1    1    2    0    0  0.91994757323E-02 -0.19988854793E-02 -0.10613585644E-01  0.14187110246E-01  0.00000000000E+00 0. -1.
     999901    1    3    3    0    0 -0.22906173566E-01 -0.25463845211E-01  0.13770071775E+00  0.89136669663E+00  0.88000000000E+00 0.  1.
        -11    1    4    4    0    0  0.15486078497E-01 -0.14064906417E-02 -0.90030845945E-01  0.91365262467E-01  0.51100000000E-03 0. -1.
         11    1    4    4    0    0 -0.17793806629E-02  0.28869221332E-01 -0.37056286160E-01  0.47010930653E-01  0.51100000000E-03 0.  1.
</event>
<event>
 8    1  0.2123879E+004  0.1043930E+01  0.7957747E-01            NaN
         13   -1    0    0    0    0  0.00000000000E+00  0.00000000000E+00  0.74505805969E-08  0.10566000000E+00  0.10566000000E+00 0. -1.
     999900   -1    0    0    0    0 -0.00000000000E+00 -0.00000000000E+00 -0.74505805969E-08  0.93827000000E+00  0.93827000000E+00 0.  1.
     999902    2    1    2    0    0  0.13921824685E-01 -0.17215897215E-01 -0.12216568880E-02  0.10217557635E+01  0.10215151215E+01 0.  0.
     999903    2    3    3    0    0 -0.11797620176E+00  0.17928548605E-01  0.29223723204E-01  0.13071191349E+00  0.44629152932E-01 0.  0.
         14    1    1    2    0    0 -0.13921824685E-01  0.17215897215E-01  0.12216568880E-02  0.22174236515E-01  0.00000000000E+00 0. -1.
     999901    1    3    3    0    0  0.13189802645E+00 -0.35144445820E-01 -0.30445380092E-01  0.89104385000E+00  0.88000000000E+00 0.  1.
        -11    1    4    4    0    0 -0.20173675316E-01  0.10808581968E-01 -0.10147669172E-01  0.25040745407E-01  0.51100000000E-03 0.  1.
         11    1    4    4    0    0 -0.97802526448E-01  0.71199666369E-02  0.39371392376E-01  0.10567116808E+00  0.51100000000E-03 0. -1.
</event>
<event>
 8    1  0.2123879E+004  0.1043930E+01  0.7957747E-01            NaN
         13   -1    0    0    0    0  0.00000000000E+00  0.00000000000E+00  0.74505805969E-08  0.10566000000E+00  0.10566000000E+00 0.  1.
     999900   -1    0    0    0    0 -0.00000000000E+00 -0.00000000000E+00 -0.74505805969E-08  0.93827000000E+00  0.93827000000E+00 0. -1.
     999902    2    1    2    0    0  0.13227769614E-01 -0.20566212729E-02  0.38968258325E-02  0.10299876605E+01  0.10298932915E+01 0.  0.
     999903    2    3    3    0    0 -0.68012500764E-01  0.67614100214E-01 -0.89024983279E-01  0.13864684262E+00  0.45827202746E-01 0.  0.
         14    1    1    2    0    0 -0.13227769614E-01  0.20566212729E-02 -0.38968258325E-02  0.13942339530E-01  0.00000000000E+00 0. -1.
     999901    1    3    3    0    0  0.81240270378E-01 -0.69670721487E-01  0.92921809111E-01  0.89134081785E+00  0.88000000000E+00 0.  1.
        -11    1    4    4    0    0 -0.77657304060E-02  0.21830265004E-02 -0.31968938439E-01  0.32974934714E-01  0.51100000000E-03 0. -1.
         11    1    4    4    0    0 -0.60246770358E-01  0.65431073714E-01 -0.57056044839E-01  0.10567190790E+00  0.51100000000E-03 0.  1.
</event>
<event>
 8    1  0.2123879E+004  0.1043930E+01  0.7957747E-01            NaN
         13   -1    0    0    0    0  0.00000000000E+00  0.00000000000E+00  0.74505805969E-08  0.10566000000E+00  0.10566000000E+00 0. -1.
     999900   -1    0    0    0    0 -0.00000000000E+00 -0.00000000000E+00 -0.74505805969E-08  0.93827000000E+00  0.93827000000E+00 0.  1.
     999902    2    1    2    0    0 -0.18369982723E-02  0.10475335259E-01  0.88897002961E-02  0.10300687597E+01  0.10299754928E+01 0.  0.
     999903    2    3    3    0    0  0.73492752454E-01 -0.58332626651E-01  0.93750915614E-01  0.14011902357E+00  0.45168867508E-01 0.  0.
         14    1    1    2    0    0  0.18369982723E-02 -0.10475335259E-01 -0.88897002961E-02  0.13861240305E-01  0.00000000000E+00 0.  1.
     999901    1    3    3    0    0 -0.75329750726E-01  0.68807961910E-01 -0.84861215318E-01  0.88994973613E+00  0.88000000000E+00 0.  1.
        -11    1    4    4    0    0  0.19381160809E-01 -0.36276087228E-01  0.19193528930E-01  0.45389828956E-01  0.51100000000E-03 0. -1.
         11    1    4    4    0    0  0.54111591645E-01 -0.22056539423E-01  0.74557386684E-01  0.94729194612E-01  0.51100000000E-03 0.  1.
</event>
<event>
 8    1  0.2123879E+004  0.1043930E+01  0.7957747E-01            NaN
         13   -1    0    0    0    0  0.00000000000E+00  0.00000000000E+00  0.74505805969E-08  0.10566000000E+00  0.10566000000E+00 0. -1.
     999900   -1    0    0    0    0 -0.00000000000E+00 -0.00000000000E+00 -0.74505805969E-08  0.93827000000E+00  0.93827000000E+00 0. -1.
     999902    2    1    2    0    0  0.12148513974E-01  0.44115587826E-02 -0.17801126302E-02  0.10308832746E+01  0.10308007125E+01 0.  0.
     999903    2    3    3    0    0  0.48935591999E-03  0.59404804557E-01  0.11966523675E+00  0.14076577341E+00  0.44340318009E-01 0.  0.
         14    1    1    2    0    0 -0.12148513974E-01 -0.44115587826E-02  0.17801126302E-02  0.13046725399E-01  0.00000000000E+00 0.  1.
     999901    1    3    3    0    0  0.11659158054E-01 -0.54993245775E-01 -0.12144534939E+00  0.89011750120E+00  0.88000000000E+00 0. -1.
        -11    1    4    4    0    0  0.17793827453E-01  0.25397704136E-01  0.29268769599E-01  0.42644878539E-01  0.51100000000E-03 0. -1.
         11    1    4    4    0    0 -0.17304471533E-01  0.34007100421E-01  0.90396467156E-01  0.98120894866E-01  0.51100000000E-03 0.  1.
</event>
<event>
 8    1  0.2123879E+004  0.1043930E+01  0.7957747E-01            NaN
         13   -1    0    0    0    0  0.00000000000E+00  0.00000000000E+00  0.74505805969E-08  0.10566000000E+00  0.10566000000E+00 0.  1.
     999900   -1    0    0    0    0 -0.00000000000E+00 -0.00000000000E+00 -0.74505805969E-08  0.93827000000E+00  0.93827000000E+00 0.  1.
     999902    2    1    2    0    0 -0.35813329005E-02 -0.19363745703E-02 -0.13412962567E-01  0.10299127586E+01  0.10298173660E+01 0.  0.
     999903    2    3    3    0    0 -0.11466915869E+00 -0.13339351461E-01 -0.67546078604E-01  0.14120531113E+00  0.45271546323E-01 0.  0.
         14    1    1    2    0    0  0.35813329005E-02  0.19363745703E-02  0.13412962567E-01  0.14017241406E-01  0.00000000000E+00 0.  1.
     999901    1    3    3    0    0  0.11108782579E+00  0.11402976891E-01  0.54133116037E-01  0.88870744746E+00  0.88000000000E+00 0. -1.
        -11    1    4    4    0    0 -0.64763618791E-01 -0.16255675083E-01 -0.61620462487E-01  0.90862070246E-01  0.51100000000E-03 0.  1.
         11    1    4    4    0    0 -0.49905539895E-01  0.29163236219E-02 -0.59256161166E-02  0.50343240888E-01  0.51100000000E-03 0. -1.
</event>
<event>
 8    1  0.2123879E+004  0.1043930E+01  0.7957747E-01            NaN
         13   -1    0    0    0    0  0.00000000000E+00  0.00000000000E+00  0.74505805969E-08  0.10566000000E+00  0.10566000000E+00 0. -1.
     999900   -1    0    0    0    0 -0.00000000000E+00 -0.00000000000E+00 -0.74505805969E-08  0.93827000000E+00  0.93827000000E+00 0. -1.
     999902    2    1    2    0    0 -0.21591553949E-02  0.18190726082E-02  0.13990532431E-01  0.10296574398E+01  0.10295585157E+01 0.  0.
     999903    2    3    3    0    0  0.93525076729E-01  0.16856564722E-01  0.93375549044E-01  0.14079098227E+00  0.45519487890E-01 0.  0.
         14    1    1    2    0    0  0.21591553949E-02 -0.18190726082E-02 -0.13990532431E-01  0.14272560207E-01  0.00000000000E+00 0.  1.
     999901    1    3    3    0    0 -0.95684232124E-01 -0.15037492114E-01 -0.79385016614E-01  0.88886645752E+00  0.88000000000E+00 0.  1.
        -11    1    4    4    0    0  0.48402771793E-01  0.20223470530E-01  0.75938438325E-01  0.92296937185E-01  0.51100000000E-03 0.  1.
         11    1    4    4    0    0  0.45122304936E-01 -0.33669058072E-02  0.17437110720E-01  0.48494045085E-01  0.51100000000E-03 0. -1.
</event>
<event>
 8    1  0.2123879E+004  0.1043930E+01  0.7957747E-01            NaN
         13   -1    0    0    0    0  0.00000000000E+00  0.00000000000E+00  0.74505805969E-08  0.10566000000E+00  0.10566000000E+00 0.  1.
     999900   -1    0    0    0    0 -0.00000000000E+00 -0.00000000000E+00 -0.74505805969E-08  0.93827000000E+00  0.93827000000E+00 0. -1.
     999902    2    1    2    0    0 -0.26356607481E-02  0.52649743014E-02 -0.11273680583E-01  0.10312114098E+01  0.10311329736E+01 0.  0.
     999903    2    3    3    0    0  0.12377026544E+00  0.32810444348E-01  0.35921258176E-01  0.14050125869E+00  0.45328391118E-01 0.  0.
         14    1    1    2    0    0  0.26356607481E-02 -0.52649743014E-02  0.11273680583E-01  0.12718590168E-01  0.00000000000E+00 0.  1.
     999901    1    3    3    0    0 -0.12640592618E+00 -0.27545470047E-01 -0.47194938758E-01  0.89071015114E+00  0.88000000000E+00 0.  1.
        -11    1    4    4    0    0  0.30029614932E-01  0.18674090121E-01  0.28479816637E-01  0.45407714008E-01  0.51100000000E-03 0. -1.
         11    1    4    4    0    0  0.93740650505E-01  0.14136354228E-01  0.74414415388E-02  0.95093544687E-01  0.51100000000E-03 0.  1.
</event>
<event>
 8    1  0.2123879E+004  0.1043930E+01  0.7957747E-01            NaN
         13   -1    0    0    0    0  0.00000000000E+00  0.00000000000E+00  0.74505805969E-08  0.10566000000E+00  0.10566000000E+00 0.  1.
     999900   -1    0    0    0    0 -0.00000000000E+00 -0.00000000000E+00 -0.74505805969E-08  0.93827000000E+00  0.93827000000E+00 0.  1.
     999902    2    1    2    0    0 -0.10587755123E-02  0.14044045003E-01  0.37087471570E-02  0.10293659686E+01  0.10292629335E+01 0.  0.
     999903    2    3    3    0    0  0.86220287547E-01 -0.52569147100E-01 -0.83109829343E-01  0.13830344696E+00  0.44979400805E-01 0.  0.
         14    1    1    2    0    0  0.10587755123E-02 -0.14044045003E-01 -0.37087471570E-02  0.14564031417E-01  0.00000000000E+00 0.  1.
     999901    1    3    3    0    0 -0.87279063060E-01  0.66613192103E-01  0.86818576500E-01  0.89106252162E+00  0.88000000000E+00 0. -1.
        -11    1    4    4    0    0  0.47062217694E-01 -0.22980049778E-01 -0.70136996964E-01  0.87535104308E-01  0.51100000000E-03 0.  1.
         11    1    4    4    0    0  0.39158069853E-01 -0.29589097323E-01 -0.12972832380E-01  0.50768342655E-01  0.51100000000E-03 0. -1.
</event>
<event>
 8    1  0.2123879E+004  0.1043930E+01  0.7957747E-01            NaN
         13   -1    0    0    0    0  0.00000000000E+00  0.00000000000E+00  0.74505805969E-08  0.10566000000E+00  0.10566000000E+00 0.  1.
     999900   -1    0    0    0    0 -0.00000000000E+00 -0.00000000000E+00 -0.74505805969E-08  0.93827000000E+00  0.93827000000E+00 0.  1.
     999902    2    1    2    0    0 -0.17778974331E-02  0.86210281821E-02 -0.10084732276E-01  0.10305440047E+01  0.10304570640E+01 0.  0.
     999903    2    3    3    0    0 -0.10947284347E+00  0.76857435735E-01 -0.89670028847E-03  0.14130903647E+00  0.45563920276E-01 0.  0.
         14    1    1    2    0    0  0.17778974331E-02 -0.86210281821E-02  0.10084732276E-01  0.13385995342E-01  0.00000000000E+00 0.  1.
     999901    1    3    3    0    0  0.10769494604E+00 -0.68236407553E-01 -0.91880319880E-02  0.88923496819E+00  0.88000000000E+00 0.  1.
        -11    1    4    4    0    0 -0.41769512402E-01  0.12168863365E-01 -0.16197723122E-01  0.46426293814E-01  0.51100000000E-03 0. -1.
         11    1    4    4    0    0 -0.67703331070E-01  0.64688572369E-01  0.15301022834E-01  0.94882742656E-01  0.51100000000E-03 0.  1.
</event>
<event>
 8    1  0.2123879E+004  0.1043930E+01  0.7957747E-01            NaN
         13   -1    0    0    0    0  0.00000000000E+00  0.00000000000E+00  0.74505805969E-08  0.10566000000E+00  0.10566000000E+00 0.  1.
     999900   -1    0    0    0    0 -0.00000000000E+00 -0.00000000000E+00 -0.74505805969E-08  0.93827000000E+00  0.93827000000E+00 0. -1.
     999902    2    1    2    0    0  0.40657600206E-02  0.11844133712E-01  0.75194860663E-02  0.10293232694E+01  0.10292196249E+01 0.  0.
     999903    2    3    3    0    0  0.59265692304E-01  0.20788343844E-01 -0.11625929799E+00  0.13890302098E+00  0.42816437788E-01 0.  0.
         14    1    1    2    0    0 -0.40657600206E-02 -0.11844133712E-01 -0.75194860663E-02  0.14606730594E-01  0.00000000000E+00 0. -1.
     999901    1    3    3    0    0 -0.55199932283E-01 -0.89442101323E-02  0.12377878406E+00  0.89042024842E+00  0.88000000000E+00 0.  1.
        -11    1    4    4    0    0  0.17747029177E-01  0.18507054908E-01 -0.79034065128E-01  0.83090990472E-01  0.51100000000E-03 0.  1.
         11    1    4    4    0    0  0.41518663127E-01  0.22812889360E-02 -0.37225232863E-01  0.55812030511E-01  0.51100000000E-03 0. -1.
</event>
<event>
 8    1  0.2123879E+004  0.1043930E+01  0.7957747E-01            NaN
         13   -1    0    0    0    0  0.00000000000E+00  0.00000000000E+00  0.74505805969E-08  0.10566000000E+00  0.10566000000E+00 0. -1.
     999900   -1    0    0    0    0 -0.00000000000E+00 -0.00000000000E+00 -0.74505805969E-08  0.93827000000E+00  0.93827000000E+00 0.  1.
     999902    2    1    2    0    0 -0.80051376724E-02  0.94178341964E-02  0.39091224612E-02  0.10309662402E+01  0.10308847314E+01 0.  0.
     999903    2    3    3    0    0  0.90016405947E-01 -0.80773028362E-01  0.52610221425E-01  0.13961086115E+00  0.45783421686E-01 0.  0.
         14    1    1    2    0    0  0.80051376724E-02 -0.94178341964E-02 -0.39091224612E-02  0.12963759814E-01  0.00000000000E+00 0.  1.
     999901    1    3    3    0    0 -0.98021543619E-01  0.90190862558E-01 -0.48701098964E-01  0.89135537904E+00  0.88000000000E+00 0.  1.
        -11    1    4    4    0    0  0.36729343879E-01 -0.55926496395E-02  0.15955252358E-01  0.40437032910E-01  0.51100000000E-03 0. -1.
         11    1    4    4    0    0  0.53287062068E-01 -0.75180378723E-01  0.36654969067E-01  0.99173828236E-01  0.51100000000E-03 0.  1.
</event>
<event>
 8    1  0.2123879E+004  0.1043930E+01  0.7957747E-01            NaN
         13   -1    0    0    0    0  0.00000000000E+00  0.00000000000E+00  0.74505805969E-08  0.10566000000E+00  0.10566000000E+00 0. -1.
     999900   -1    0    0    0    0 -0.00000000000E+00 -0.00000000000E+00 -0.74505805969E-08  0.93827000000E+00  0.93827000000E+00 0.  1.
     999902    2    1    2    0    0 -0.94193735861E-02  0.27949628900E-02 -0.96369384392E-02  0.10301674785E+01  0.10300755442E+01 0.  0.
     999903    2    3    3    0    0  0.95576796023E-01  0.88703806520E-01 -0.23323404414E-01  0.13966658325E+00  0.44266059834E-01 0.  0.
         14    1    1    2    0    0  0.94193735861E-02 -0.27949628900E-02  0.96369384392E-02  0.13762521527E-01  0.00000000000E+00 0. -1.
     999901    1    3    3    0    0 -0.10499616961E+00 -0.85908843630E-01  0.13686465975E-01  0.89050089523E+00  0.88000000000E+00 0. -1.
        -11    1    4    4    0    0  0.54852400923E-01  0.31452974346E-01  0.60354101152E-02  0.63519782576E-01  0.51100000000E-03 0.  1.
         11    1    4    4    0    0  0.40724395100E-01  0.57250832174E-01 -0.29358814529E-01  0.76146800672E-01  0.51100000000E-03 0. -1.
</event>
<event>
 8    1  0.2123879E+004  0.1043930E+01  0.7957747E-01            NaN
         13   -1    0    0    0    0  0.00000000000E+00  0.00000000000E+00  0.74505805969E-08  0.10566000000E+00  0.10566000000E+00 0.  1.
     999900   -1    0    0    0    0 -0.00000000000E+00 -0.00000000000E+00 -0.74505805969E-08  0.93827000000E+00  0.93827000000E+00 0. -1.
     999902    2    1    2    0    0 -0.11346026714E-01 -0.71606971795E-02 -0.43358467313E-02  0.10298300896E+01  0.10297335607E+01 0.  0.
     999903    2    3    3    0    0 -0.31445518885E-02 -0.11182361711E+00 -0.73316774328E-01  0.14090941858E+00  0.44336275170E-01 0.  0.
         14    1    1    2    0    0  0.11346026714E-01  0.71606971795E-02  0.43358467313E-02  0.14099910396E-01  0.00000000000E+00 0. -1.
     999901    1    3    3    0    0 -0.82014748258E-02  0.10466291994E+00  0.68980927597E-01  0.88892067102E+00  0.88000000000E+00 0.  1.
        -11    1    4    4    0    0  0.20620607351E-01 -0.54274360952E-01 -0.34659312822E-01  0.67619855003E-01  0.51100000000E-03 0. -1.
         11    1    4    4    0    0 -0.23765159239E-01 -0.57549256163E-01 -0.38657461506E-01  0.73289563579E-01  0.51100000000E-03 0.  1.
</event>
<event>
 8    1  0.2123879E+004  0.1043930E+01  0.7957747E-01            NaN
         13   -1    0    0    0    0  0.00000000000E+00  0.00000000000E+00  0.74505805969E-08  0.10566000000E+00  0.10566000000E+00 0.  1.
     999900   -1    0    0    0    0 -0.00000000000E+00 -0.00000000000E+00 -0.74505805969E-08  0.93827000000E+00  0.93827000000E+00 0. -1.
     999902    2    1    2    0    0  0.13197935809E-01  0.14194970631E-02 -0.86981896387E-02  0.10280599343E+01  0.10279374347E+01 0.  0.
     999903    2    3    3    0    0 -0.10934481584E+00  0.39810042453E-01 -0.57790094889E-01  0.13738570930E+00  0.44654337111E-01 0.  0.
         14    1    1    2    0    0 -0.13197935809E-01 -0.14194970631E-02  0.86981896387E-02  0.15870065675E-01  0.00000000000E+00 0. -1.
     999901    1    3    3    0    0  0.12254275165E+00 -0.38390545390E-01  0.49091905250E-01  0.89067422502E+00  0.88000000000E+00 0.  1.
        -11    1    4    4    0    0 -0.39415675109E-01  0.63542556109E-02  0.12407664913E-02  0.39947122939E-01  0.51100000000E-03 0. -1.
         11    1    4    4    0    0 -0.69929140729E-01  0.33455786842E-01 -0.59030861380E-01  0.97438586364E-01  0.51100000000E-03 0.  1.
</event>
<event>
 8    1  0.2123879E+004  0.1043930E+01  0.7957747E-01            NaN
         13   -1    0    0    0    0  0.00000000000E+00  0.00000000000E+00  0.74505805969E-08  0.10566000000E+00  0.10566000000E+00 0. -1.
     999900   -1    0    0    0    0 -0.00000000000E+00 -0.00000000000E+00 -0.74505805969E-08  0.93827000000E+00  0.93827000000E+00 0. -1.
     999902    2    1    2    0    0 -0.20961279056E-02 -0.13287962265E-01 -0.14564568829E-02  0.10303991109E+01  0.10303102653E+01 0.  0.
     999903    2    3    3    0    0 -0.54317968091E-01  0.76211703966E-01  0.92684187339E-01  0.13933246258E+00  0.45436891028E-01 0.  0.
         14    1    1    2    0    0  0.20961279056E-02  0.13287962265E-01  0.14564568829E-02  0.13530889106E-01  0.00000000000E+00 0.  1.
     999901    1    3    3    0    0  0.52221840185E-01 -0.89499666230E-01 -0.94140644222E-01  0.89106664832E+00  0.88000000000E+00 0. -1.
        -11    1    4    4    0    0 -0.46497338540E-01  0.37574554013E-01  0.75558677847E-01  0.96349491538E-01  0.51100000000E-03 0.  1.
         11    1    4    4    0    0 -0.78206295510E-02  0.38637149953E-01  0.17125509492E-01  0.42982971040E-01  0.51100000000E-03 0. -1.
</event>
<event>
 8    1  0.2123879E+004  0.1043930E+01  0.7957747E-01            NaN
         13   -1    0    0    0    0  0.00000000000E+00  0.00000000000E+00  0.74505805969E-08  0.10566000000E+00  0.10566000000E+00 0.  1.
     999900   -1    0    0    0    0 -0.00000000000E+00 -0.00000000000E+00 -0.74505805969E-08  0.93827000000E+00  0.93827000000E+00 0. -1.
     999902    2    1    2    0    0 -0.70999318863E-02  0.51436704800E-02 -0.10972755720E-01  0.10298847963E+01  0.10297890201E+01 0.  0.
     999903    2    3    3    0    0  0.92480590111E-01  0.81790419850E-01 -0.48525748736E-01  0.14016504726E+00  0.45267646911E-01 0.  0.
         14    1    1    2    0    0  0.70999318863E-02 -0.51436704800E-02  0.10972755720E-01  0.14045203697E-01  0.00000000000E+00 0.  1.
     999901    1    3    3    0    0 -0.99580521997E-01 -0.76646749370E-01  0.37552993016E-01  0.88971974904E+00  0.88000000000E+00 0.  1.
        -11    1    4    4    0    0  0.38550068444E-01  0.37051793683E-01 -0.45194246486E-01  0.70012314836E-01  0.51100000000E-03 0. -1.
         11    1    4    4    0    0  0.53930521667E-01  0.44738626166E-01 -0.33315022499E-02  0.70152732425E-01  0.51100000000E-03 0.  1.
</event>
<event>
 8    1  0.2123879E+004  0.1043930E+01  0.7957747E-01            NaN
         13   -1    0    0    0    0  0.00000000000E+00  0.00000000000E+00  0.74505805969E-08  0.10566000000E+00  0.10566000000E+00 0. -1.
     999900   -1    0    0    0    0 -0.00000000000E+00 -0.00000000000E+00 -0.74505805969E-08  0.93827000000E+00  0.93827000000E+00 0. -1.
     999902    2    1    2    0    0  0.90139364128E-02  0.98191935040E-02 -0.89449944027E-02  0.10278775692E+01  0.10277522156E+01 0.  0.
     999903    2    3    3    0    0 -0.57107609179E-01  0.11821623790E+00  0.36926743459E-02  0.13867473028E+00  0.44504910345E-01 0.  0.
         14    1    1    2    0    0 -0.90139364128E-02 -0.98191935040E-02  0.89449944027E-02  0.16052430831E-01  0.00000000000E+00 0. -1.
     999901    1    3    3    0    0  0.66121545592E-01 -0.10839704439E+00 -0.12637668749E-01  0.88920283889E+00  0.88000000000E+00 0. -1.
        -11    1    4    4    0    0 -0.40863211615E-01  0.35145450275E-01  0.37239549893E-02  0.54029007952E-01  0.51100000000E-03 0.  1.
         11    1    4    4    0    0 -0.16244397564E-01  0.83070787621E-01 -0.31280643445E-04  0.84645722323E-01  0.51100000000E-03 0. -1.
</event>
<event>
 8    1  0.2123879E+004  0.1043930E+01  0.7957747E-01            NaN
         13   -1    0    0    0    0  0.00000000000E+00  0.00000000000E+00  0.74505805969E-08  0.10566000000E+00  0.10566000000E+00 0. -1.
     999900   -1    0    0    0    0 -0.00000000000E+00 -0.00000000000E+00 -0.74505805969E-08  0.93827000000E+00  0.93827000000E+00 0. -1.
     999902    2    1    2    0    0  0.52739391713E-02 -0.59446103587E-02 -0.11018396377E-01  0.10303447917E+01  0.10302552265E+01 0.  0.
     999903    2    3    3    0    0  0.12619598160E+00  0.30277891331E-01 -0.31969944368E-01  0.14109051007E+00  0.45191572387E-01 0.  0.
         14    1    1    2    0    0 -0.52739391713E-02  0.59446103587E-02  0.11018396377E-01  0.13585208332E-01  0.00000000000E+00 0. -1.
     999901    1    3    3    0    0 -0.12092204243E+00 -0.36222501690E-01  0.20951547991E-01  0.88925428160E+00  0.88000000000E+00 0.  1.
        -11    1    4    4    0    0  0.66041860083E-01  0.38901138817E-01 -0.17663632191E-01  0.78658063208E-01  0.51100000000E-03 0. -1.
         11    1    4    4    0    0  0.60154121515E-01 -0.86232474853E-02 -0.14306312177E-01  0.62432446865E-01  0.51100000000E-03 0.  1.
</event>
<event>
 8    1  0.2123879E+004  0.1043930E+01  0.7957747E-01            NaN
         13   -1    0    0    0    0  0.00000000000E+00  0.00000000000E+00  0.74505805969E-08  0.10566000000E+00  0.10566000000E+00 0.  1.
     999900   -1    0    0    0    0 -0.00000000000E+00 -0.00000000000E+00 -0.74505805969E-08  0.93827000000E+00  0.93827000000E+00 0.  1.
     999902    2    1    2    0    0 -0.63520295526E-03  0.59284529538E-02  0.13338096379E-01  0.10293199058E+01  0.10292162133E+01 0.  0.
     999903    2    3    3    0    0  0.79127140742E-01 -0.58655154640E-01  0.88842902536E-01  0.14014385485E+00  0.45229494299E-01 0.  0.
         14    1    1    2    0    0  0.63520295526E-03 -0.59284529538E-02 -0.13338096379E-01  0.14610094190E-01  0.00000000000E+00 0. -1.
     999901    1    3    3    0    0 -0.79762343697E-01  0.64583607593E-01 -0.75504806157E-01  0.88917605096E+00  0.88000000000E+00 0.  1.
        -11    1    4    4    0    0  0.92078270410E-02  0.34887257362E-02  0.25039614304E-01  0.26910939998E-01  0.51100000000E-03 0.  1.
         11    1    4    4    0    0  0.69919313701E-01 -0.62143880376E-01  0.63803288231E-01  0.11323291486E+00  0.51100000000E-03 0. -1.
</event>
<event>
 8    1  0.2123879E+004  0.1043930E+01  0.7957747E-01            NaN
         13   -1    0    0    0    0  0.00000000000E+00  0.00000000000E+00  0.74505805969E-08  0.10566000000E+00  0.10566000000E+00 0.  1.
     999900   -1    0    0    0    0 -0.00000000000E+00 -0.00000000000E+00 -0.74505805969E-08  0.93827000000E+00  0.93827000000E+00 0. -1.
     999902    2    1    2    0    0  0.11385552381E-01 -0.71730581143E-02 -0.23424165018E-02  0.10302709195E+01  0.10301803711E+01 0.  0.
     999903    2    3    3    0    0  0.10638804586E+00 -0.80835597981E-01 -0.15238814222E-01  0.14200408984E+00  0.45608440793E-01 0.  0.
         14    1    1    2    0    0 -0.11385552381E-01  0.71730581143E-02  0.23424165018E-02  0.13659080525E-01  0.00000000000E+00 0. -1.
     999901    1    3    3    0    0 -0.95002493476E-01  0.73662539867E-01  0.12896397720E-01  0.88826682963E+00  0.88000000000E+00 0. -1.
        -11    1    4    4    0    0  0.16419506654E-01 -0.66893099974E-02  0.13067542810E-01  0.22031088559E-01  0.51100000000E-03 0. -1.
         11    1    4    4    0    0  0.89968539203E-01 -0.74146287983E-01 -0.28306357032E-01  0.11997300129E+00  0.51100000000E-03 0.  1.
</event>
<event>
 8    1  0.2123879E+004  0.1043930E+01  0.7957747E-01            NaN
         13   -1    0    0    0    0  0.00000000000E+00  0.00000000000E+00  0.74505805969E-08  0.10566000000E+00  0.10566000000E+00 0.  1.
     999900   -1    0    0    0    0 -0.00000000000E+00 -0.00000000000E+00 -0.74505805969E-08  0.93827000000E+00  0.93827000000E+00 0. -1.
     999902    2    1    2    0    0  0.54440151845E-03 -0.13099698126E-01  0.13329773446E-02  0.10307514078E+01  0.10306671574E+01 0.  0.
     999903    2    3    3    0    0  0.49952759667E-01 -0.10162891651E+00  0.72967618643E-01  0.14203878259E+00  0.45022522365E-01 0.  0.
         14    1    1    2    0    0 -0.54440151845E-03  0.13099698126E-01 -0.13329773446E-02  0.13178592208E-01  0.00000000000E+00 0.  1.
     999901    1    3    3    0    0 -0.49408358148E-01  0.88529218381E-01 -0.71634641298E-01  0.88871262520E+00  0.88000000000E+00 0. -1.
        -11    1    4    4    0    0  0.47602505583E-01 -0.46608758264E-01  0.36227826985E-01  0.75835950932E-01  0.51100000000E-03 0. -1.
         11    1    4    4    0    0  0.23502540842E-02 -0.55020158242E-01  0.36739791657E-01  0.66202831656E-01  0.51100000000E-03 0.  1.
</event>
<event>
 7    1  0.2123879E+004  0.1043930E+01  0.7957747E-01            NaN
         13   -1    0    0    0    0  0.00000000000E+00  0.00000000000E+00  0.74505805969E-08  0.10566000000E+00  0.10566000000E+00 0. -1.
     999900   -1    0    0    0    0 -0.00000000000E+00 -0.00000000000E+00 -0.74505805969E-08  0.93827000000E+00  0.93827000000E+00 0.  1.
     999903    2    1    2    0    0 -0.48951801445E-01  0.63706162665E-01  0.90515769641E-01  0.12907939878E+00  0.44873517910E-01 0.  0.
         14    1    1    2    0    0  0.49127731525E-02 -0.21717561605E-01 -0.20009620877E-01  0.29936144537E-01  0.00000000000E+00 0.  1.
     999901    1    1    2    0    0  0.44039028293E-01 -0.41988601060E-01 -0.70506148764E-01  0.88491445668E+00  0.88000000000E+00 0.  1.
        -11    1    3    3    0    0 -0.41532515166E-01  0.54604929723E-01  0.44946640293E-01  0.82018959764E-01  0.51100000000E-03 0. -1.
         11    1    3    3    0    0 -0.74192862793E-02  0.91012329426E-02  0.45569129348E-01  0.47060439017E-01  0.51100000000E-03 0.  1.
</event>
<event>
 8    1  0.2123879E+004  0.1043930E+01  0.7957747E-01            NaN
         13   -1    0    0    0    0  0.00000000000E+00  0.00000000000E+00  0.74505805969E-08  0.10566000000E+00  0.10566000000E+00 0.  1.
     999900   -1    0    0    0    0 -0.00000000000E+00 -0.00000000000E+00 -0.74505805969E-08  0.93827000000E+00  0.93827000000E+00 0.  1.
     999902    2    1    2    0    0  0.21357457546E-02  0.12473310515E-01  0.54624159618E-02  0.10301465725E+01  0.10300543568E+01 0.  0.
     999903    2    3    3    0    0 -0.10921462822E+00  0.86090614782E-02 -0.74361056596E-01  0.13953687968E+00  0.44034339948E-01 0.  0.
         14    1    1    2    0    0 -0.21357457546E-02 -0.12473310515E-01 -0.54624159618E-02  0.13783427487E-01  0.00000000000E+00 0. -1.
     999901    1    3    3    0    0  0.11135037398E+00  0.38642490371E-02  0.79823472557E-01  0.89060969284E+00  0.88000000000E+00 0. -1.
        -11    1    4    4    0    0 -0.10168979541E+00  0.52922185697E-02 -0.49259248817E-01  0.11311744686E+00  0.51100000000E-03 0.  1.
         11    1    4    4    0    0 -0.75248328076E-02  0.33168429086E-02 -0.25101807779E-01  0.26419432818E-01  0.51100000000E-03 0. -1.
</event>
<event>
 8    1  0.2123879E+004  0.1043930E+01  0.7957747E-01            NaN
         13   -1    0    0    0    0  0.00000000000E+00  0.00000000000E+00  0.74505805969E-08  0.10566000000E+00  0.10566000000E+00 0.  1.
     999900   -1    0    0    0    0 -0.00000000000E+00 -0.00000000000E+00 -0.74505805969E-08  0.93827000000E+00  0.93827000000E+00 0. -1.
     999902    2    1    2    0    0 -0.97332933138E-02 -0.10158878986E-01 -0.58705897010E-03  0.10298486485E+01  0.10297523753E+01 0.  0.
     999903    2    3    3    0    0  0.13257674983E+00  0.52950795277E-02  0.14819831213E-01  0.13814895386E+00  0.35508781902E-01 0.  0.
         14    1    1    2    0    0  0.97332933138E-02  0.10158878986E-01  0.58705897010E-03  0.14081351470E-01  0.00000000000E+00 0. -1.
     999901    1    3    3    0    0 -0.14231004314E+00 -0.15453958513E-01 -0.15406890183E-01  0.89169969467E+00  0.88000000000E+00 0.  1.
        -11    1    4    4    0    0  0.40181212316E-01  0.13800354376E-01 -0.63958118414E-02  0.42966814337E-01  0.51100000000E-03 0.  1.
         11    1    4    4    0    0  0.92395537514E-01 -0.85052748481E-02  0.21215643054E-01  0.95182139522E-01  0.51100000000E-03 0. -1.
</event>
<event>
 8    1  0.2123879E+004  0.1043930E+01  0.7957747E-01            NaN
         13   -1    0    0    0    0  0.00000000000E+00  0.00000000000E+00  0.74505805969E-08  0.10566000000E+00  0.10566000000E+00 0. -1.
     999900   -1    0    0    0    0 -0.00000000000E+00 -0.00000000000E+00 -0.74505805969E-08  0.93827000000E+00  0.93827000000E+00 0. -1.
     999902    2    1    2    0    0  0.14348415971E-01  0.62552362277E-02 -0.56142454202E-02  0.10273009660E+01  0.10271663691E+01 0.  0.
     999903    2    3    3    0    0 -0.12040196794E-01  0.10637829940E+00 -0.75313720325E-01  0.13849333579E+00  0.45243106279E-01 0.  0.
         14    1    1    2    0    0 -0.14348415971E-01 -0.62552362277E-02  0.56142454202E-02  0.16629034031E-01  0.00000000000E+00 0. -1.
     999901    1    3    3    0    0  0.26388612766E-01 -0.10012306318E+00  0.69699474905E-01  0.88880763018E+00  0.88000000000E+00 0. -1.
        -11    1    4    4    0    0 -0.22808287651E-01  0.44821238444E-01 -0.17195904205E-01  0.53151873379E-01  0.51100000000E-03 0. -1.
         11    1    4    4    0    0  0.10768090857E-01  0.61557060961E-01 -0.58117816120E-01  0.85341462411E-01  0.51100000000E-03 0.  1.
</event>
<event>
 8    1  0.2123879E+004  0.1043930E+01  0.7957747E-01            NaN
         13   -1    0    0    0    0  0.00000000000E+00  0.00000000000E+00  0.74505805969E-08  0.10566000000E+00  0.10566000000E+00 0. -1.
     999900   -1    0    0    0    0 -0.00000000000E+00 -0.00000000000E+00 -0.74505805969E-08  0.93827000000E+00  0.93827000000E+00 0.  1.
     999902    2    1    2    0    0 -0.40693668465E-02  0.51660287115E-02 -0.12314446227E-01  0.10299695851E+01  0.10298749696E+01 0.  0.
     999903    2    3    3    0    0  0.12222935434E+00  0.20945159491E-01 -0.46970903042E-01  0.14013734361E+00  0.45315500370E-01 0.  0.
         14    1    1    2    0    0  0.40693668465E-02 -0.51660287115E-02  0.12314446227E-01  0.13960414931E-01  0.00000000000E+00 0. -1.
     999901    1    3    3    0    0 -0.12629872118E+00 -0.15779130780E-01  0.34656456815E-01  0.88983224146E+00  0.88000000000E+00 0. -1.
        -11    1    4    4    0    0  0.10705209857E+00  0.25340369957E-01 -0.54333905131E-01  0.12269767938E+00  0.51100000000E-03 0. -1.
         11    1    4    4    0    0  0.15177255769E-01 -0.43952104655E-02  0.73630020891E-02  0.17439664231E-01  0.51100000000E-03 0.  1.
</event>
<event>
 8    1  0.2123879E+004  0.1043930E+01  0.7957747E-01            NaN
         13   -1    0    0    0    0  0.00000000000E+00  0.00000000000E+00  0.74505805969E-08  0.10566000000E+00  0.10566000000E+00 0. -1.
     999900   -1    0    0    0    0 -0.00000000000E+00 -0.00000000000E+00 -0.74505805969E-08  0.93827000000E+00  0.93827000000E+00 0.  1.
     999902    2    1    2    0    0  0.13320341292E-01 -0.44992646814E-02  0.13918614622E-02  0.10298015835E+01  0.10297046612E+01 0.  0.
     999903    2    3    3    0    0 -0.17127535470E-01 -0.10308729013E+00  0.81920773961E-01  0.14012097916E+00  0.44749678626E-01 0.  0.
         14    1    1    2    0    0 -0.13320341292E-01  0.44992646814E-02 -0.13918614622E-02  0.14128416512E-01  0.00000000000E+00 0. -1.
     999901    1    3    3    0    0  0.30447876762E-01  0.98588025452E-01 -0.80528912499E-01  0.88968060432E+00  0.88000000000E+00 0. -1.
        -11    1    4    4    0    0  0.15113005293E-01 -0.36452918261E-01  0.32363801653E-01  0.51038171570E-01  0.51100000000E-03 0.  1.
         11    1    4    4    0    0 -0.32240540763E-01 -0.66634371872E-01  0.49556972308E-01  0.89082807594E-01  0.51100000000E-03 0. -1.
</event>
<event>
 8    1  0.2123879E+004  0.1043930E+01  0.7957747E-01            NaN
         13   -1    0    0    0    0  0.00000000000E+00  0.00000000000E+00  0.74505805969E-08  0.10566000000E+00  0.10566000000E+00 0.  1.
     999900   -1    0    0    0    0 -0.00000000000E+00 -0.00000000000E+00 -0.74505805969E-08  0.93827000000E+00  0.93827000000E+00 0.  1.
     999902    2    1    2    0    0 -0.74462808296E-04  0.11577055475E-01 -0.81585250278E-02  0.10297668334E+01  0.10296694304E+01 0.  0.
     999903    2    3    3    0    0  0.11194323257E+00 -0.33009096485E-01  0.60693106087E-01  0.13888163531E+00  0.44537262293E-01 0.  0.
         14    1    1    2    0    0  0.74462808296E-04 -0.11577055475E-01  0.81585250278E-02  0.14163166623E-01  0.00000000000E+00 0.  1.
     999901    1    3    3    0    0 -0.11201769537E+00  0.44586151960E-01 -0.68851631115E-01  0.89088519806E+00  0.88000000000E+00 0.  1.
        -11    1    4    4    0    0  0.41172710492E-01  0.32984323921E-02  0.38093593489E-01  0.56191233581E-01  0.51100000000E-03 0. -1.
         11    1    4    4    0    0  0.70770522074E-01 -0.36307528877E-01  0.22599512598E-01  0.82690401731E-01  0.51100000000E-03 0.  1.
</event>
<event>
 8    1  0.2123879E+004  0.1043930E+01  0.7957747E-01            NaN
         13   -1    0    0    0    0  0.00000000000E+00  0.00000000000E+00  0.74505805969E-08  0.10566000000E+00  0.10566000000E+00 0.  1.
     999900   -1    0    0    0    0 -0.00000000000E+00 -0.00000000000E+00 -0.74505805969E-08  0.93827000000E+00  0.93827000000E+00 0. -1.
     999902    2    1    2    0    0 -0.60004631838E-02  0.12112592854E-01 -0.25499592067E-02  0.10301741737E+01  0.10300823295E+01 0.  0.
     999903    2    3    3    0    0 -0.71771725416E-01 -0.10973805083E+00 -0.16542099781E-01  0.13923690418E+00  0.43813856821E-01 0.  0.
         14    1    1    2    0    0  0.60004631838E-02 -0.12112592854E-01  0.25499592067E-02  0.13755826257E-01  0.00000000000E+00 0.  1.
     999901    1    3    3    0    0  0.65771262232E-01  0.12185064369E+00  0.13992140575E-01  0.89093726957E+00  0.88000000000E+00 0.  1.
        -11    1    4    4    0    0 -0.41447294532E-01 -0.47101506577E-01  0.12242119074E-01  0.63926213296E-01  0.51100000000E-03 0.  1.
         11    1    4    4    0    0 -0.30324430883E-01 -0.62636544258E-01 -0.28784218856E-01  0.75310690882E-01  0.51100000000E-03 0. -1.
</event>
<event>
 8    1  0.2123879E+004  0.1043930E+01  0.7957747E-01            NaN
         13   -1    0    0    0    0  0.00000000000E+00  0.00000000000E+00  0.74505805969E-08  0.10566000000E+00  0.10566000000E+00 0.  1.
     999900   -1    0    0    0    0 -0.00000000000E+00 -0.00000000000E+00 -0.74505805969E-08  0.93827000000E+00  0.93827000000E+00 0. -1.
     999902    2    1    2    0    0 -0.50263255314E-02 -0.12236241301E-01  0.32996007769E-03  0.10306975239E+01  0.10306125787E+01 0.  0.
     999903    2    3    3    0    0 -0.55442918086E-01  0.11021518590E+00 -0.47323068963E-01  0.13951460442E+00  0.44761005589E-01 0.  0.
         14    1    1    2    0    0  0.50263255314E-02  0.12236241301E-01 -0.32996007769E-03  0.13232476079E-01  0.00000000000E+00 0. -1.
     999901    1    3    3    0    0  0.50416592555E-01 -0.12245142721E+00  0.47653029040E-01  0.89118291950E+00  0.88000000000E+00 0. -1.
        -11    1    4    4    0    0 -0.14786354007E-01  0.36905932790E-01 -0.38288457276E-01  0.55199195841E-01  0.51100000000E-03 0.  1.
         11    1    4    4    0    0 -0.40656564079E-01  0.73309253114E-01 -0.90346116862E-02  0.84315408581E-01  0.51100000000E-03 0. -1.
</event>
<event>
 8    1  0.2123879E+004  0.1043930E+01  0.7957747E-01            NaN
         13   -1    0    0    0    0  0.00000000000E+00  0.00000000000E+00  0.74505805969E-08  0.10566000000E+00  0.10566000000E+00 0. -1.
     999900   -1    0    0    0    0 -0.00000000000E+00 -0.00000000000E+00 -0.74505805969E-08  0.93827000000E+00  0.93827000000E+00 0.  1.
     999902    2    1    2    0    0  0.17606153121E-02 -0.98372241895E-02  0.31187417977E-02  0.10334611273E+01  0.10334081015E+01 0.  0.
     999903    2    3    3    0    0  0.13131117042E+00 -0.28889259146E-01 -0.15500747775E-01  0.14357742039E+00  0.47926920344E-01 0.  0.
         14    1    1    2    0    0 -0.17606153121E-02  0.98372241895E-02 -0.31187417977E-02  0.10468872739E-01  0.00000000000E+00 0. -1.
     999901    1    3    3    0    0 -0.12955055510E+00  0.19052034957E-01  0.18619489573E-01  0.88988370687E+00  0.88000000000E+00 0.  1.
        -11    1    4    4    0    0  0.37935424086E-01  0.72287051169E-02  0.10720654243E-01  0.40081718110E-01  0.51100000000E-03 0.  1.
         11    1    4    4    0    0  0.93375746331E-01 -0.36117964263E-01 -0.26221402018E-01  0.10349570228E+00  0.51100000000E-03 0. -1.
</event>
<event>
 8    1  0.2123879E+004  0.1043930E+01  0.7957747E-01            NaN
         13   -1    0    0    0    0  0.00000000000E+00  0.00000000000E+00  0.74505805969E-08  0.10566000000E+00  0.10566000000E+00 0. -1.
     999900   -1    0    0    0    0 -0.00000000000E+00 -0.00000000000E+00 -0.74505805969E-08  0.93827000000E+00  0.93827000000E+00 0. -1.
     999902    2    1    2    0    0  0.60689152821E-02  0.11042985540E-01 -0.40756963934E-02  0.10306864898E+01  0.10306014019E+01 0.  0.
     999903    2    3    3    0    0  0.12688847787E+00 -0.61606830319E-02  0.41724141512E-01  0.14108491711E+00  0.45004555538E-01 0.  0.
         14    1    1    2    0    0 -0.60689152821E-02 -0.11042985540E-01  0.40756963934E-02  0.13243510238E-01  0.00000000000E+00 0. -1.
     999901    1    3    3    0    0 -0.12081956259E+00  0.17203668572E-01 -0.45799837906E-01  0.88960157265E+00  0.88000000000E+00 0. -1.
        -11    1    4    4    0    0  0.76375978007E-01  0.18326297906E-01  0.26888453476E-01  0.83020438825E-01  0.51100000000E-03 0.  1.
         11    1    4    4    0    0  0.50512499862E-01 -0.24486980938E-01  0.14835688036E-01  0.58064478283E-01  0.51100000000E-03 0. -1.
</event>
<event>
 8    1  0.2123879E+004  0.1043930E+01  0.7957747E-01            NaN
         13   -1    0    0    0    0  0.00000000000E+00  0.00000000000E+00  0.74505805969E-08  0.10566000000E+00  0.10566000000E+00 0. -1.
     999900   -1    0    0    0    0 -0.00000000000E+00 -0.00000000000E+00 -0.74505805969E-08  0.93827000000E+00  0.93827000000E+00 0.  1.
     999902    2    1    2    0    0  0.10374659109E-01  0.12539209784E-02 -0.91992214072E-02  0.10300076603E+01  0.10299135637E+01 0.  0.
     999903    2    3    3    0    0 -0.12796278854E-01 -0.30097305651E-01 -0.12959592670E+00  0.14095470434E+00  0.44760829947E-01 0.  0.
         14    1    1    2    0    0 -0.10374659109E-01 -0.12539209784E-02  0.91992214072E-02  0.13922339744E-01  0.00000000000E+00 0. -1.
     999901    1    3    3    0    0  0.23170937963E-01  0.31351226630E-01  0.12039670530E+00  0.88905295592E+00  0.88000000000E+00 0. -1.
        -11    1    4    4    0    0 -0.22272317057E-01  0.52264953685E-03 -0.67318934281E-01  0.70911418710E-01  0.51100000000E-03 0. -1.
         11    1    4    4    0    0  0.94760382034E-02 -0.30619955188E-01 -0.62276992422E-01  0.70043285630E-01  0.51100000000E-03 0.  1.
</event>
<event>
 8    1  0.2123879E+004  0.1043930E+01  0.7957747E-01            NaN
         13   -1    0    0    0    0  0.00000000000E+00  0.00000000000E+00  0.74505805969E-08  0.10566000000E+00  0.10566000000E+00 0. -1.
     999900   -1    0    0    0    0 -0.00000000000E+00 -0.00000000000E+00 -0.74505805969E-08  0.93827000000E+00  0.93827000000E+00 0. -1.
     999902    2    1    2    0    0  0.12958426705E-01 -0.57867299724E-02  0.25261672555E-02  0.10295151262E+01  0.10294142055E+01 0.  0.
     999903    2    3    3    0    0  0.17318868238E-01 -0.13146593629E+00  0.13346105078E-01  0.14050930650E+00  0.44514167312E-01 0.  0.
         14    1    1    2    0    0 -0.12958426705E-01  0.57867299724E-02 -0.25261672555E-02  0.14414873827E-01  0.00000000000E+00 0. -1.
     999901    1    3    3    0    0 -0.43604415329E-02  0.12567920632E+00 -0.10819937822E-01  0.88900581967E+00  0.88000000000E+00 0.  1.
        -11    1    4    4    0    0 -0.60289040167E-02 -0.67338669278E-01  0.23359014166E-01  0.71531452715E-01  0.51100000000E-03 0. -1.
         11    1    4    4    0    0  0.23347772255E-01 -0.64127267013E-01 -0.10012909088E-01  0.68977853788E-01  0.51100000000E-03 0.  1.
</event>
<event>
 8    1  0.2123879E+004  0.1043930E+01  0.7957747E-01            NaN
         13   -1    0    0    0    0  0.00000000000E+00  0.00000000000E+00  0.74505805969E-08  0.10566000000E+00  0.10566000000E+00 0. -1.
     999900   -1    0    0    0    0 -0.00000000000E+00 -0.00000000000E+00 -0.74505805969E-08  0.93827000000E+00  0.93827000000E+00 0.  1.
     999902    2    1    2    0    0 -0.75718184890E-02  0.16522474502E-02  0.11069463634E-01  0.10304172141E+01  0.10303286077E+01 0.  0.
     999903    2    3    3    0    0 -0.46460841157E-02 -0.10686533115E+00  0.80126801380E-01  0.14106152562E+00  0.45124988772E-01 0.  0.
         14    1    1    2    0    0  0.75718184890E-02 -0.16522474502E-02 -0.11069463634E-01  0.13512785871E-01  0.00000000000E+00 0.  1.
     999901    1    3    3    0    0 -0.29257343733E-02  0.10851757860E+00 -0.69057337746E-01  0.88935568851E+00  0.88000000000E+00 0.  1.
        -11    1    4    4    0    0 -0.69860396117E-02 -0.46990748519E-01  0.62679714037E-01  0.78650765213E-01  0.51100000000E-03 0.  1.
         11    1    4    4    0    0  0.23399554960E-02 -0.59874582630E-01  0.17447087343E-01  0.62410760407E-01  0.51100000000E-03 0. -1.
</event>
<event>
 8    1  0.2123879E+004  0.1043930E+01  0.7957747E-01            NaN
         13   -1    0    0    0    0  0.00000000000E+00  0.00000000000E+00  0.74505805969E-08  0.10566000000E+00  0.10566000000E+00 0. -1.
     999900   -1    0    0    0    0 -0.00000000000E+00 -0.00000000000E+00 -0.74505805969E-08  0.93827000000E+00  0.93827000000E+00 0. -1.
     999902    2    1    2    0    0 -0.66261931742E-02 -0.38486757229E-02 -0.10895915913E-01  0.10306093497E+01  0.10305232612E+01 0.  0.
     999903    2    3    3    0    0 -0.62594092505E-01 -0.11384230687E+00  0.30654166600E-01  0.14102663067E+00  0.45505399416E-01 0.  0.
         14    1    1    2    0    0  0.66261931742E-02  0.38486757229E-02  0.10895915913E-01  0.13320650299E-01  0.00000000000E+00 0. -1.
     999901    1    3    3    0    0  0.55967899330E-01  0.10999363115E+00 -0.41550082513E-01  0.88958271904E+00  0.88000000000E+00 0. -1.
        -11    1    4    4    0    0 -0.12424901375E-01 -0.33607072588E-01  0.29459138800E-01  0.46388743052E-01  0.51100000000E-03 0. -1.
         11    1    4    4    0    0 -0.50169191129E-01 -0.80235234287E-01  0.11950278004E-02  0.94637887614E-01  0.51100000000E-03 0.  1.
</event>
<event>
 8    1  0.2123879E+004  0.1043930E+01  0.7957747E-01            NaN
         13   -1    0    0    0    0  0.00000000000E+00  0.00000000000E+00  0.74505805969E-08  0.10566000000E+00  0.10566000000E+00 0. -1.
     999900   -1    0    0    0    0 -0.00000000000E+00 -0.00000000000E+00 -0.74505805969E-08  0.93827000000E+00  0.93827000000E+00 0. -1.
     999902    2    1    2    0    0  0.12817829554E-01 -0.34410784275E-02  0.32597303956E-02  0.10302638514E+01  0.10301732087E+01 0.  0.
     999903    2    3    3    0    0 -0.90662971358E-01 -0.90527768851E-01  0.31490194294E-01  0.13948367263E+00  0.45266005839E-01 0.  0.
         14    1    1    2    0    0 -0.12817829554E-01  0.34410784275E-02 -0.32597303956E-02  0.13666148597E-01  0.00000000000E+00 0. -1.
     999901    1    3    3    0    0  0.10348080091E+00  0.87086690423E-01 -0.28230463899E-01  0.89078017877E+00  0.88000000000E+00 0. -1.
        -11    1    4    4    0    0 -0.32649101352E-01 -0.89603058656E-02  0.18397586307E-01  0.38535479797E-01  0.51100000000E-03 0.  1.
         11    1    4    4    0    0 -0.58013870006E-01 -0.81567462985E-01  0.13092607988E-01  0.10094819283E+00  0.51100000000E-03 0. -1.
</event>
<event>
 8    1  0.2123879E+004  0.1043930E+01  0.7957747E-01            NaN
         13   -1    0    0    0    0  0.00000000000E+00  0.00000000000E+00  0.74505805969E-08  0.10566000000E+00  0.10566000000E+00 0.  1.
     999900   -1    0    0    0    0 -0.00000000000E+00 -0.00000000000E+00 -0.74505805969E-08  0.93827000000E+00  0.93827000000E+00 0.  1.
     999902    2    1    2    0    0  0.12364221519E-01 -0.21841763510E-02  0.38120674978E-02  0.10308083973E+01  0.10307248786E+01 0.  0.
     999903    2    3    3    0    0 -0.46497282215E-01 -0.12355230766E+00  0.13646853452E-01  0.14047608686E+00  0.46044808467E-01 0.  0.
         14    1    1    2    0    0 -0.12364221519E-01  0.21841763510E-02 -0.38120674978E-02  0.13121602749E-01  0.00000000000E+00 0. -1.
     999901    1    3    3    0    0  0.58861503734E-01  0.12136813131E+00 -0.98347859546E-02  0.89033231040E+00  0.88000000000E+00 0.  1.
        -11    1    4    4    0    0 -0.60763750208E-03 -0.63052359083E-01  0.13751658147E-01  0.64539433155E-01  0.51100000000E-03 0. -1.
         11    1    4    4    0    0 -0.45889644713E-01 -0.60499948580E-01 -0.10480469431E-03  0.75936653700E-01  0.51100000000E-03 0.  1.
</event>
<event>
 8    1  0.2123879E+004  0.1043930E+01  0.7957747E-01            NaN
         13   -1    0    0    0    0  0.00000000000E+00  0.00000000000E+00  0.74505805969E-08  0.10566000000E+00  0.10566000000E+00 0.  1.
     999900   -1    0    0    0    0 -0.00000000000E+00 -0.00000000000E+00 -0.74505805969E-08  0.93827000000E+00  0.93827000000E+00 0.  1.
     999902    2    1    2    0    0  0.11428279246E-01  0.71833793430E-02 -0.10040074481E-02  0.10303943236E+01  0.10303054147E+01 0.  0.
     999903    2    3    3    0    0 -0.33220185410E-01 -0.12174379047E+00 -0.37650714956E-01  0.13912630458E+00  0.44871160587E-01 0.  0.
         14    1    1    2    0    0 -0.11428279246E-01 -0.71833793430E-02  0.10040074481E-02  0.13535676424E-01  0.00000000000E+00 0.  1.
     999901    1    3    3    0    0  0.44648464656E-01  0.12892716981E+00  0.36646707508E-01  0.89126801900E+00  0.88000000000E+00 0. -1.
        -11    1    4    4    0    0 -0.12381952852E-01 -0.51801617325E-01 -0.39190726056E-01  0.66127864352E-01  0.51100000000E-03 0.  1.
         11    1    4    4    0    0 -0.20838232558E-01 -0.69942173147E-01  0.15400111000E-02  0.72998440229E-01  0.51100000000E-03 0. -1.
</event>
<event>
 8    1  0.2123879E+004  0.1043930E+01  0.7957747E-01            NaN
         13   -1    0    0    0    0  0.00000000000E+00  0.00000000000E+00  0.74505805969E-08  0.10566000000E+00  0.10566000000E+00 0.  1.
     999900   -1    0    0    0    0 -0.00000000000E+00 -0.00000000000E+00 -0.74505805969E-08  0.93827000000E+00  0.93827000000E+00 0.  1.
     999902    2    1    2    0    0 -0.53951186361E-02 -0.24107601211E-02  0.13626447460E-01  0.10290774198E+01  0.10289702312E+01 0.  0.
     999903    2    3    3    0    0  0.29904836414E-01  0.44856028425E-01  0.12164087018E+00  0.14051264911E+00  0.45176772052E-01 0.  0.
         14    1    1    2    0    0  0.53951186361E-02  0.24107601211E-02 -0.13626447460E-01  0.14852580242E-01  0.00000000000E+00 0. -1.
     999901    1    3    3    0    0 -0.35299955050E-01 -0.47266788546E-01 -0.10801442272E+00  0.88856477065E+00  0.88000000000E+00 0.  1.
        -11    1    4    4    0    0  0.14020053168E-01  0.44027896941E-01  0.54223334114E-01  0.71242183314E-01  0.51100000000E-03 0. -1.
         11    1    4    4    0    0  0.15884783246E-01  0.82813148388E-03  0.67417536070E-01  0.69270465793E-01  0.51100000000E-03 0.  1.
</event>
<event>
 8    1  0.2123879E+004  0.1043930E+01  0.7957747E-01            NaN
         13   -1    0    0    0    0  0.00000000000E+00  0.00000000000E+00  0.74505805969E-08  0.10566000000E+00  0.10566000000E+00 0.  1.
     999900   -1    0    0    0    0 -0.00000000000E+00 -0.00000000000E+00 -0.74505805969E-08  0.93827000000E+00  0.93827000000E+00 0. -1.
     999902    2    1    2    0    0  0.26928727083E-02  0.11912079154E-01 -0.11439414707E-01  0.10271965185E+01  0.10270602116E+01 0.  0.
     999903    2    3    3    0    0 -0.34395169385E-01  0.10534127316E+00 -0.72396909593E-01  0.13937877071E+00  0.43649945000E-01 0.  0.
         14    1    1    2    0    0 -0.26928727083E-02 -0.11912079154E-01  0.11439414707E-01  0.16733481468E-01  0.00000000000E+00 0. -1.
     999901    1    3    3    0    0  0.37088042093E-01 -0.93429194008E-01  0.60957494887E-01  0.88781774782E+00  0.88000000000E+00 0.  1.
        -11    1    4    4    0    0 -0.28223366388E-01  0.58227933300E-01 -0.18034300064E-01  0.67175499451E-01  0.51100000000E-03 0.  1.
         11    1    4    4    0    0 -0.61718029973E-02  0.47113339862E-01 -0.54362609529E-01  0.72203271263E-01  0.51100000000E-03 0. -1.
</event>
<event>
 8    1  0.2123879E+004  0.1043930E+01  0.7957747E-01            NaN
         13   -1    0    0    0    0  0.00000000000E+00  0.00000000000E+00  0.74505805969E-08  0.10566000000E+00  0.10566000000E+00 0. -1.
     999900   -1    0    0    0    0 -0.00000000000E+00 -0.00000000000E+00 -0.74505805969E-08  0.93827000000E+00  0.93827000000E+00 0.  1.
     999902    2    1    2    0    0  0.72275010614E-02 -0.11309369357E-01  0.42527894192E-02  0.10298507662E+01  0.10297545221E+01 0.  0.
     999903    2    3    3    0    0 -0.12939667789E+00  0.72402820385E-02 -0.19720948524E-01  0.13879240898E+00  0.45590514893E-01 0.  0.
         14    1    1    2    0    0 -0.72275010614E-02  0.11309369357E-01 -0.42527894192E-02  0.14079233810E-01  0.00000000000E+00 0.  1.
     999901    1    3    3    0    0  0.13662417895E+00 -0.18549651395E-01  0.23973737944E-01  0.89105835721E+00  0.88000000000E+00 0.  1.
        -11    1    4    4    0    0 -0.65099508137E-01  0.17953370527E-01 -0.27954570005E-01  0.73088908722E-01  0.51100000000E-03 0.  1.
         11    1    4    4    0    0 -0.64297169749E-01 -0.10713088488E-01  0.82336214804E-02  0.65703500259E-01  0.51100000000E-03 0. -1.
</event>
<event>
 8    1  0.2123879E+004  0.1043930E+01  0.7957747E-01            NaN
         13   -1    0    0    0    0  0.00000000000E+00  0.00000000000E+00  0.74505805969E-08  0.10566000000E+00  0.10566000000E+00 0. -1.
     999900   -1    0    0    0    0 -0.00000000000E+00 -0.00000000000E+00 -0.74505805969E-08  0.93827000000E+00  0.93827000000E+00 0. -1.
     999902    2    1    2    0    0 -0.13222531481E-01  0.45368358257E-02 -0.56394396649E-03  0.10299394228E+01  0.10298443952E+01 0.  0.
     999903    2    3    3    0    0  0.11766231896E+00 -0.31040208122E-01  0.47614470087E-01  0.13824568068E+00  0.45131082882E-01 0.  0.
         14    1    1    2    0    0  0.13222531481E-01 -0.45368358257E-02  0.56394396649E-03  0.13990577217E-01  0.00000000000E+00 0.  1.
     999901    1    3    3    0    0 -0.13088485044E+00  0.35577043948E-01 -0.48178414053E-01  0.89169374211E+00  0.88000000000E+00 0. -1.
        -11    1    4    4    0    0  0.84592920254E-01 -0.18778349978E-02  0.22732958123E-01  0.87615848609E-01  0.51100000000E-03 0.  1.
         11    1    4    4    0    0  0.33069398701E-01 -0.29162373124E-01  0.24881511964E-01  0.50629832068E-01  0.51100000000E-03 0. -1.
</event>
<event>
 8    1  0.2123879E+004  0.1043930E+01  0.7957747E-01            NaN
         13   -1    0    0    0    0  0.00000000000E+00  0.00000000000E+00  0.74505805969E-08  0.10566000000E+00  0.10566000000E+00 0.  1.
     999900   -1    0    0    0    0 -0.00000000000E+00 -0.00000000000E+00 -0.74505805969E-08  0.93827000000E+00  0.93827000000E+00 0. -1.
     999902    2    1    2    0    0  0.22172786296E-02 -0.30516703549E-02 -0.14631491257E-01  0.10288200843E+01  0.10287091213E+01 0.  0.
     999903    2    3    3    0    0  0.57960010758E-01 -0.13759898355E-01  0.11568228393E+00  0.13741467801E+00  0.44178108483E-01 0.  0.
         14    1    1    2    0    0 -0.22172786296E-02  0.30516703549E-02  0.14631491257E-01  0.15109915714E-01  0.00000000000E+00 0.  1.
     999901    1    3    3    0    0 -0.55742732128E-01  0.10708228000E-01 -0.13031377518E+00  0.89140540627E+00  0.88000000000E+00 0. -1.
        -11    1    4    4    0    0  0.22755622140E-01 -0.15529272935E-02  0.88225593227E-01  0.91127637649E-01  0.51100000000E-03 0.  1.
         11    1    4    4    0    0  0.35204388618E-01 -0.12206971061E-01  0.27456690698E-01  0.46287040363E-01  0.51100000000E-03 0. -1.
</event>
<event>
 8    1  0.2123879E+004  0.1043930E+01  0.7957747E-01            NaN
         13   -1    0    0    0    0  0.00000000000E+00  0.00000000000E+00  0.74505805969E-08  0.10566000000E+00  0.10566000000E+00 0. -1.
     999900   -1    0    0    0    0 -0.00000000000E+00 -0.00000000000E+00 -0.74505805969E-08  0.93827000000E+00  0.93827000000E+00 0. -1.
     999902    2    1    2    0    0 -0.40064124830E-02 -0.98905444999E-02  0.92862552603E-02  0.10297840201E+01  0.10296868549E+01 0.  0.
     999903    2    3    3    0    0  0.47280844087E-01 -0.20271556834E-02  0.12462486666E+00  0.14074228266E+00  0.45138067771E-01 0.  0.
         14    1    1    2    0    0  0.40064124830E-02  0.98905444999E-02 -0.92862552603E-02  0.14145979932E-01  0.00000000000E+00 0.  1.
     999901    1    3    3    0    0 -0.51287256570E-01 -0.78633888166E-02 -0.11533861140E+00  0.88904173741E+00  0.88000000000E+00 0. -1.
        -11    1    4    4    0    0  0.27572609782E-01 -0.23567699780E-02  0.11593786918E+00  0.11919586321E+00  0.51100000000E-03 0.  1.
         11    1    4    4    0    0  0.19708234306E-01  0.32961429465E-03  0.86869974716E-02  0.21546419450E-01  0.51100000000E-03 0. -1.
</event>
<event>
 8    1  0.2123879E+004  0.1043930E+01  0.7957747E-01            NaN
         13   -1    0    0    0    0  0.00000000000E+00  0.00000000000E+00  0.74505805969E-08  0.10566000000E+00  0.10566000000E+00 0.  1.
     999900   -1    0    0    0    0 -0.00000000000E+00 -0.00000000000E+00 -0.74505805969E-08  0.93827000000E+00  0.93827000000E+00 0. -1.
     999902    2    1    2    0    0 -0.88419337588E-02  0.96245718470E-02  0.89845566466E-02  0.10280701629E+01  0.10279478223E+01 0.  0.
     999903    2    3    3    0    0  0.60373908389E-01  0.58514884015E-01  0.10102239877E+00  0.13922143568E+00  0.45913861023E-01 0.  0.
         14    1    1    2    0    0  0.88419337588E-02 -0.96245718470E-02 -0.89845566466E-02  0.15859837136E-01  0.00000000000E+00 0.  1.
     999901    1    3    3    0    0 -0.69215842148E-01 -0.48890312168E-01 -0.92037842128E-01  0.88884872718E+00  0.88000000000E+00 0. -1.
        -11    1    4    4    0    0  0.45666172606E-01  0.65017091164E-01  0.80030647326E-01  0.11277316656E+00  0.51100000000E-03 0. -1.
         11    1    4    4    0    0  0.14707735783E-01 -0.65022071485E-02  0.20991751449E-01  0.26448269122E-01  0.51100000000E-03 0.  1.
</event>
<event>
 7    1  0.2123879E+004  0.1043930E+01  0.7957747E-01            NaN
         13   -1    0    0    0    0  0.00000000000E+00  0.00000000000E+00  0.74505805969E-08  0.10566000000E+00  0.10566000000E+00 0. -1.
     999900   -1    0    0    0    0 -0.00000000000E+00 -0.00000000000E+00 -0.74505805969E-08  0.93827000000E+00  0.93827000000E+00 0. -1.
     999902    2    1    2    0    0 -0.83339297621E-02 -0.18966720305E-02  0.14808972588E-01  0.10268315375E+01  0.10266891687E+01 0.  0.
         14    1    1    2    0    0  0.83339297621E-02  0.18966720305E-02 -0.14808972588E-01  0.17098462480E-01  0.00000000000E+00 0. -1.
     999901    1    3    3    0    0  0.83290616764E-01 -0.10059055588E+00 -0.34827477550E-02  0.88964482593E+00  0.88000000000E+00 0.  1.
        -11    1    3    3    0    0 -0.38173811048E-01  0.47568281868E-01  0.80717447536E-05  0.60993790470E-01  0.51100000000E-03 0. -1.
         11    1    3    3    0    0 -0.53450735479E-01  0.51125601985E-01  0.18283648598E-01  0.76192921119E-01  0.51100000000E-03 0.  1.
</event>
<event>
 8    1  0.2123879E+004  0.1043930E+01  0.7957747E-01            NaN
         13   -1    0    0    0    0  0.00000000000E+00  0.00000000000E+00  0.74505805969E-08  0.10566000000E+00  0.10566000000E+00 0.  1.
     999900   -1    0    0    0    0 -0.00000000000E+00 -0.00000000000E+00 -0.74505805969E-08  0.93827000000E+00  0.93827000000E+00 0. -1.
     999902    2    1    2    0    0 -0.20216910188E-02 -0.11016750174E-01  0.90685280291E-02  0.10295183998E+01  0.10294175253E+01 0.  0.
     999903    2    3    3    0    0  0.74990663070E-02  0.38990662489E-01  0.12642282833E+00  0.14026960565E+00  0.46003510630E-01 0.  0.
         14    1    1    2    0    0  0.20216910188E-02  0.11016750174E-01 -0.90685280291E-02  0.14411600175E-01  0.00000000000E+00 0. -1.
     999901    1    3    3    0    0 -0.95207573258E-02 -0.50007412663E-01 -0.11735430030E+00  0.88924879417E+00  0.88000000000E+00 0. -1.
        -11    1    4    4    0    0  0.22779016462E-01  0.37633730807E-01  0.78985539872E-01  0.90411049741E-01  0.51100000000E-03 0. -1.
         11    1    4    4    0    0 -0.15279950155E-01  0.13569316813E-02  0.47437288456E-01  0.49858555910E-01  0.51100000000E-03 0.  1.
</event>
<event>
 8    1  0.2123879E+004  0.1043930E+01  0.7957747E-01            NaN
         13   -1    0    0    0    0  0.00000000000E+00  0.00000000000E+00  0.74505805969E-08  0.10566000000E+00  0.10566000000E+00 0.  1.
     999900   -1    0    0    0    0 -0.00000000000E+00 -0.00000000000E+00 -0.74505805969E-08  0.93827000000E+00  0.93827000000E+00 0. -1.
     999902    2    1    2    0    0 -0.60149773294E-02 -0.10962154461E-01 -0.65066425337E-02  0.10298344269E+01  0.10297379578E+01 0.  0.
     999903    2    3    3    0    0 -0.99850803825E-01 -0.70074406348E-01  0.51645380734E-01  0.14096937618E+00  0.48213216243E-01 0.  0.
         14    1    1    2    0    0  0.60149773294E-02  0.10962154461E-01  0.65066425337E-02  0.14095573055E-01  0.00000000000E+00 0.  1.
     999901    1    3    3    0    0  0.93835826495E-01  0.59112251887E-01 -0.58152023268E-01  0.88886505076E+00  0.88000000000E+00 0.  1.
        -11    1    4    4    0    0 -0.28417865347E-01 -0.40403870279E-01  0.38226265264E-01  0.62462438965E-01  0.51100000000E-03 0. -1.
         11    1    4    4    0    0 -0.71432938478E-01 -0.29670536068E-01  0.13419115470E-01  0.78506937217E-01  0.51100000000E-03 0.  1.
</event>
<event>
 8    1  0.2123879E+004  0.1043930E+01  0.7957747E-01            NaN
         13   -1    0    0    0    0  0.00000000000E+00  0.00000000000E+00  0.74505805969E-08  0.10566000000E+00  0.10566000000E+00 0. -1.
     999900   -1    0    0    0    0 -0.00000000000E+00 -0.00000000000E+00 -0.74505805969E-08  0.93827000000E+00  0.93827000000E+00 0. -1.
     999902    2    1    2    0    0 -0.62959119432E-02 -0.48366298978E-02 -0.13336996174E-01  0.10284088221E+01  0.10282916894E+01 0.  0.
     999903    2    3    3    0    0  0.49877241180E-01  0.28664218638E-01 -0.11875592434E+00  0.13970702714E+00  0.45887985878E-01 0.  0.
         14    1    1    2    0    0  0.62959119432E-02  0.48366298978E-02  0.13336996174E-01  0.15521177884E-01  0.00000000000E+00 0. -1.
     999901    1    3    3    0    0 -0.56173153124E-01 -0.33500848535E-01  0.10541892817E+00  0.88870179498E+00  0.88000000000E+00 0.  1.
        -11    1    4    4    0    0  0.33185968682E-01  0.37145575060E-01 -0.59701461343E-01  0.77753635744E-01  0.51100000000E-03 0.  1.
         11    1    4    4    0    0  0.16691272498E-01 -0.84813564220E-02 -0.59054462996E-01  0.61953391393E-01  0.51100000000E-03 0. -1.
</event>
<event>
 8    1  0.2123879E+004  0.1043930E+01  0.7957747E-01            NaN
         13   -1    0    0    0    0  0.00000000000E+00  0.00000000000E+00  0.74505805969E-08  0.10566000000E+00  0.10566000000E+00 0. -1.
     999900   -1    0    0    0    0 -0.00000000000E+00 -0.00000000000E+00 -0.74505805969E-08  0.93827000000E+00  0.93827000000E+00 0.  1.
     999902    2    1    2    0    0  0.14370613539E-01  0.73104256550E-02  0.43795042761E-02  0.10272226090E+01  0.10270867303E+01 0.  0.
     999903    2    3    3    0    0  0.13087580971E+00  0.54450654186E-03  0.18639901722E-01  0.13940359740E+00  0.44239608702E-01 0.  0.
         14    1    1    2    0    0 -0.14370613539E-01 -0.73104256550E-02 -0.43795042761E-02  0.16707391013E-01  0.00000000000E+00 0. -1.
     999901    1    3    3    0    0 -0.11650519617E+00  0.67659191131E-02 -0.14260397446E-01  0.88781901158E+00  0.88000000000E+00 0. -1.
        -11    1    4    4    0    0  0.47274245345E-01  0.42221577612E-02 -0.14142989477E-01  0.49527428375E-01  0.51100000000E-03 0.  1.
         11    1    4    4    0    0  0.83601564364E-01 -0.36776512193E-02  0.32782891199E-01  0.89876169027E-01  0.51100000000E-03 0. -1.
</event>
<event>
 8    1  0.2123879E+004  0.1043930E+01  0.7957747E-01            NaN
         13   -1    0    0    0    0  0.00000000000E+00  0.00000000000E+00  0.74505805969E-08  0.10566000000E+00  0.10566000000E+00 0.  1.
     999900   -1    0    0    0    0 -0.00000000000E+00 -0.00000000000E+00 -0.74505805969E-08  0.93827000000E+00  0.93827000000E+00 0.  1.
     999902    2    1    2    0    0 -0.11315829724E-01  0.49593294815E-02  0.50161157554E-02  0.10305956696E+01  0.10305094030E+01 0.  0.
     999903    2    3    3    0    0 -0.65989089759E-01  0.89843972577E-01 -0.75281394057E-01  0.14119010510E+00  0.42905222421E-01 0.  0.
         14    1    1    2    0    0  0.11315829724E-01 -0.49593294815E-02 -0.50161157554E-02  0.13334330449E-01  0.00000000000E+00 0.  1.
     999901    1    3    3    0    0  0.54673260035E-01 -0.84884643096E-01  0.80297509812E-01  0.88940556445E+00  0.88000000000E+00 0. -1.
        -11    1    4    4    0    0 -0.18162115999E-01  0.53707458269E-02 -0.26423033587E-01  0.32513769287E-01  0.51100000000E-03 0. -1.
         11    1    4    4    0    0 -0.47826973760E-01  0.84473226751E-01 -0.48858360469E-01  0.10867633581E+00  0.51100000000E-03 0.  1.
</event>
<event>
 8    1  0.2318813E+004  0.1043930E+01  0.7957747E-01            NaN
         13   -1    0    0    0    0  0.00000000000E+00  0.00000000000E+00  0.74505805969E-08  0.10566000000E+00  0.10566000000E+00 0. -1.
     999900   -1    0    0    0    0 -0.00000000000E+00 -0.00000000000E+00 -0.74505805969E-08  0.93827000000E+00  0.93827000000E+00 0. -1.
     999902    2    1    2    0    0 -0.12604005489E-01 -0.84963402223E-02 -0.24562506723E-02  0.10285325353E+01  0.10284172763E+01 0.  0.
     999903    2    3    3    0    0  0.20520468292E-01  0.12570204459E+00  0.24798614750E-01  0.13732590105E+00  0.44959294636E-01 0.  0.
         14    1    1    2    0    0  0.12604005489E-01  0.84963402223E-02  0.24562506723E-02  0.15397464691E-01  0.00000000000E+00 0.  1.
     999901    1    3    3    0    0 -0.33124473781E-01 -0.13419838481E+00 -0.27254865423E-01  0.89120663425E+00  0.88000000000E+00 0. -1.
        -11    1    4    4    0    0  0.24539702913E-01  0.31561204205E-01  0.14528345051E-01  0.42539870250E-01  0.51100000000E-03 0.  1.
         11    1    4    4    0    0 -0.40192346212E-02  0.94140840384E-01  0.10270269700E-01  0.94786030805E-01  0.51100000000E-03 0. -1.
</event>
<event>
 8    1  0.2123879E+004  0.1043930E+01  0.7957747E-01            NaN
         13   -1    0    0    0    0  0.00000000000E+00  0.00000000000E+00  0.74505805969E-08  0.10566000000E+00  0.10566000000E+00 0. -1.
     999900   -1    0    0    0    0 -0.00000000000E+00 -0.00000000000E+00 -0.74505805969E-08  0.93827000000E+00  0.93827000000E+00 0. -1.
     999902    2    1    2    0    0 -0.15299435540E-01 -0.17488740680E-02  0.80606607154E-03  0.10285098498E+01  0.10283942484E+01 0.  0.
     999903    2    3    3    0    0  0.41272693239E-01  0.10471719586E+00 -0.65625349287E-01  0.13780868629E+00  0.44893443105E-01 0.  0.
         14    1    1    2    0    0  0.15299435540E-01  0.17488740680E-02 -0.80606607154E-03  0.15420150157E-01  0.00000000000E+00 0.  1.
     999901    1    3    3    0    0 -0.56572128779E-01 -0.10646606993E+00  0.66431415359E-01  0.89070116355E+00  0.88000000000E+00 0.  1.
        -11    1    4    4    0    0  0.49601031417E-01  0.74288907545E-01 -0.44152253367E-01  0.99643297318E-01  0.51100000000E-03 0.  1.
         11    1    4    4    0    0 -0.83283381778E-02  0.30428288312E-01 -0.21473095920E-01  0.38165388977E-01  0.51100000000E-03 0. -1.
</event>
<event>
 8    1  0.2123879E+004  0.1043930E+01  0.7957747E-01            NaN
         13   -1    0    0    0    0  0.00000000000E+00  0.00000000000E+00  0.74505805969E-08  0.10566000000E+00  0.10566000000E+00 0. -1.
     999900   -1    0    0    0    0 -0.00000000000E+00 -0.00000000000E+00 -0.74505805969E-08  0.93827000000E+00  0.93827000000E+00 0. -1.
     999902    2    1    2    0    0  0.20553292458E-01  0.90763788450E-02  0.30737844327E-02  0.10212525523E+01  0.10210007389E+01 0.  0.
     999903    2    3    3    0    0 -0.11134031488E+00  0.38440511219E-01  0.33706169239E-01  0.13041220805E+00  0.44686681949E-01 0.  0.
         14    1    1    2    0    0 -0.20553292458E-01 -0.90763788450E-02 -0.30737844327E-02  0.22677447708E-01  0.00000000000E+00 0.  1.
     999901    1    3    3    0    0  0.13189360734E+00 -0.29364132374E-01 -0.30632384806E-01  0.89084034424E+00  0.88000000000E+00 0. -1.
        -11    1    4    4    0    0 -0.82555045815E-01  0.39794068625E-01  0.83537042831E-02  0.92026892719E-01  0.51100000000E-03 0. -1.
         11    1    4    4    0    0 -0.28785269066E-01 -0.13535574064E-02  0.25352464956E-01  0.38385315333E-01  0.51100000000E-03 0.  1.
</event>
<event>
 8    1  0.2123879E+004  0.1043930E+01  0.7957747E-01            NaN
         13   -1    0    0    0    0  0.00000000000E+00  0.00000000000E+00  0.74505805969E-08  0.10566000000E+00  0.10566000000E+00 0. -1.
     999900   -1    0    0    0    0 -0.00000000000E+00 -0.00000000000E+00 -0.74505805969E-08  0.93827000000E+00  0.93827000000E+00 0. -1.
     999902    2    1    2    0    0 -0.85400457522E-02 -0.81338398589E-02  0.22655536277E-02  0.10319206509E+01  0.10318507670E+01 0.  0.
     999903    2    3    3    0    0 -0.11364127864E-01 -0.12061542694E+00 -0.58295971194E-01  0.14269189454E+00  0.47805145025E-01 0.  0.
         14    1    1    2    0    0  0.85400457522E-02  0.81338398589E-02 -0.22655536277E-02  0.12009349089E-01  0.00000000000E+00 0.  1.
     999901    1    3    3    0    0  0.28240821122E-02  0.11248158708E+00  0.60561524822E-01  0.88922875637E+00  0.88000000000E+00 0.  1.
        -11    1    4    4    0    0 -0.14353038861E-01 -0.13615496462E-01 -0.22168211371E-01  0.29716698754E-01  0.51100000000E-03 0.  1.
         11    1    4    4    0    0  0.29889109967E-02 -0.10699993048E+00 -0.36127759823E-01  0.11297519578E+00  0.51100000000E-03 0. -1.
</event>
<event>
 8    1  0.2123879E+004  0.1043930E+01  0.7957747E-01            NaN
         13   -1    0    0    0    0  0.00000000000E+00  0.00000000000E+00  0.74505805969E-08  0.10566000000E+00  0.10566000000E+00 0.  1.
     999900   -1    0    0    0    0 -0.00000000000E+00 -0.00000000000E+00 -0.74505805969E-08  0.93827000000E+00  0.93827000000E+00 0.  1.
     999902    2    1    2    0    0  0.74494355370E-02 -0.56906221998E-03  0.10629071281E-01  0.10309378840E+01  0.10308560159E+01 0.  0.
     999903    2    3    3    0    0 -0.22050629316E-01 -0.76084491822E-01  0.10890575205E+00  0.14176346922E+00  0.44286998377E-01 0.  0.
         14    1    1    2    0    0 -0.74494355370E-02  0.56906221998E-03 -0.10629071281E-01  0.12992115991E-01  0.00000000000E+00 0. -1.
     999901    1    3    3    0    0  0.29500064853E-01  0.75515429602E-01 -0.98276680773E-01  0.88917441479E+00  0.88000000000E+00 0.  1.
        -11    1    4    4    0    0  0.87276616412E-02 -0.50393914414E-03  0.14837987958E-01  0.17229423670E-01  0.51100000000E-03 0.  1.
         11    1    4    4    0    0 -0.30778290957E-01 -0.75580552678E-01  0.94067764097E-01  0.12453404555E+00  0.51100000000E-03 0. -1.
</event>
<event>
 8    1  0.2123879E+004  0.1043930E+01  0.7957747E-01            NaN
         13   -1    0    0    0    0  0.00000000000E+00  0.00000000000E+00  0.74505805969E-08  0.10566000000E+00  0.10566000000E+00 0. -1.
     999900   -1    0    0    0    0 -0.00000000000E+00 -0.00000000000E+00 -0.74505805969E-08  0.93827000000E+00  0.93827000000E+00 0.  1.
     999902    2    1    2    0    0 -0.17821111124E-02  0.12782994586E-01  0.37368702435E-02  0.10304932939E+01  0.10304056889E+01 0.  0.
     999903    2    3    3    0    0 -0.62480706136E-01 -0.11015666109E+00  0.36140746241E-01  0.13928709470E+00  0.45347685613E-01 0.  0.
         14    1    1    2    0    0  0.17821111124E-02 -0.12782994586E-01 -0.37368702435E-02  0.13436706063E-01  0.00000000000E+00 0.  1.
     999901    1    3    3    0    0  0.60698595024E-01  0.12293965567E+00 -0.32403875998E-01  0.89120619923E+00  0.88000000000E+00 0.  1.
        -11    1    4    4    0    0 -0.39521076165E-01 -0.32025940835E-01  0.26275082511E-01  0.57255719623E-01  0.51100000000E-03 0.  1.
         11    1    4    4    0    0 -0.22959629972E-01 -0.78130720253E-01  0.98656637307E-02  0.82031375080E-01  0.51100000000E-03 0. -1.
</event>
<event>
 8    1  0.2123879E+004  0.1043930E+01  0.7957747E-01            NaN
         13   -1    0    0    0    0  0.00000000000E+00  0.00000000000E+00  0.74505805969E-08  0.10566000000E+00  0.10566000000E+00 0.  1.
     999900   -1    0    0    0    0 -0.00000000000E+00 -0.00000000000E+00 -0.74505805969E-08  0.93827000000E+00  0.93827000000E+00 0. -1.
     999902    2    1    2    0    0 -0.36429757633E-02 -0.88431594872E-02 -0.96790780975E-02  0.10303227484E+01  0.10302328905E+01 0.  0.
     999903    2    3    3    0    0 -0.10061951063E+00  0.25169665058E-01  0.82077718533E-01  0.13960358379E+00  0.44661065482E-01 0.  0.
         14    1    1    2    0    0  0.36429757633E-02  0.88431594872E-02  0.96790780975E-02  0.13607251557E-01  0.00000000000E+00 0. -1.
     999901    1    3    3    0    0  0.96976534865E-01 -0.34012824545E-01 -0.91756796630E-01  0.89071916465E+00  0.88000000000E+00 0. -1.
        -11    1    4    4    0    0 -0.72343181437E-01  0.24312520112E-01  0.33419763535E-01  0.83317322630E-01  0.51100000000E-03 0.  1.
         11    1    4    4    0    0 -0.28276329191E-01  0.85714494626E-03  0.48657954998E-01  0.56286261162E-01  0.51100000000E-03 0. -1.
</event>
<event>
 8    1  0.2123879E+004  0.1043930E+01  0.7957747E-01            NaN
         13   -1    0    0    0    0  0.00000000000E+00  0.00000000000E+00  0.74505805969E-08  0.10566000000E+00  0.10566000000E+00 0. -1.
     999900   -1    0    0    0    0 -0.00000000000E+00 -0.00000000000E+00 -0.74505805969E-08  0.93827000000E+00  0.93827000000E+00 0.  1.
     999902    2    1    2    0    0  0.11153407937E-01 -0.78496572125E-02  0.41172556048E-02  0.10296833365E+01  0.10295847736E+01 0.  0.
     999903    2    3    3    0    0  0.80892875954E-01  0.89955770994E-01  0.54054930151E-01  0.14011981066E+00  0.45562350132E-01 0.  0.
         14    1    1    2    0    0 -0.11153407937E-01  0.78496572125E-02 -0.41172556048E-02  0.14246663492E-01  0.00000000000E+00 0. -1.
     999901    1    3    3    0    0 -0.69739468017E-01 -0.97805428206E-01 -0.49937674546E-01  0.88956352585E+00  0.88000000000E+00 0.  1.
        -11    1    4    4    0    0  0.48118047948E-01  0.33020280029E-01  0.58870571514E-02  0.58656661979E-01  0.51100000000E-03 0.  1.
         11    1    4    4    0    0  0.32774828005E-01  0.56935490965E-01  0.48167872999E-01  0.81463148677E-01  0.51100000000E-03 0. -1.
</event>
<event>
 8    1  0.2123879E+004  0.1043930E+01  0.7957747E-01            NaN
         13   -1    0    0    0    0  0.00000000000E+00  0.00000000000E+00  0.74505805969E-08  0.10566000000E+00  0.10566000000E+00 0. -1.
     999900   -1    0    0    0    0 -0.00000000000E+00 -0.00000000000E+00 -0.74505805969E-08  0.93827000000E+00  0.93827000000E+00 0.  1.
     999902    2    1    2    0    0 -0.40542317396E-03 -0.84722348702E-02 -0.11854365858E-01  0.10293536794E+01  0.10292504691E+01 0.  0.
     999903    2    3    3    0    0 -0.63620780438E-01 -0.37627501015E-01 -0.11092427128E+00  0.14106259138E+00  0.46163060914E-01 0.  0.
         14    1    1    2    0    0  0.40542317396E-03  0.84722348702E-02  0.11854365858E-01  0.14576320576E-01  0.00000000000E+00 0. -1.
     999901    1    3    3    0    0  0.63215357264E-01  0.29155266144E-01  0.99069905417E-01  0.88829108804E+00  0.88000000000E+00 0. -1.
        -11    1    4    4    0    0 -0.50133016884E-01 -0.42960987178E-02 -0.54725026874E-01  0.74342891614E-01  0.51100000000E-03 0.  1.
         11    1    4    4    0    0 -0.13487763554E-01 -0.33331402297E-01 -0.56199244401E-01  0.66719699767E-01  0.51100000000E-03 0. -1.
</event>
<event>
 8    1  0.2123879E+004  0.1043930E+01  0.7957747E-01            NaN
         13   -1    0    0    0    0  0.00000000000E+00  0.00000000000E+00  0.74505805969E-08  0.10566000000E+00  0.10566000000E+00 0. -1.
     999900   -1    0    0    0    0 -0.00000000000E+00 -0.00000000000E+00 -0.74505805969E-08  0.93827000000E+00  0.93827000000E+00 0.  1.
     999902    2    1    2    0    0 -0.10900976741E-01  0.22550833975E-02 -0.61677997086E-02  0.10312037103E+01  0.10311251785E+01 0.  0.
     999903    2    3    3    0    0  0.69779079651E-01 -0.88864985079E-01 -0.70355951736E-01  0.14051170003E+00  0.45027462419E-01 0.  0.
         14    1    1    2    0    0  0.10900976741E-01 -0.22550833975E-02  0.61677997086E-02  0.12726289651E-01  0.00000000000E+00 0.  1.
     999901    1    3    3    0    0 -0.80680056392E-01  0.91120068476E-01  0.64188152027E-01  0.89069201032E+00  0.88000000000E+00 0. -1.
        -11    1    4    4    0    0  0.48802293766E-01 -0.59752405218E-01 -0.70667596013E-01  0.10462401279E+00  0.51100000000E-03 0.  1.
         11    1    4    4    0    0  0.20976785885E-01 -0.29112579861E-01  0.31164427655E-03  0.35887687239E-01  0.51100000000E-03 0. -1.
</event>
<event>
 8    1  0.2123879E+004  0.1043930E+01  0.7957747E-01            NaN
         13   -1    0    0    0    0  0.00000000000E+00  0.00000000000E+00  0.74505805969E-08  0.10566000000E+00  0.10566000000E+00 0. -1.
     999900   -1    0    0    0    0 -0.00000000000E+00 -0.00000000000E+00 -0.74505805969E-08  0.93827000000E+00  0.93827000000E+00 0. -1.
     999902    2    1    2    0    0 -0.35193954746E-02 -0.80784632589E-02  0.99014592823E-02  0.10306753175E+01  0.10305900851E+01 0.  0.
     999903    2    3    3    0    0  0.82135381696E-02  0.13073157481E+00  0.18561214260E-01  0.13967538494E+00  0.44793834655E-01 0.  0.
         14    1    1    2    0    0  0.35193954746E-02  0.80784632589E-02 -0.99014592823E-02  0.13254682533E-01  0.00000000000E+00 0.  1.
     999901    1    3    3    0    0 -0.11732933644E-01 -0.13881003807E+00 -0.86597549777E-02  0.89099993252E+00  0.88000000000E+00 0.  1.
        -11    1    4    4    0    0 -0.34902073121E-02  0.11628362248E+00  0.26716710494E-01  0.11936543111E+00  0.51100000000E-03 0. -1.
         11    1    4    4    0    0  0.11703745482E-01  0.14447952330E-01 -0.81554962343E-02  0.20309953832E-01  0.51100000000E-03 0.  1.
</event>
<event>
 8    1  0.2123879E+004  0.1043930E+01  0.7957747E-01            NaN
         13   -1    0    0    0    0  0.00000000000E+00  0.00000000000E+00  0.74505805969E-08  0.10566000000E+00  0.10566000000E+00 0.  1.
     999900   -1    0    0    0    0 -0.00000000000E+00 -0.00000000000E+00 -0.74505805969E-08  0.93827000000E+00  0.93827000000E+00 0. -1.
     999902    2    1    2    0    0  0.37259904474E-02  0.28504566583E-02  0.83063215006E-02  0.10343904463E+01  0.10343464566E+01 0.  0.
     999903    2    3    3    0    0  0.11354823722E+00 -0.40731236329E-01  0.65695141887E-01  0.14464117456E+00  0.45309843540E-01 0.  0.
         14    1    1    2    0    0 -0.37259904474E-02 -0.28504566583E-02 -0.83063215006E-02  0.95395537027E-02  0.00000000000E+00 0. -1.
     999901    1    3    3    0    0 -0.10982224677E+00  0.43581692988E-01 -0.57388820387E-01  0.88974927174E+00  0.88000000000E+00 0. -1.
        -11    1    4    4    0    0  0.40388480008E-01 -0.27852179330E-01  0.61738360476E-02  0.49450486179E-01  0.51100000000E-03 0. -1.
         11    1    4    4    0    0  0.73159757214E-01 -0.12879057000E-01  0.59521305840E-01  0.95190688382E-01  0.51100000000E-03 0.  1.
</event>
<event>
 8    1  0.2123879E+004  0.1043930E+01  0.7957747E-01            NaN
         13   -1    0    0    0    0  0.00000000000E+00  0.00000000000E+00  0.74505805969E-08  0.10566000000E+00  0.10566000000E+00 0. -1.
     999900   -1    0    0    0    0 -0.00000000000E+00 -0.00000000000E+00 -0.74505805969E-08  0.93827000000E+00  0.93827000000E+00 0.  1.
     999902    2    1    2    0    0  0.36792101385E-02 -0.98503426272E-02 -0.10150465072E-01  0.10293150153E+01  0.10292112528E+01 0.  0.
     999903    2    3    3    0    0 -0.46297463094E-01  0.12115794262E+00 -0.15844371005E-01  0.13819591032E+00  0.44992925954E-01 0.  0.
         14    1    1    2    0    0 -0.36792101385E-02  0.98503426272E-02  0.10150465072E-01  0.14614984717E-01  0.00000000000E+00 0. -1.
     999901    1    3    3    0    0  0.49976673232E-01 -0.13100828525E+00  0.56939059337E-02  0.89111910497E+00  0.88000000000E+00 0.  1.
        -11    1    4    4    0    0 -0.29929265942E-01  0.56811920201E-01 -0.29078941661E-01  0.70492561351E-01  0.51100000000E-03 0.  1.
         11    1    4    4    0    0 -0.16368197152E-01  0.64346022423E-01  0.13234570656E-01  0.67703348965E-01  0.51100000000E-03 0. -1.
</event>
<event>
 8    1  0.2123879E+004  0.1043930E+01  0.7957747E-01            NaN
         13   -1    0    0    0    0  0.00000000000E+00  0.00000000000E+00  0.74505805969E-08  0.10566000000E+00  0.10566000000E+00 0. -1.
     999900   -1    0    0    0    0 -0.00000000000E+00 -0.00000000000E+00 -0.74505805969E-08  0.93827000000E+00  0.93827000000E+00 0. -1.
     999902    2    1    2    0    0 -0.57330833988E-02  0.68090486007E-02  0.10851071225E-01  0.10298951457E+01  0.10297995116E+01 0.  0.
     999903    2    3    3    0    0 -0.84843210314E-01 -0.85864054087E-01  0.55564719486E-01  0.14037503550E+00  0.45240539544E-01 0.  0.
         14    1    1    2    0    0  0.57330833988E-02 -0.68090486007E-02 -0.10851071225E-01  0.14034854286E-01  0.00000000000E+00 0.  1.
     999901    1    3    3    0    0  0.79110126915E-01  0.92673102688E-01 -0.44713648261E-01  0.88952011022E+00  0.88000000000E+00 0. -1.
        -11    1    4    4    0    0 -0.20442012228E-01  0.97646102157E-03  0.12576819701E-01  0.24026378313E-01  0.51100000000E-03 0. -1.
         11    1    4    4    0    0 -0.64401198086E-01 -0.86840515109E-01  0.42987899785E-01  0.11634865718E+00  0.51100000000E-03 0.  1.
</event>
<event>
 8    1  0.2123879E+004  0.1043930E+01  0.7957747E-01            NaN
         13   -1    0    0    0    0  0.00000000000E+00  0.00000000000E+00  0.74505805969E-08  0.10566000000E+00  0.10566000000E+00 0. -1.
     999900   -1    0    0    0    0 -0.00000000000E+00 -0.00000000000E+00 -0.74505805969E-08  0.93827000000E+00  0.93827000000E+00 0. -1.
     999902    2    1    2    0    0  0.63733962050E-02  0.10813483346E-01  0.55275898847E-02  0.10302148313E+01  0.10301235328E+01 0.  0.
     999903    2    3    3    0    0 -0.29695503289E-01 -0.12226636904E+00  0.37734271009E-01  0.13889643541E+00  0.45138194997E-01 0.  0.
         14    1    1    2    0    0 -0.63733962050E-02 -0.10813483346E-01 -0.55275898847E-02  0.13715168653E-01  0.00000000000E+00 0. -1.
     999901    1    3    3    0    0  0.36068899494E-01  0.13307985239E+00 -0.32206681125E-01  0.89131839593E+00  0.88000000000E+00 0. -1.
        -11    1    4    4    0    0 -0.22219696106E-01 -0.78585116110E-01  0.15506474621E-02  0.81682317534E-01  0.51100000000E-03 0. -1.
         11    1    4    4    0    0 -0.74758071834E-02 -0.43681252930E-01  0.36183623547E-01  0.57214117879E-01  0.51100000000E-03 0.  1.
</event>
<event>
 8    1  0.2123879E+004  0.1043930E+01  0.7957747E-01            NaN
         13   -1    0    0    0    0  0.00000000000E+00  0.00000000000E+00  0.74505805969E-08  0.10566000000E+00  0.10566000000E+00 0.  1.
     999900   -1    0    0    0    0 -0.00000000000E+00 -0.00000000000E+00 -0.74505805969E-08  0.93827000000E+00  0.93827000000E+00 0. -1.
     999902    2    1    2    0    0 -0.75273788716E-02 -0.10523080834E-01  0.70116274565E-02  0.10292140365E+01  0.10291088248E+01 0.  0.
     999903    2    3    3    0    0 -0.12602849706E+00  0.60797211896E-02  0.42272255957E-01  0.14041626422E+00  0.44828992328E-01 0.  0.
         14    1    1    2    0    0  0.75273788716E-02  0.10523080834E-01 -0.70116274565E-02  0.14715963526E-01  0.00000000000E+00 0. -1.
     999901    1    3    3    0    0  0.11850111818E+00 -0.16602802024E-01 -0.35260628501E-01  0.88879777226E+00  0.88000000000E+00 0. -1.
        -11    1    4    4    0    0 -0.13241912145E-01  0.14333934295E-01  0.13468178396E-01  0.23716299457E-01  0.51100000000E-03 0.  1.
         11    1    4    4    0    0 -0.11278658491E+00 -0.82542131057E-02  0.28804077562E-01  0.11669996476E+00  0.51100000000E-03 0. -1.
</event>
<event>
 8    1  0.2123879E+004  0.1043930E+01  0.7957747E-01            NaN
         13   -1    0    0    0    0  0.00000000000E+00  0.00000000000E+00  0.74505805969E-08  0.10566000000E+00  0.10566000000E+00 0. -1.
     999900   -1    0    0    0    0 -0.00000000000E+00 -0.00000000000E+00 -0.74505805969E-08  0.93827000000E+00  0.93827000000E+00 0. -1.
     999902    2    1    2    0    0 -0.10173967128E-01  0.87011183243E-02  0.27127756999E-02  0.10302706362E+01  0.10301800841E+01 0.  0.
     999903    2    3    3    0    0 -0.10421379729E+00 -0.68632963446E-01  0.46595003456E-01  0.14080467296E+00  0.45649341339E-01 0.  0.
         14    1    1    2    0    0  0.10173967128E-01 -0.87011183243E-02 -0.27127756999E-02  0.13659363793E-01  0.00000000000E+00 0.  1.
     999901    1    3    3    0    0  0.94039830158E-01  0.77334081770E-01 -0.43882227756E-01  0.88946596325E+00  0.88000000000E+00 0.  1.
        -11    1    4    4    0    0 -0.14955931028E-01 -0.31986255814E-01  0.20566824515E-01  0.40866316516E-01  0.51100000000E-03 0. -1.
         11    1    4    4    0    0 -0.89257866258E-01 -0.36646707631E-01  0.26028178941E-01  0.99938356446E-01  0.51100000000E-03 0.  1.
</event>
<event>
 8    1  0.2123879E+004  0.1043930E+01  0.7957747E-01            NaN
         13   -1    0    0    0    0  0.00000000000E+00  0.00000000000E+00  0.74505805969E-08  0.10566000000E+00  0.10566000000E+00 0. -1.
     999900   -1    0    0    0    0 -0.00000000000E+00 -0.00000000000E+00 -0.74505805969E-08  0.93827000000E+00  0.93827000000E+00 0.  1.
     999902    2    1    2    0    0  0.85492950523E-02  0.12906047607E-01  0.62914028369E-03  0.10284363778E+01  0.10283196638E+01 0.  0.
     999903    2    3    3    0    0 -0.35324401038E-01  0.12493395910E+00  0.26169595983E-01  0.13988279528E+00  0.45011567586E-01 0.  0.
         14    1    1    2    0    0 -0.85492950523E-02 -0.12906047607E-01 -0.62914028369E-03  0.15493622179E-01  0.00000000000E+00 0. -1.
     999901    1    3    3    0    0  0.43873696091E-01 -0.11202791150E+00 -0.25540455700E-01  0.88855358254E+00  0.88000000000E+00 0.  1.
        -11    1    4    4    0    0 -0.27509562525E-03  0.37260068552E-01 -0.10301734434E-01  0.38662323255E-01  0.51100000000E-03 0.  1.
         11    1    4    4    0    0 -0.35049305413E-01  0.87673890551E-01  0.36471330418E-01  0.10122047203E+00  0.51100000000E-03 0. -1.
</event>
<event>
 8    1  0.2123879E+004  0.1043930E+01  0.7957747E-01            NaN
         13   -1    0    0    0    0  0.00000000000E+00  0.00000000000E+00  0.74505805969E-08  0.10566000000E+00  0.10566000000E+00 0. -1.
     999900   -1    0    0    0    0 -0.00000000000E+00 -0.00000000000E+00 -0.74505805969E-08  0.93827000000E+00  0.93827000000E+00 0.  1.
     999902    2    1    2    0    0  0.76868831655E-02  0.13400118214E-01 -0.28055019267E-02  0.10282289751E+01  0.10281090911E+01 0.  0.
     999903    2    3    3    0    0 -0.45081482021E-01 -0.60809973243E-01  0.10485706325E+00  0.13700348964E+00  0.45219018054E-01 0.  0.
         14    1    1    2    0    0 -0.76868831655E-02 -0.13400118214E-01  0.28055019267E-02  0.15701024872E-01  0.00000000000E+00 0. -1.
     999901    1    3    3    0    0  0.52768365186E-01  0.74210091457E-01 -0.10766256518E+00  0.89122548549E+00  0.88000000000E+00 0.  1.
        -11    1    4    4    0    0 -0.48450005093E-01 -0.63594815088E-01  0.85109271805E-01  0.11677136964E+00  0.51100000000E-03 0.  1.
         11    1    4    4    0    0  0.33685230721E-02  0.27848418452E-02  0.19747791446E-01  0.20232120003E-01  0.51100000000E-03 0. -1.
</event>
<event>
 8    1  0.2123879E+004  0.1043930E+01  0.7957747E-01            NaN
         13   -1    0    0    0    0  0.00000000000E+00  0.00000000000E+00  0.74505805969E-08  0.10566000000E+00  0.10566000000E+00 0. -1.
     999900   -1    0    0    0    0 -0.00000000000E+00 -0.00000000000E+00 -0.74505805969E-08  0.93827000000E+00  0.93827000000E+00 0.  1.
     999902    2    1    2    0    0  0.28780277280E-02  0.61780562076E-02 -0.14646787723E-01  0.10277751304E+01  0.10276481590E+01 0.  0.
     999903    2    3    3    0    0 -0.26620076011E-01  0.88824922213E-01  0.90223165844E-01  0.13721443634E+00  0.45706527252E-01 0.  0.
         14    1    1    2    0    0 -0.28780277280E-02 -0.61780562076E-02  0.14646787723E-01  0.16154869628E-01  0.00000000000E+00 0. -1.
     999901    1    3    3    0    0  0.29498103739E-01 -0.82646866006E-01 -0.10486995357E+00  0.89056069403E+00  0.88000000000E+00 0.  1.
        -11    1    4    4    0    0 -0.15781493632E-01  0.28760869768E-01  0.62461496474E-02  0.33399381394E-01  0.51100000000E-03 0.  1.
         11    1    4    4    0    0 -0.10838582379E-01  0.60064052445E-01  0.83977016196E-01  0.10381505495E+00  0.51100000000E-03 0. -1.
</event>
<event>
 8    1  0.2123879E+004  0.1043930E+01  0.7957747E-01            NaN
         13   -1    0    0    0    0  0.00000000000E+00  0.00000000000E+00  0.74505805969E-08  0.10566000000E+00  0.10566000000E+00 0.  1.
     999900   -1    0    0    0    0 -0.00000000000E+00 -0.00000000000E+00 -0.74505805969E-08  0.93827000000E+00  0.93827000000E+00 0. -1.
     999902    2    1    2    0    0  0.15259296608E-01  0.22693673667E-01  0.78006327422E-02  0.10154923695E+01  0.10150941107E+01 0.  0.
     999903    2    3    3    0    0  0.82024767246E-01  0.58788126258E-01  0.68677145593E-01  0.13013007789E+00  0.45090804105E-01 0.  0.
         14    1    1    2    0    0 -0.15259296608E-01 -0.22693673667E-01 -0.78006327422E-02  0.28437630503E-01  0.00000000000E+00 0.  1.
     999901    1    3    3    0    0 -0.66765470639E-01 -0.36094452591E-01 -0.60876512851E-01  0.88536229160E+00  0.88000000000E+00 0.  1.
        -11    1    4    4    0    0  0.27055857717E-01  0.37849965263E-01  0.50259628861E-01  0.68490369553E-01  0.51100000000E-03 0.  1.
         11    1    4    4    0    0  0.54968909529E-01  0.20938160994E-01  0.18417516732E-01  0.61639708340E-01  0.51100000000E-03 0. -1.
</event>
<event>
 8    1  0.2123879E+004  0.1043930E+01  0.7957747E-01            NaN
         13   -1    0    0    0    0  0.00000000000E+00  0.00000000000E+00  0.74505805969E-08  0.10566000000E+00  0.10566000000E+00 0. -1.
     999900   -1    0    0    0    0 -0.00000000000E+00 -0.00000000000E+00 -0.74505805969E-08  0.93827000000E+00  0.93827000000E+00 0.  1.
     999902    2    1    2    0    0  0.54129825411E-02  0.90899122164E-02 -0.94646673843E-02  0.10297346905E+01  0.10296368418E+01 0.  0.
     999903    2    3    3    0    0 -0.33744239061E-01  0.10759414107E+00 -0.71840473715E-01  0.14118130866E+00  0.45342423709E-01 0.  0.
         14    1    1    2    0    0 -0.54129825411E-02 -0.90899122164E-02  0.94646673843E-02  0.14195309535E-01  0.00000000000E+00 0. -1.
     999901    1    3    3    0    0  0.39157221602E-01 -0.98504228856E-01  0.62375806330E-01  0.88855338181E+00  0.88000000000E+00 0. -1.
        -11    1    4    4    0    0 -0.22073229897E-01  0.47555625372E-01 -0.84752297709E-02  0.53111727737E-01  0.51100000000E-03 0.  1.
         11    1    4    4    0    0 -0.11671009165E-01  0.60038515701E-01 -0.63365243944E-01  0.88069580921E-01  0.51100000000E-03 0. -1.
</event>
<event>
 8    1  0.2123879E+004  0.1043930E+01  0.7957747E-01            NaN
         13   -1    0    0    0    0  0.00000000000E+00  0.00000000000E+00  0.74505805969E-08  0.10566000000E+00  0.10566000000E+00 0.  1.
     999900   -1    0    0    0    0 -0.00000000000E+00 -0.00000000000E+00 -0.74505805969E-08  0.93827000000E+00  0.93827000000E+00 0.  1.
     999902    2    1    2    0    0  0.77651136272E-02  0.99333361086E-02  0.36107017559E-02  0.10308149200E+01  0.10307314849E+01 0.  0.
     999903    2    3    3    0    0  0.27199274180E-02  0.12739222985E+00 -0.43033370342E-01  0.14177177422E+00  0.44846257031E-01 0.  0.
         14    1    1    2    0    0 -0.77651136272E-02 -0.99333361086E-02 -0.36107017559E-02  0.13115079987E-01  0.00000000000E+00 0. -1.
     999901    1    3    3    0    0  0.50451862092E-02 -0.11745889374E+00  0.46644072098E-01  0.88904314580E+00  0.88000000000E+00 0. -1.
        -11    1    4    4    0    0 -0.97709380539E-02  0.54790531336E-01 -0.39057769456E-01  0.67994441173E-01  0.51100000000E-03 0. -1.
         11    1    4    4    0    0  0.12490865472E-01  0.72601698517E-01 -0.39756008864E-02  0.73777333045E-01  0.51100000000E-03 0.  1.
</event>
<event>
 8    1  0.2123879E+004  0.1043930E+01  0.7957747E-01            NaN
         13   -1    0    0    0    0  0.00000000000E+00  0.00000000000E+00  0.74505805969E-08  0.10566000000E+00  0.10566000000E+00 0. -1.
     999900   -1    0    0    0    0 -0.00000000000E+00 -0.00000000000E+00 -0.74505805969E-08  0.93827000000E+00  0.93827000000E+00 0. -1.
     999902    2    1    2    0    0 -0.88511494310E-02 -0.11452350393E-01  0.29249873801E-02  0.10291633238E+01  0.10290573805E+01 0.  0.
     999903    2    3    3    0    0  0.12871868895E+00  0.65368993000E-02  0.20467283717E-01  0.13812078511E+00  0.45246100809E-01 0.  0.
         14    1    1    2    0    0  0.88511494310E-02  0.11452350393E-01 -0.29249873801E-02  0.14766676232E-01  0.00000000000E+00 0.  1.
     999901    1    3    3    0    0 -0.13756983838E+00 -0.17989249693E-01 -0.17542296337E-01  0.89104253866E+00  0.88000000000E+00 0. -1.
        -11    1    4    4    0    0  0.11380355195E+00 -0.71388877206E-02  0.26365304336E-01  0.11703675726E+00  0.51100000000E-03 0. -1.
         11    1    4    4    0    0  0.14915136998E-01  0.13675787021E-01 -0.58980206186E-02  0.21084027853E-01  0.51100000000E-03 0.  1.
</event>
<event>
 8    1  0.2123879E+004  0.1043930E+01  0.7957747E-01            NaN
         13   -1    0    0    0    0  0.00000000000E+00  0.00000000000E+00  0.74505805969E-08  0.10566000000E+00  0.10566000000E+00 0. -1.
     999900   -1    0    0    0    0 -0.00000000000E+00 -0.00000000000E+00 -0.74505805969E-08  0.93827000000E+00  0.93827000000E+00 0. -1.
     999902    2    1    2    0    0 -0.18333114457E-02 -0.61385623433E-02 -0.12369989497E-01  0.10299994717E+01  0.10299052636E+01 0.  0.
     999903    2    3    3    0    0 -0.41646627734E-01  0.11875759767E-01 -0.12796424052E+00  0.14136476226E+00  0.41637409692E-01 0.  0.
         14    1    1    2    0    0  0.18333114457E-02  0.61385623433E-02  0.12369989497E-01  0.13930528298E-01  0.00000000000E+00 0. -1.
     999901    1    3    3    0    0  0.39813316288E-01 -0.18014322110E-01  0.11559425102E+00  0.88863470944E+00  0.88000000000E+00 0.  1.
        -11    1    4    4    0    0  0.71731270164E-02 -0.20783395617E-02 -0.31216275946E-01  0.32101249998E-01  0.51100000000E-03 0.  1.
         11    1    4    4    0    0 -0.48819754751E-01  0.13954099328E-01 -0.96747964573E-01  0.10926351226E+00  0.51100000000E-03 0. -1.
</event>
<event>
 8    1  0.2123879E+004  0.1043930E+01  0.7957747E-01            NaN
         13   -1    0    0    0    0  0.00000000000E+00  0.00000000000E+00  0.74505805969E-08  0.10566000000E+00  0.10566000000E+00 0.  1.
     999900   -1    0    0    0    0 -0.00000000000E+00 -0.00000000000E+00 -0.74505805969E-08  0.93827000000E+00  0.93827000000E+00 0.  1.
     999902    2    1    2    0    0 -0.10619398550E-01  0.34204765135E-02 -0.76804044065E-02  0.10303852631E+01  0.10302962344E+01 0.  0.
     999903    2    3    3    0    0 -0.96640370587E-01 -0.60845577329E-01  0.68415009032E-01  0.14059863407E+00  0.45230707853E-01 0.  0.
         14    1    1    2    0    0  0.10619398550E-01 -0.34204765135E-02  0.76804044065E-02  0.13544736874E-01  0.00000000000E+00 0.  1.
     999901    1    3    3    0    0  0.86020972036E-01  0.64266053843E-01 -0.76095413438E-01  0.88978662906E+00  0.88000000000E+00 0.  1.
        -11    1    4    4    0    0 -0.68331663504E-02 -0.87731825724E-02 -0.62100655154E-02  0.12747036108E-01  0.51100000000E-03 0. -1.
         11    1    4    4    0    0 -0.89807204236E-01 -0.52072394757E-01  0.74625074547E-01  0.12785159796E+00  0.51100000000E-03 0.  1.
</event>
<event>
 8    1  0.2123879E+004  0.1043930E+01  0.7957747E-01            NaN
         13   -1    0    0    0    0  0.00000000000E+00  0.00000000000E+00  0.74505805969E-08  0.10566000000E+00  0.10566000000E+00 0.  1.
     999900   -1    0    0    0    0 -0.00000000000E+00 -0.00000000000E+00 -0.74505805969E-08  0.93827000000E+00  0.93827000000E+00 0.  1.
     999902    2    1    2    0    0 -0.64424729369E-02 -0.11086441862E-01  0.10613273307E-03  0.10311071331E+01  0.10310273973E+01 0.  0.
     999903    2    3    3    0    0  0.97827469670E-01 -0.79843424592E-01  0.44955918372E-01  0.14115699583E+00  0.44261457294E-01 0.  0.
         14    1    1    2    0    0  0.64424729369E-02  0.11086441862E-01 -0.10613273307E-03  0.12822866874E-01  0.00000000000E+00 0. -1.
     999901    1    3    3    0    0 -0.10426994261E+00  0.68756982731E-01 -0.44849785639E-01  0.88995013730E+00  0.88000000000E+00 0.  1.
        -11    1    4    4    0    0  0.35292630928E-01 -0.54559375776E-02  0.49267898616E-02  0.36053729793E-01  0.51100000000E-03 0.  1.
         11    1    4    4    0    0  0.62534838743E-01 -0.74387487015E-01  0.40029128511E-01  0.10510326604E+00  0.51100000000E-03 0. -1.
</event>
<event>
 8    1  0.2123879E+004  0.1043930E+01  0.7957747E-01            NaN
         13   -1    0    0    0    0  0.00000000000E+00  0.00000000000E+00  0.74505805969E-08  0.10566000000E+00  0.10566000000E+00 0. -1.
     999900   -1    0    0    0    0 -0.00000000000E+00 -0.00000000000E+00 -0.74505805969E-08  0.93827000000E+00  0.93827000000E+00 0.  1.
     999902    2    1    2    0    0  0.57958088586E-02  0.96630464376E-02 -0.81502458583E-02  0.10300234413E+01  0.10299295594E+01 0.  0.
     999903    2    3    3    0    0 -0.92325036017E-01 -0.13295434806E-01  0.93590510407E-01  0.13844844529E+00  0.41329257224E-01 0.  0.
         14    1    1    2    0    0 -0.57958088586E-02 -0.96630464376E-02  0.81502458583E-02  0.13906558680E-01  0.00000000000E+00 0. -1.
     999901    1    3    3    0    0  0.98120844875E-01  0.22958481244E-01 -0.10174075627E+00  0.89157499603E+00  0.88000000000E+00 0.  1.
        -11    1    4    4    0    0 -0.37606465362E-01  0.31516089186E-03  0.12410265388E-01  0.39605824968E-01  0.51100000000E-03 0.  1.
         11    1    4    4    0    0 -0.54718570655E-01 -0.13610595698E-01  0.81180245019E-01  0.98842620322E-01  0.51100000000E-03 0. -1.
</event>
<event>
 8    1  0.2123879E+004  0.1043930E+01  0.7957747E-01            NaN
         13   -1    0    0    0    0  0.00000000000E+00  0.00000000000E+00  0.74505805969E-08  0.10566000000E+00  0.10566000000E+00 0.  1.
     999900   -1    0    0    0    0 -0.00000000000E+00 -0.00000000000E+00 -0.74505805969E-08  0.93827000000E+00  0.93827000000E+00 0.  1.
     999902    2    1    2    0    0  0.13029310856E-01 -0.24199713502E-03 -0.40015207469E-02  0.10302979175E+01  0.10302077292E+01 0.  0.
     999903    2    3    3    0    0  0.62551114297E-01  0.10919296070E+00  0.42131743588E-01  0.14094045448E+00  0.47469814884E-01 0.  0.
         14    1    1    2    0    0 -0.13029310856E-01  0.24199713502E-03  0.40015207469E-02  0.13632082463E-01  0.00000000000E+00 0.  1.
     999901    1    3    3    0    0 -0.49521803441E-01 -0.10943495784E+00 -0.46133264335E-01  0.88935746305E+00  0.88000000000E+00 0.  1.
        -11    1    4    4    0    0  0.14614682422E-01  0.67192268510E-01  0.97575221871E-02  0.69454015363E-01  0.51100000000E-03 0. -1.
         11    1    4    4    0    0  0.47936431876E-01  0.42000692192E-01  0.32374221401E-01  0.71486439119E-01  0.51100000000E-03 0.  1.
</event>
<event>
 8    1  0.2123879E+004  0.1043930E+01  0.7957747E-01            NaN
         13   -1    0    0    0    0  0.00000000000E+00  0.00000000000E+00  0.74505805969E-08  0.10566000000E+00  0.10566000000E+00 0. -1.
     999900   -1    0    0    0    0 -0.00000000000E+00 -0.00000000000E+00 -0.74505805969E-08  0.93827000000E+00  0.93827000000E+00 0.  1.
     999902    2    1    2    0    0  0.12065413129E-01 -0.26434700945E-02 -0.84654172745E-02  0.10289558417E+01  0.10288468782E+01 0.  0.
     999903    2    3    3    0    0  0.34766855858E-01  0.38081880232E-01  0.11975197043E+00  0.13844272656E+00  0.46549868407E-01 0.  0.
         14    1    1    2    0    0 -0.12065413129E-01  0.26434700945E-02  0.84654172745E-02  0.14974158332E-01  0.00000000000E+00 0. -1.
     999901    1    3    3    0    0 -0.22701442729E-01 -0.40725350327E-01 -0.12821738770E+00  0.89051311510E+00  0.88000000000E+00 0.  1.
        -11    1    4    4    0    0  0.36116712856E-01  0.47517352372E-01  0.99003503446E-01  0.11560393825E+00  0.51100000000E-03 0.  1.
         11    1    4    4    0    0 -0.13498569976E-02 -0.94354721396E-02  0.20748466983E-01  0.22838788312E-01  0.51100000000E-03 0. -1.
</event>
<event>
 8    1  0.2123879E+004  0.1043930E+01  0.7957747E-01            NaN
         13   -1    0    0    0    0  0.00000000000E+00  0.00000000000E+00  0.74505805969E-08  0.10566000000E+00  0.10566000000E+00 0. -1.
     999900   -1    0    0    0    0 -0.00000000000E+00 -0.00000000000E+00 -0.74505805969E-08  0.93827000000E+00  0.93827000000E+00 0. -1.
     999902    2    1    2    0    0 -0.76220654359E-02  0.69736101835E-02 -0.88036202104E-02  0.10303568335E+01  0.10302674281E+01 0.  0.
     999903    2    3    3    0    0 -0.44933299366E-01 -0.17554885747E-01 -0.12571658914E+00  0.14150227980E+00  0.43486308172E-01 0.  0.
         14    1    1    2    0    0  0.76220654359E-02 -0.69736101835E-02  0.88036202104E-02  0.13573166517E-01  0.00000000000E+00 0. -1.
     999901    1    3    3    0    0  0.37311233930E-01  0.24528495930E-01  0.11691296893E+00  0.88885455368E+00  0.88000000000E+00 0.  1.
        -11    1    4    4    0    0 -0.53533184709E-02 -0.26980022938E-03 -0.73674547711E-01  0.73871042447E-01  0.51100000000E-03 0. -1.
         11    1    4    4    0    0 -0.39579980895E-01 -0.17285085517E-01 -0.52042041433E-01  0.67631237357E-01  0.51100000000E-03 0.  1.
</event>
<event>
 8    1  0.2123879E+004  0.1043930E+01  0.7957747E-01            NaN
         13   -1    0    0    0    0  0.00000000000E+00  0.00000000000E+00  0.74505805969E-08  0.10566000000E+00  0.10566000000E+00 0. -1.
     999900   -1    0    0    0    0 -0.00000000000E+00 -0.00000000000E+00 -0.74505805969E-08  0.93827000000E+00  0.93827000000E+00 0. -1.
     999902    2    1    2    0    0  0.56014486331E-02 -0.11468086861E-01 -0.72300973415E-03  0.10311465738E+01  0.10310673308E+01 0.  0.
     999903    2    3    3    0    0 -0.11310300857E+00 -0.59743671027E-01  0.39133332280E-01  0.14097254125E+00  0.44499920388E-01 0.  0.
         14    1    1    2    0    0 -0.56014486331E-02  0.11468086861E-01  0.72300973415E-03  0.12783426228E-01  0.00000000000E+00 0. -1.
     999901    1    3    3    0    0  0.11870445720E+00  0.48275584166E-01 -0.39856342014E-01  0.89017403253E+00  0.88000000000E+00 0. -1.
        -11    1    4    4    0    0 -0.31497720428E-01 -0.40510535284E-01  0.19211309681E-01  0.54795487057E-01  0.51100000000E-03 0.  1.
         11    1    4    4    0    0 -0.81605288142E-01 -0.19233135743E-01  0.19922022600E-01  0.86177054189E-01  0.51100000000E-03 0. -1.
</event>
<event>
 8    1  0.2123879E+004  0.1043930E+01  0.7957747E-01            NaN
         13   -1    0    0    0    0  0.00000000000E+00  0.00000000000E+00  0.74505805969E-08  0.10566000000E+00  0.10566000000E+00 0.  1.
     999900   -1    0    0    0    0 -0.00000000000E+00 -0.00000000000E+00 -0.74505805969E-08  0.93827000000E+00  0.93827000000E+00 0.  1.
     999902    2    1    2    0    0 -0.42875089645E-02 -0.64376331728E-02 -0.10750648104E-01  0.10306860471E+01  0.10306009535E+01 0.  0.
     999903    2    3    3    0    0 -0.10803316496E+00 -0.38741502470E-01 -0.70269368913E-01  0.14200771426E+00  0.45346862718E-01 0.  0.
         14    1    1    2    0    0  0.42875089645E-02  0.64376331728E-02  0.10750648104E-01  0.13243952909E-01  0.00000000000E+00 0.  1.
     999901    1    3    3    0    0  0.10374565599E+00  0.32303869297E-01  0.59518720808E-01  0.88867833283E+00  0.88000000000E+00 0. -1.
        -11    1    4    4    0    0 -0.73042924722E-01 -0.29498198899E-02 -0.46059091056E-01  0.86404116101E-01  0.51100000000E-03 0. -1.
         11    1    4    4    0    0 -0.34990240238E-01 -0.35791682580E-01 -0.24210277857E-01  0.55603598163E-01  0.51100000000E-03 0.  1.
</event>
<event>
 8    1  0.2123879E+004  0.1043930E+01  0.7957747E-01            NaN
         13   -1    0    0    0    0  0.00000000000E+00  0.00000000000E+00  0.74505805969E-08  0.10566000000E+00  0.10566000000E+00 0.  1.
     999900   -1    0    0    0    0 -0.00000000000E+00 -0.00000000000E+00 -0.74505805969E-08  0.93827000000E+00  0.93827000000E+00 0.  1.
     999902    2    1    2    0    0 -0.37806245130E-02 -0.13362952528E-01 -0.43392603770E-02  0.10293804020E+01  0.10292775725E+01 0.  0.
     999903    2    3    3    0    0  0.10122923327E+00 -0.83810212635E-01 -0.58108860695E-02  0.14034044091E+00  0.48889298909E-01 0.  0.
         14    1    1    2    0    0  0.37806245130E-02  0.13362952528E-01  0.43392603770E-02  0.14549598021E-01  0.00000000000E+00 0.  1.
     999901    1    3    3    0    0 -0.10500985779E+00  0.70447260107E-01  0.14716256925E-02  0.88903996107E+00  0.88000000000E+00 0. -1.
        -11    1    4    4    0    0  0.99627768189E-01 -0.63993657315E-01  0.33185217566E-02  0.11845739352E+00  0.51100000000E-03 0.  1.
         11    1    4    4    0    0  0.16014650845E-02 -0.19816555320E-01 -0.91294078261E-02  0.21883047398E-01  0.51100000000E-03 0. -1.
</event>
<event>
 8    1  0.2123879E+004  0.1043930E+01  0.7957747E-01            NaN
         13   -1    0    0    0    0  0.00000000000E+00  0.00000000000E+00  0.74505805969E-08  0.10566000000E+00  0.10566000000E+00 0.  1.
     999900   -1    0    0    0    0 -0.00000000000E+00 -0.00000000000E+00 -0.74505805969E-08  0.93827000000E+00  0.93827000000E+00 0.  1.
     999902    2    1    2    0    0 -0.57722225548E-02  0.42726681416E-02 -0.11117927151E-01  0.10306943455E+01  0.10306093592E+01 0.  0.
     999903    2    3    3    0    0  0.12939236241E+00  0.30858284304E-01 -0.35905389163E-02  0.13994582790E+00  0.43328115779E-01 0.  0.
         14    1    1    2    0    0  0.57722225548E-02 -0.42726681416E-02  0.11117927151E-01  0.13235654514E-01  0.00000000000E+00 0.  1.
     999901    1    3    3    0    0 -0.13516458496E+00 -0.26585616162E-01 -0.75273882346E-02  0.89074851759E+00  0.88000000000E+00 0. -1.
        -11    1    4    4    0    0  0.37353107043E-01  0.24506993663E-01 -0.14667091864E-01  0.47023739205E-01  0.51100000000E-03 0. -1.
         11    1    4    4    0    0  0.92039255363E-01  0.63512906410E-02  0.11076552947E-01  0.92922088692E-01  0.51100000000E-03 0.  1.
</event>
<event>
 8    1  0.2123879E+004  0.1043930E+01  0.7957747E-01            NaN
         13   -1    0    0    0    0  0.00000000000E+00  0.00000000000E+00  0.74505805969E-08  0.10566000000E+00  0.10566000000E+00 0. -1.
     999900   -1    0    0    0    0 -0.00000000000E+00 -0.00000000000E+00 -0.74505805969E-08  0.93827000000E+00  0.93827000000E+00 0.  1.
     999902    2    1    2    0    0  0.86686797809E-02 -0.33862134611E-02  0.10600601567E-01  0.10298237884E+01  0.10297271726E+01 0.  0.
     999903    2    3    3    0    0  0.91795345861E-01  0.16839696244E-01  0.96314470449E-01  0.14152991964E+00  0.45213715235E-01 0.  0.
         14    1    1    2    0    0 -0.86686797809E-02  0.33862134611E-02 -0.10600601567E-01  0.14106211552E-01  0.00000000000E+00 0.  1.
     999901    1    3    3    0    0 -0.83126666080E-01 -0.20225909706E-01 -0.85713868881E-01  0.88829386880E+00  0.88000000000E+00 0.  1.
        -11    1    4    4    0    0  0.16806057084E-01  0.17574060735E-01  0.78547722995E-02  0.25558750641E-01  0.51100000000E-03 0. -1.
         11    1    4    4    0    0  0.74989288776E-01 -0.73436449044E-03  0.88459698149E-01  0.11597116900E+00  0.51100000000E-03 0.  1.
</event>
<event>
 8    1  0.2123879E+004  0.1043930E+01  0.7957747E-01            NaN
         13   -1    0    0    0    0  0.00000000000E+00  0.00000000000E+00  0.74505805969E-08  0.10566000000E+00  0.10566000000E+00 0.  1.
     999900   -1    0    0    0    0 -0.00000000000E+00 -0.00000000000E+00 -0.74505805969E-08  0.93827000000E+00  0.93827000000E+00 0.  1.
     999902    2    1    2    0    0  0.28170879575E-02 -0.59915304549E-02  0.11794160650E-01  0.10304045925E+01  0.10303158194E+01 0.  0.
     999903    2    3    3    0    0  0.42151024777E-02 -0.94816499770E-01  0.95620882393E-01  0.14196846714E+00  0.44763342098E-01 0.  0.
         14    1    1    2    0    0 -0.28170879575E-02  0.59915304549E-02 -0.11794160650E-01  0.13525407468E-01  0.00000000000E+00 0. -1.
     999901    1    3    3    0    0 -0.13980145202E-02  0.88824969315E-01 -0.83826721743E-01  0.88843612539E+00  0.88000000000E+00 0.  1.
        -11    1    4    4    0    0 -0.11665215639E-01 -0.65162375344E-01  0.41154639201E-01  0.77949841983E-01  0.51100000000E-03 0. -1.
         11    1    4    4    0    0  0.15880318116E-01 -0.29654124425E-01  0.54466243191E-01  0.64018625159E-01  0.51100000000E-03 0.  1.
</event>
<event>
 8    1  0.2123879E+004  0.1043930E+01  0.7957747E-01            NaN
         13   -1    0    0    0    0  0.00000000000E+00  0.00000000000E+00  0.74505805969E-08  0.10566000000E+00  0.10566000000E+00 0. -1.
     999900   -1    0    0    0    0 -0.00000000000E+00 -0.00000000000E+00 -0.74505805969E-08  0.93827000000E+00  0.93827000000E+00 0. -1.
     999902    2    1    2    0    0 -0.12413932033E-01  0.11987128635E-02  0.59560501282E-02  0.10301091044E+01  0.10300163833E+01 0.  0.
     999903    2    3    3    0    0 -0.11199526636E+00  0.37346349437E-01 -0.62468577018E-01  0.14111809021E+00  0.45544514116E-01 0.  0.
         14    1    1    2    0    0  0.12413932033E-01 -0.11987128635E-02 -0.59560501282E-02  0.13820895563E-01  0.00000000000E+00 0. -1.
     999901    1    3    3    0    0  0.99581334329E-01 -0.36147636574E-01  0.68424627146E-01  0.88899101423E+00  0.88000000000E+00 0.  1.
        -11    1    4    4    0    0 -0.80978583309E-01  0.36662355011E-01 -0.24744012333E-01  0.92272349580E-01  0.51100000000E-03 0.  1.
         11    1    4    4    0    0 -0.31016683053E-01  0.68399442636E-03 -0.37724564685E-01  0.48845740630E-01  0.51100000000E-03 0. -1.
</event>
<event>
 8    1  0.2123879E+004  0.1043930E+01  0.7957747E-01            NaN
         13   -1    0    0    0    0  0.00000000000E+00  0.00000000000E+00  0.74505805969E-08  0.10566000000E+00  0.10566000000E+00 0.  1.
     999900   -1    0    0    0    0 -0.00000000000E+00 -0.00000000000E+00 -0.74505805969E-08  0.93827000000E+00  0.93827000000E+00 0. -1.
     999902    2    1    2    0    0 -0.75815421385E-02 -0.97158081496E-02 -0.47137176273E-02  0.10307354616E+01  0.10306510059E+01 0.  0.
     999903    2    3    3    0    0 -0.11057081165E+00  0.70500403512E-02 -0.75626510018E-01  0.14173798838E+00  0.45767683723E-01 0.  0.
         14    1    1    2    0    0  0.75815421385E-02  0.97158081496E-02  0.47137176273E-02  0.13194538380E-01  0.00000000000E+00 0.  1.
     999901    1    3    3    0    0  0.10298926951E+00 -0.16765848501E-01  0.70912792390E-01  0.88899747324E+00  0.88000000000E+00 0. -1.
        -11    1    4    4    0    0 -0.80237715582E-01  0.24669404458E-01 -0.45436522872E-01  0.95453702128E-01  0.51100000000E-03 0.  1.
         11    1    4    4    0    0 -0.30333096068E-01 -0.17619364107E-01 -0.30189987145E-01  0.46284286247E-01  0.51100000000E-03 0. -1.
</event>
<event>
 8    1  0.2123879E+004  0.1043930E+01  0.7957747E-01            NaN
         13   -1    0    0    0    0  0.00000000000E+00  0.00000000000E+00  0.74505805969E-08  0.10566000000E+00  0.10566000000E+00 0.  1.
     999900   -1    0    0    0    0 -0.00000000000E+00 -0.00000000000E+00 -0.74505805969E-08  0.93827000000E+00  0.93827000000E+00 0.  1.
     999902    2    1    2    0    0  0.49184801894E-02 -0.12106999409E-01 -0.31403374465E-02  0.10304900372E+01  0.10304023894E+01 0.  0.
     999903    2    3    3    0    0  0.74121284465E-01  0.81475877773E-01 -0.73851494150E-01  0.14001440542E+00  0.44918894335E-01 0.  0.
         14    1    1    2    0    0 -0.49184801894E-02  0.12106999409E-01  0.31403374465E-02  0.13439962847E-01  0.00000000000E+00 0.  1.
     999901    1    3    3    0    0 -0.69202804276E-01 -0.93582877182E-01  0.70711156704E-01  0.89047563173E+00  0.88000000000E+00 0. -1.
        -11    1    4    4    0    0  0.34935983771E-01  0.64506267969E-01 -0.61024904049E-01  0.95424743146E-01  0.51100000000E-03 0. -1.
         11    1    4    4    0    0  0.39185300694E-01  0.16969609804E-01 -0.12826590101E-01  0.44589662278E-01  0.51100000000E-03 0.  1.
</event>
<event>
 8    1  0.2123879E+004  0.1043930E+01  0.7957747E-01            NaN
         13   -1    0    0    0    0  0.00000000000E+00  0.00000000000E+00  0.74505805969E-08  0.10566000000E+00  0.10566000000E+00 0. -1.
     999900   -1    0    0    0    0 -0.00000000000E+00 -0.00000000000E+00 -0.74505805969E-08  0.93827000000E+00  0.93827000000E+00 0.  1.
     999902    2    1    2    0    0  0.90322816629E-02  0.10948161649E-01 -0.26881973214E-02  0.10294845592E+01  0.10293832070E+01 0.  0.
     999903    2    3    3    0    0  0.12602390888E+00 -0.34114143313E-01  0.24491601373E-01  0.14018348889E+00  0.44785841931E-01 0.  0.
         14    1    1    2    0    0 -0.90322816629E-02 -0.10948161649E-01  0.26881973214E-02  0.14445440816E-01  0.00000000000E+00 0. -1.
     999901    1    3    3    0    0 -0.11699162721E+00  0.45062304962E-01 -0.27179798694E-01  0.88930107029E+00  0.88000000000E+00 0.  1.
        -11    1    4    4    0    0  0.91795716727E-01 -0.33620389473E-01 -0.55896247391E-03  0.97761739744E-01  0.51100000000E-03 0. -1.
         11    1    4    4    0    0  0.34228192149E-01 -0.49375384005E-03  0.25050563847E-01  0.42421749147E-01  0.51100000000E-03 0.  1.
</event>
<event>
 8    1  0.2123879E+004  0.1043930E+01  0.7957747E-01            NaN
         13   -1    0    0    0    0  0.00000000000E+00  0.00000000000E+00  0.74505805969E-08  0.10566000000E+00  0.10566000000E+00 0. -1.
     999900   -1    0    0    0    0 -0.00000000000E+00 -0.00000000000E+00 -0.74505805969E-08  0.93827000000E+00  0.93827000000E+00 0.  1.
     999902    2    1    2    0    0  0.12627594534E-01 -0.50367098780E-02  0.22008467287E-02  0.10301579879E+01  0.10300659259E+01 0.  0.
     999903    2    3    3    0    0  0.21785329742E-03  0.13079169878E+00  0.18861544037E-01  0.13949478721E+00  0.44682456139E-01 0.  0.
         14    1    1    2    0    0 -0.12627594534E-01  0.50367098780E-02 -0.22008467287E-02  0.13772012069E-01  0.00000000000E+00 0. -1.
     999901    1    3    3    0    0  0.12409741236E-01 -0.13582840866E+00 -0.16660697309E-01  0.89066320072E+00  0.88000000000E+00 0. -1.
        -11    1    4    4    0    0  0.21601900263E-01  0.83751708033E-01  0.10091806615E-01  0.87080975965E-01  0.51100000000E-03 0. -1.
         11    1    4    4    0    0 -0.21384046966E-01  0.47039990748E-01  0.87697374221E-02  0.52413811249E-01  0.51100000000E-03 0.  1.
</event>
<event>
 8    1  0.2123879E+004  0.1043930E+01  0.7957747E-01            NaN
         13   -1    0    0    0    0  0.00000000000E+00  0.00000000000E+00  0.74505805969E-08  0.10566000000E+00  0.10566000000E+00 0. -1.
     999900   -1    0    0    0    0 -0.00000000000E+00 -0.00000000000E+00 -0.74505805969E-08  0.93827000000E+00  0.93827000000E+00 0. -1.
     999902    2    1    2    0    0  0.91104681486E-02  0.83526385988E-02 -0.57730185603E-02  0.10302883379E+01  0.10301980219E+01 0.  0.
     999903    2    3    3    0    0  0.30574995761E-01 -0.12186440562E+00 -0.41643111020E-01  0.13972454564E+00  0.44755292850E-01 0.  0.
         14    1    1    2    0    0 -0.91104681486E-02 -0.83526385988E-02  0.57730185603E-02  0.13641662096E-01  0.00000000000E+00 0.  1.
     999901    1    3    3    0    0 -0.21464527613E-01  0.13021704422E+00  0.35870092459E-01  0.89056379226E+00  0.88000000000E+00 0.  1.
        -11    1    4    4    0    0  0.36641739029E-02 -0.92249640268E-01 -0.36904090451E-01  0.99426331085E-01  0.51100000000E-03 0.  1.
         11    1    4    4    0    0  0.26910821858E-01 -0.29614765349E-01 -0.47390205686E-02  0.40298214560E-01  0.51100000000E-03 0. -1.
</event>
<event>
 8    1  0.2123879E+004  0.1043930E+01  0.7957747E-01            NaN
         13   -1    0    0    0    0  0.00000000000E+00  0.00000000000E+00  0.74505805969E-08  0.10566000000E+00  0.10566000000E+00 0. -1.
     999900   -1    0    0    0    0 -0.00000000000E+00 -0.00000000000E+00 -0.74505805969E-08  0.93827000000E+00  0.93827000000E+00 0. -1.
     999902    2    1    2    0    0 -0.10086962161E-01 -0.85034897224E-02 -0.45558624634E-02  0.10299724921E+01  0.10298779163E+01 0.  0.
     999903    2    3    3    0    0  0.99696706105E-01 -0.16969241591E-01  0.83198639918E-01  0.13877948528E+00  0.45938474966E-01 0.  0.
         14    1    1    2    0    0  0.10086962161E-01  0.85034897224E-02  0.45558624634E-02  0.13957507868E-01  0.00000000000E+00 0. -1.
     999901    1    3    3    0    0 -0.10978366827E+00  0.84657518684E-02 -0.87754502381E-01  0.89119300685E+00  0.88000000000E+00 0. -1.
        -11    1    4    4    0    0  0.64309189111E-01 -0.17070151014E-02  0.75996251618E-01  0.99570462918E-01  0.51100000000E-03 0. -1.
         11    1    4    4    0    0  0.35387516994E-01 -0.15262226489E-01  0.72023882996E-02  0.39209022363E-01  0.51100000000E-03 0.  1.
</event>
<event>
 8    1  0.2123879E+004  0.1043930E+01  0.7957747E-01            NaN
         13   -1    0    0    0    0  0.00000000000E+00  0.00000000000E+00  0.74505805969E-08  0.10566000000E+00  0.10566000000E+00 0.  1.
     999900   -1    0    0    0    0 -0.00000000000E+00 -0.00000000000E+00 -0.74505805969E-08  0.93827000000E+00  0.93827000000E+00 0.  1.
     999902    2    1    2    0    0  0.87149637402E-02 -0.11471214048E-01 -0.20863486691E-02  0.10293734827E+01  0.10292705547E+01 0.  0.
     999903    2    3    3    0    0 -0.13008099813E+00 -0.20021494460E-02 -0.13941559567E-01  0.13836589114E+00  0.45007533480E-01 0.  0.
         14    1    1    2    0    0 -0.87149637402E-02  0.11471214048E-01  0.20863486691E-02  0.14556517286E-01  0.00000000000E+00 0. -1.
     999901    1    3    3    0    0  0.13879596187E+00 -0.94690646016E-02  0.11855210898E-01  0.89100759157E+00  0.88000000000E+00 0. -1.
        -11    1    4    4    0    0 -0.54339608897E-01  0.66587330704E-02 -0.26958627874E-01  0.61025900723E-01  0.51100000000E-03 0. -1.
         11    1    4    4    0    0 -0.75741389237E-01 -0.86608825164E-02  0.13017068306E-01  0.77339990418E-01  0.51100000000E-03 0.  1.
</event>
<event>
 8    1  0.2123879E+004  0.1043930E+01  0.7957747E-01            NaN
         13   -1    0    0    0    0  0.00000000000E+00  0.00000000000E+00  0.74505805969E-08  0.10566000000E+00  0.10566000000E+00 0.  1.
     999900   -1    0    0    0    0 -0.00000000000E+00 -0.00000000000E+00 -0.74505805969E-08  0.93827000000E+00  0.93827000000E+00 0. -1.
     999902    2    1    2    0    0  0.35544280235E-02 -0.14980347676E-01  0.58554217624E-02  0.10274578799E+01  0.10273258316E+01 0.  0.
     999903    2    3    3    0    0  0.52818525786E-02 -0.10666974364E+00 -0.76275552818E-01  0.13888856565E+00  0.45450429422E-01 0.  0.
         14    1    1    2    0    0 -0.35544280235E-02  0.14980347676E-01 -0.58554217624E-02  0.16472120054E-01  0.00000000000E+00 0. -1.
     999901    1    3    3    0    0 -0.17274245551E-02  0.91689395966E-01  0.82130974580E-01  0.88856931430E+00  0.88000000000E+00 0.  1.
        -11    1    4    4    0    0  0.20250371139E-01 -0.68248127052E-01 -0.64343199915E-01  0.95959329268E-01  0.51100000000E-03 0.  1.
         11    1    4    4    0    0 -0.14968518561E-01 -0.38421616590E-01 -0.11932352903E-01  0.42929236379E-01  0.51100000000E-03 0. -1.
</event>
<event>
 8    1  0.2123879E+004  0.1043930E+01  0.7957747E-01            NaN
         13   -1    0    0    0    0  0.00000000000E+00  0.00000000000E+00  0.74505805969E-08  0.10566000000E+00  0.10566000000E+00 0. -1.
     999900   -1    0    0    0    0 -0.00000000000E+00 -0.00000000000E+00 -0.74505805969E-08  0.93827000000E+00  0.93827000000E+00 0.  1.
     999902    2    1    2    0    0 -0.11838451367E-01 -0.58654200458E-02 -0.51830017505E-02  0.10297379040E+01  0.10296400999E+01 0.  0.
     999903    2    3    3    0    0 -0.40365681648E-02 -0.13864063898E-01  0.13009781849E+00  0.13933027370E+00  0.47738628415E-01 0.  0.
         14    1    1    2    0    0  0.11838451367E-01  0.58654200458E-02  0.51830017505E-02  0.14192096048E-01  0.00000000000E+00 0.  1.
     999901    1    3    3    0    0 -0.78018832024E-02  0.79986438523E-02 -0.13528082024E+00  0.89040763025E+00  0.88000000000E+00 0.  1.
        -11    1    4    4    0    0 -0.42733949905E-02  0.16569637314E-01  0.28262082882E-01  0.33042718340E-01  0.51100000000E-03 0. -1.
         11    1    4    4    0    0  0.23682682569E-03 -0.30433701212E-01  0.10183573561E+00  0.10628755536E+00  0.51100000000E-03 0.  1.
</event>
<event>
 8    1  0.2123879E+004  0.1043930E+01  0.7957747E-01            NaN
         13   -1    0    0    0    0  0.00000000000E+00  0.00000000000E+00  0.74505805969E-08  0.10566000000E+00  0.10566000000E+00 0. -1.
     999900   -1    0    0    0    0 -0.00000000000E+00 -0.00000000000E+00 -0.74505805969E-08  0.93827000000E+00  0.93827000000E+00 0. -1.
     999902    2    1    2    0    0  0.26045631076E-02  0.12075240208E-01 -0.61526839802E-03  0.10315617451E+01  0.10314875957E+01 0.  0.
     999903    2    3    3    0    0  0.13899483553E-01 -0.83735819686E-01 -0.10253042458E+00  0.14044220567E+00  0.44795558107E-01 0.  0.
         14    1    1    2    0    0 -0.26045631076E-02 -0.12075240208E-01  0.61526839802E-03  0.12368254940E-01  0.00000000000E+00 0. -1.
     999901    1    3    3    0    0 -0.11294920445E-01  0.95811059894E-01  0.10191515618E+00  0.89111953939E+00  0.88000000000E+00 0.  1.
        -11    1    4    4    0    0  0.29689321950E-01 -0.65001175839E-01 -0.75560724217E-01  0.10400140799E+00  0.51100000000E-03 0. -1.
         11    1    4    4    0    0 -0.15789838398E-01 -0.18734643847E-01 -0.26969700365E-01  0.36440797679E-01  0.51100000000E-03 0.  1.
</event>
<event>
 8    1  0.2123879E+004  0.1043930E+01  0.7957747E-01            NaN
         13   -1    0    0    0    0  0.00000000000E+00  0.00000000000E+00  0.74505805969E-08  0.10566000000E+00  0.10566000000E+00 0. -1.
     999900   -1    0    0    0    0 -0.00000000000E+00 -0.00000000000E+00 -0.74505805969E-08  0.93827000000E+00  0.93827000000E+00 0.  1.
     999902    2    1    2    0    0  0.17696571537E-02  0.12517798954E-01 -0.61121206540E-02  0.10298877425E+01  0.10297920067E+01 0.  0.
     999903    2    3    3    0    0 -0.13071010725E+00  0.13227085794E-03 -0.21368590642E-01  0.13975457877E+00  0.44604663278E-01 0.  0.
         14    1    1    2    0    0 -0.17696571537E-02 -0.12517798954E-01  0.61121206540E-02  0.14042257510E-01  0.00000000000E+00 0. -1.
     999901    1    3    3    0    0  0.13247976441E+00  0.12385528096E-01  0.15256469988E-01  0.89013316372E+00  0.88000000000E+00 0.  1.
        -11    1    4    4    0    0 -0.29329110136E-01  0.11426832081E-01 -0.20821894356E-01  0.37743629904E-01  0.51100000000E-03 0. -1.
         11    1    4    4    0    0 -0.10138099712E+00 -0.11294561224E-01 -0.54669628620E-03  0.10201094886E+00  0.51100000000E-03 0.  1.
</event>
<event>
 8    1  0.2123879E+004  0.1043930E+01  0.7957747E-01            NaN
         13   -1    0    0    0    0  0.00000000000E+00  0.00000000000E+00  0.74505805969E-08  0.10566000000E+00  0.10566000000E+00 0. -1.
     999900   -1    0    0    0    0 -0.00000000000E+00 -0.00000000000E+00 -0.74505805969E-08  0.93827000000E+00  0.93827000000E+00 0.  1.
     999902    2    1    2    0    0  0.89324588190E-02 -0.11998759709E-01  0.55531179847E-02  0.10279739299E+01  0.10278500884E+01 0.  0.
     999903    2    3    3    0    0  0.51906361645E-01 -0.63331102429E-01  0.10395823814E+00  0.13996191788E+00  0.45573284581E-01 0.  0.
         14    1    1    2    0    0 -0.89324588190E-02  0.11998759709E-01 -0.55531179847E-02  0.15956070144E-01  0.00000000000E+00 0.  1.
     999901    1    3    3    0    0 -0.42973902826E-01  0.51332342721E-01 -0.98405120151E-01  0.88801201197E+00  0.88000000000E+00 0.  1.
        -11    1    4    4    0    0  0.40861136068E-01 -0.69032311892E-01  0.96371611409E-01  0.12539075378E+00  0.51100000000E-03 0.  1.
         11    1    4    4    0    0  0.11045225577E-01  0.57012094625E-02  0.75866267261E-02  0.14571164108E-01  0.51100000000E-03 0. -1.
</event>
<event>
 8    1  0.2123879E+004  0.1043930E+01  0.7957747E-01            NaN
         13   -1    0    0    0    0  0.00000000000E+00  0.00000000000E+00  0.74505805969E-08  0.10566000000E+00  0.10566000000E+00 0.  1.
     999900   -1    0    0    0    0 -0.00000000000E+00 -0.00000000000E+00 -0.74505805969E-08  0.93827000000E+00  0.93827000000E+00 0.  1.
     999902    2    1    2    0    0  0.23404738665E-02 -0.32579940862E-02 -0.13741413966E-01  0.10296150148E+01  0.10295154977E+01 0.  0.
     999903    2    3    3    0    0  0.11475268837E+00  0.10118177397E-01  0.62491217514E-01  0.13909446926E+00  0.46600022637E-01 0.  0.
         14    1    1    2    0    0 -0.23404738665E-02  0.32579940862E-02  0.13741413966E-01  0.14314985196E-01  0.00000000000E+00 0.  1.
     999901    1    3    3    0    0 -0.11241221451E+00 -0.13376171484E-01 -0.76232631480E-01  0.89052054554E+00  0.88000000000E+00 0.  1.
        -11    1    4    4    0    0  0.66746940306E-01 -0.14001955869E-02  0.59834162904E-01  0.89652120774E-01  0.51100000000E-03 0.  1.
         11    1    4    4    0    0  0.48005748066E-01  0.11518372984E-01  0.26570546105E-02  0.49442348485E-01  0.51100000000E-03 0. -1.
</event>
<event>
 8    1  0.2123879E+004  0.1043930E+01  0.7957747E-01            NaN
         13   -1    0    0    0    0  0.00000000000E+00  0.00000000000E+00  0.74505805969E-08  0.10566000000E+00  0.10566000000E+00 0. -1.
     999900   -1    0    0    0    0 -0.00000000000E+00 -0.00000000000E+00 -0.74505805969E-08  0.93827000000E+00  0.93827000000E+00 0.  1.
     999902    2    1    2    0    0  0.12111631057E-01  0.15694283941E-02  0.71666773804E-02  0.10297696336E+01  0.10296722694E+01 0.  0.
     999903    2    3    3    0    0 -0.60455717629E-01 -0.10837032965E+00  0.43858843536E-01  0.13920852644E+00  0.45347475516E-01 0.  0.
         14    1    1    2    0    0 -0.12111631057E-01 -0.15694283941E-02 -0.71666773804E-02  0.14160366416E-01  0.00000000000E+00 0. -1.
     999901    1    3    3    0    0  0.72567348686E-01  0.10993975804E+00 -0.36692166156E-01  0.89056110714E+00  0.88000000000E+00 0. -1.
        -11    1    4    4    0    0 -0.43910374151E-01 -0.80208333290E-01  0.97189218848E-02  0.91957687286E-01  0.51100000000E-03 0.  1.
         11    1    4    4    0    0 -0.16545343478E-01 -0.28161996361E-01  0.34139921651E-01  0.47250839158E-01  0.51100000000E-03 0. -1.
</event>
<event>
 8    1  0.2123879E+004  0.1043930E+01  0.7957747E-01            NaN
         13   -1    0    0    0    0  0.00000000000E+00  0.00000000000E+00  0.74505805969E-08  0.10566000000E+00  0.10566000000E+00 0. -1.
     999900   -1    0    0    0    0 -0.00000000000E+00 -0.00000000000E+00 -0.74505805969E-08  0.93827000000E+00  0.93827000000E+00 0. -1.
     999902    2    1    2    0    0  0.20231334518E-02 -0.70151789897E-02  0.11230394561E-01  0.10305349424E+01  0.10304478832E+01 0.  0.
     999903    2    3    3    0    0 -0.13001885873E+00 -0.15986785937E-01  0.23130638564E-01  0.14055899150E+00  0.45401791815E-01 0.  0.
         14    1    1    2    0    0 -0.20231334518E-02  0.70151789897E-02 -0.11230394561E-01  0.13395057567E-01  0.00000000000E+00 0.  1.
     999901    1    3    3    0    0  0.13204199219E+00  0.89716069473E-02 -0.11900244004E-01  0.88997595093E+00  0.88000000000E+00 0.  1.
        -11    1    4    4    0    0 -0.85056874873E-01  0.63091894395E-02  0.28863332871E-01  0.90043494712E-01  0.51100000000E-03 0. -1.
         11    1    4    4    0    0 -0.44961983862E-01 -0.22295975376E-01 -0.57326943066E-02  0.50515496788E-01  0.51100000000E-03 0.  1.
</event>
<event>
 8    1  0.2123879E+004  0.1043930E+01  0.7957747E-01            NaN
         13   -1    0    0    0    0  0.00000000000E+00  0.00000000000E+00  0.74505805969E-08  0.10566000000E+00  0.10566000000E+00 0. -1.
     999900   -1    0    0    0    0 -0.00000000000E+00 -0.00000000000E+00 -0.74505805969E-08  0.93827000000E+00  0.93827000000E+00 0.  1.
     999902    2    1    2    0    0 -0.52079940110E-02  0.54956377282E-02 -0.11553358577E-01  0.10301167697E+01  0.10300241521E+01 0.  0.
     999903    2    3    3    0    0 -0.79984179478E-01  0.27627586547E-01 -0.10461749901E+00  0.14177998940E+00  0.44676523927E-01 0.  0.
         14    1    1    2    0    0  0.52079940110E-02 -0.54956377282E-02  0.11553358577E-01  0.13813230254E-01  0.00000000000E+00 0. -1.
     999901    1    3    3    0    0  0.74776185467E-01 -0.22131948819E-01  0.93064140438E-01  0.88833678034E+00  0.88000000000E+00 0. -1.
        -11    1    4    4    0    0 -0.69001335989E-01  0.12735075647E-01 -0.56057514082E-01  0.89811316247E-01  0.51100000000E-03 0. -1.
         11    1    4    4    0    0 -0.10982843489E-01  0.14892510900E-01 -0.48559984933E-01  0.51968673157E-01  0.51100000000E-03 0.  1.
</event>
<event>
 8    1  0.2123879E+004  0.1043930E+01  0.7957747E-01            NaN
         13   -1    0    0    0    0  0.00000000000E+00  0.00000000000E+00  0.74505805969E-08  0.10566000000E+00  0.10566000000E+00 0.  1.
     999900   -1    0    0    0    0 -0.00000000000E+00 -0.00000000000E+00 -0.74505805969E-08  0.93827000000E+00  0.93827000000E+00 0. -1.
     999902    2    1    2    0    0 -0.60989742204E-02 -0.99126496016E-02 -0.74288472115E-02  0.10301225426E+01  0.10300300029E+01 0.  0.
     999903    2    3    3    0    0 -0.89070708600E-01  0.72754251276E-01  0.68004563389E-01  0.13916332657E+00  0.38923496915E-01 0.  0.
         14    1    1    2    0    0  0.60989742204E-02  0.99126496016E-02  0.74288472115E-02  0.13807457389E-01  0.00000000000E+00 0. -1.
     999901    1    3    3    0    0  0.82971734379E-01 -0.82666900878E-01 -0.75433410600E-01  0.89095921604E+00  0.88000000000E+00 0.  1.
        -11    1    4    4    0    0 -0.17483163769E-01  0.25498685930E-01  0.36367171052E-01  0.47735482095E-01  0.51100000000E-03 0.  1.
         11    1    4    4    0    0 -0.71587544831E-01  0.47255565347E-01  0.31637392337E-01  0.91427844479E-01  0.51100000000E-03 0. -1.
</event>
<event>
 8    1  0.2123879E+004  0.1043930E+01  0.7957747E-01            NaN
         13   -1    0    0    0    0  0.00000000000E+00  0.00000000000E+00  0.74505805969E-08  0.10566000000E+00  0.10566000000E+00 0.  1.
     999900   -1    0    0    0    0 -0.00000000000E+00 -0.00000000000E+00 -0.74505805969E-08  0.93827000000E+00  0.93827000000E+00 0.  1.
     999902    2    1    2    0    0  0.12033295598E-01 -0.76893467902E-02 -0.52712382492E-03  0.10296399994E+01  0.10295408318E+01 0.  0.
     999903    2    3    3    0    0  0.19028787414E-01  0.83648599382E-02  0.13066342509E+00  0.13974245780E+00  0.44977307880E-01 0.  0.
         14    1    1    2    0    0 -0.12033295598E-01  0.76893467902E-02  0.52712382492E-03  0.14290000578E-01  0.00000000000E+00 0.  1.
     999901    1    3    3    0    0 -0.69954918162E-02 -0.16054206728E-01 -0.13119054891E+00  0.88989754162E+00  0.88000000000E+00 0. -1.
        -11    1    4    4    0    0 -0.94400031286E-02  0.16001309053E-01  0.34844683252E-01  0.39491374025E-01  0.51100000000E-03 0.  1.
         11    1    4    4    0    0  0.28468790543E-01 -0.76364491148E-02  0.95818741836E-01  0.10025108377E+00  0.51100000000E-03 0. -1.
</event>
<event>
 8    1  0.2123879E+004  0.1043930E+01  0.7957747E-01            NaN
         13   -1    0    0    0    0  0.00000000000E+00  0.00000000000E+00  0.74505805969E-08  0.10566000000E+00  0.10566000000E+00 0. -1.
     999900   -1    0    0    0    0 -0.00000000000E+00 -0.00000000000E+00 -0.74505805969E-08  0.93827000000E+00  0.93827000000E+00 0.  1.
     999902    2    1    2    0    0 -0.12216755975E-01  0.28768813774E-02  0.53443378053E-02  0.10302886101E+01  0.10301982977E+01 0.  0.
     999903    2    3    3    0    0  0.10190141869E+00  0.64683115276E-01  0.52807164035E-01  0.13950486065E+00  0.45882513433E-01 0.  0.
         14    1    1    2    0    0  0.12216755975E-01 -0.28768813774E-02 -0.53443378053E-02  0.13641389944E-01  0.00000000000E+00 0. -1.
     999901    1    3    3    0    0 -0.11411817466E+00 -0.61806233898E-01 -0.47462826230E-01  0.89078374941E+00  0.88000000000E+00 0. -1.
        -11    1    4    4    0    0  0.82599860187E-01  0.38927000852E-01  0.19872281417E-01  0.93451682639E-01  0.51100000000E-03 0.  1.
         11    1    4    4    0    0  0.19301558499E-01  0.25756114424E-01  0.32934882618E-01  0.46053178009E-01  0.51100000000E-03 0. -1.
</event>
<event>
 8    1  0.2123879E+004  0.1043930E+01  0.7957747E-01            NaN
         13   -1    0    0    0    0  0.00000000000E+00  0.00000000000E+00  0.74505805969E-08  0.10566000000E+00  0.10566000000E+00 0.  1.
     999900   -1    0    0    0    0 -0.00000000000E+00 -0.00000000000E+00 -0.74505805969E-08  0.93827000000E+00  0.93827000000E+00 0.  1.
     999902    2    1    2    0    0 -0.29338949300E-02  0.14399045862E-01 -0.24868583896E-02  0.10290261506E+01  0.10289182154E+01 0.  0.
     999903    2    3    3    0    0 -0.64497795552E-01 -0.53027728211E-01  0.10059348663E+00  0.13831742089E+00  0.45174702858E-01 0.  0.
         14    1    1    2    0    0  0.29338949300E-02 -0.14399045862E-01  0.24868583896E-02  0.14903849363E-01  0.00000000000E+00 0. -1.
     999901    1    3    3    0    0  0.61563900622E-01  0.67426774073E-01 -0.10308034502E+00  0.89070872975E+00  0.88000000000E+00 0. -1.
        -11    1    4    4    0    0 -0.52537215580E-01 -0.29531194148E-01  0.93094673537E-01  0.11090144188E+00  0.51100000000E-03 0. -1.
         11    1    4    4    0    0 -0.11960579972E-01 -0.23496534063E-01  0.74988130928E-02  0.27415979009E-01  0.51100000000E-03 0.  1.
</event>
<event>
 8    1  0.2123879E+004  0.1043930E+01  0.7957747E-01            NaN
         13   -1    0    0    0    0  0.00000000000E+00  0.00000000000E+00  0.74505805969E-08  0.10566000000E+00  0.10566000000E+00 0.  1.
     999900   -1    0    0    0    0 -0.00000000000E+00 -0.00000000000E+00 -0.74505805969E-08  0.93827000000E+00  0.93827000000E+00 0. -1.
     999902    2    1    2    0    0 -0.12127731947E-01 -0.76235040552E-02  0.38407347059E-02  0.10290992570E+01  0.10289923856E+01 0.  0.
     999903    2    3    3    0    0 -0.67611481085E-01 -0.47032307854E-01  0.10465792702E+00  0.14073243716E+00  0.45486116838E-01 0.  0.
         14    1    1    2    0    0  0.12127731947E-01  0.76235040552E-02 -0.38407347059E-02  0.14830743047E-01  0.00000000000E+00 0. -1.
     999901    1    3    3    0    0  0.55483749138E-01  0.39408803799E-01 -0.10081719232E+00  0.88836681979E+00  0.88000000000E+00 0. -1.
        -11    1    4    4    0    0 -0.43577231121E-02 -0.19883277556E-01  0.75812692080E-02  0.21727200484E-01  0.51100000000E-03 0. -1.
         11    1    4    4    0    0 -0.63253757973E-01 -0.27149030298E-01  0.97076657813E-01  0.11900523668E+00  0.51100000000E-03 0.  1.
</event>
<event>
 8    1  0.2123879E+004  0.1043930E+01  0.7957747E-01            NaN
         13   -1    0    0    0    0  0.00000000000E+00  0.00000000000E+00  0.74505805969E-08  0.10566000000E+00  0.10566000000E+00 0.  1.
     999900   -1    0    0    0    0 -0.00000000000E+00 -0.00000000000E+00 -0.74505805969E-08  0.93827000000E+00  0.93827000000E+00 0. -1.
     999902    2    1    2    0    0 -0.21983198026E-02  0.77801590360E-02 -0.11675615645E-01  0.10297284689E+01  0.10296305338E+01 0.  0.
     999903    2    3    3    0    0  0.76484379065E-01 -0.10652109401E+00 -0.95541125650E-02  0.13885235837E+00  0.44632865112E-01 0.  0.
         14    1    1    2    0    0  0.21983198026E-02 -0.77801590360E-02  0.11675615645E-01  0.14201531089E-01  0.00000000000E+00 0.  1.
     999901    1    3    3    0    0 -0.78682698868E-01  0.11430125305E+00 -0.21215030796E-02  0.89087611054E+00  0.88000000000E+00 0. -1.
        -11    1    4    4    0    0  0.43122817467E-01 -0.72434085298E-01  0.14327329256E-01  0.85509108192E-01  0.51100000000E-03 0. -1.
         11    1    4    4    0    0  0.33361561598E-01 -0.34087008717E-01 -0.23881441821E-01  0.53343250182E-01  0.51100000000E-03 0.  1.
</event>
<event>
 8    1  0.2123879E+004  0.1043930E+01  0.7957747E-01            NaN
         13   -1    0    0    0    0  0.00000000000E+00  0.00000000000E+00  0.74505805969E-08  0.10566000000E+00  0.10566000000E+00 0.  1.
     999900   -1    0    0    0    0 -0.00000000000E+00 -0.00000000000E+00 -0.74505805969E-08  0.93827000000E+00  0.93827000000E+00 0.  1.
     999902    2    1    2    0    0 -0.25140623688E-02 -0.17291293443E-01 -0.15051426924E-02  0.10263921896E+01  0.10262423457E+01 0.  0.
     999903    2    3    3    0    0  0.11210718412E-01 -0.47324722288E-02  0.12824031338E+00  0.13668438535E+00  0.45705215487E-01 0.  0.
         14    1    1    2    0    0  0.25140623688E-02  0.17291293443E-01  0.15051426924E-02  0.17537810384E-01  0.00000000000E+00 0. -1.
     999901    1    3    3    0    0 -0.13724780781E-01 -0.12558821214E-01 -0.12974545607E+00  0.88970780426E+00  0.88000000000E+00 0.  1.
        -11    1    4    4    0    0  0.23547481226E-01 -0.16153878606E-01  0.98049601200E-01  0.10212451754E+00  0.51100000000E-03 0. -1.
         11    1    4    4    0    0 -0.12336762814E-01  0.11421406377E-01  0.30190712179E-01  0.34559867813E-01  0.51100000000E-03 0.  1.
</event>
<event>
 8    1  0.2123879E+004  0.1043930E+01  0.7957747E-01            NaN
         13   -1    0    0    0    0  0.00000000000E+00  0.00000000000E+00  0.74505805969E-08  0.10566000000E+00  0.10566000000E+00 0.  1.
     999900   -1    0    0    0    0 -0.00000000000E+00 -0.00000000000E+00 -0.74505805969E-08  0.93827000000E+00  0.93827000000E+00 0. -1.
     999902    2    1    2    0    0  0.14137019244E-01  0.26368127081E-02 -0.33845270767E-02  0.10291562693E+01  0.10290502240E+01 0.  0.
     999903    2    3    3    0    0  0.13196609804E-01  0.11189325087E+00 -0.69694337110E-01  0.13992354132E+00  0.45022735264E-01 0.  0.
         14    1    1    2    0    0 -0.14137019244E-01 -0.26368127081E-02  0.33845270767E-02  0.14773730670E-01  0.00000000000E+00 0. -1.
     999901    1    3    3    0    0  0.94040944078E-03 -0.10925643816E+00  0.66309810034E-01  0.88923272801E+00  0.88000000000E+00 0.  1.
        -11    1    4    4    0    0 -0.43918836307E-02  0.73172988856E-01 -0.23152283945E-01  0.76875641870E-01  0.51100000000E-03 0.  1.
         11    1    4    4    0    0  0.17588493434E-01  0.38720262015E-01 -0.46542053165E-01  0.63047899455E-01  0.51100000000E-03 0. -1.
</event>
<event>
 8    1  0.2123879E+004  0.1043930E+01  0.7957747E-01            NaN
         13   -1    0    0    0    0  0.00000000000E+00  0.00000000000E+00  0.74505805969E-08  0.10566000000E+00  0.10566000000E+00 0. -1.
     999900   -1    0    0    0    0 -0.00000000000E+00 -0.00000000000E+00 -0.74505805969E-08  0.93827000000E+00  0.93827000000E+00 0. -1.
     999902    2    1    2    0    0 -0.37139442837E-02  0.60681340964E-02  0.14836420855E-02  0.10366624813E+01  0.10366370066E+01 0.  0.
     999903    2    3    3    0    0  0.75142217033E-01  0.11359014787E+00 -0.27846422060E-01  0.14613481177E+00  0.45065347160E-01 0.  0.
         14    1    1    2    0    0  0.37139442837E-02 -0.60681340964E-02 -0.14836420855E-02  0.72675186544E-02  0.00000000000E+00 0.  1.
     999901    1    3    3    0    0 -0.78856161317E-01 -0.10752201377E+00  0.29330064145E-01  0.89052766958E+00  0.88000000000E+00 0. -1.
        -11    1    4    4    0    0  0.57314436337E-02  0.46365078220E-01 -0.11722630161E-01  0.48168984870E-01  0.51100000000E-03 0.  1.
         11    1    4    4    0    0  0.69410773399E-01  0.67225069650E-01 -0.16123791899E-01  0.97965826897E-01  0.51100000000E-03 0. -1.
</event>
<event>
 8    1  0.2123879E+004  0.1043930E+01  0.7957747E-01            NaN
         13   -1    0    0    0    0  0.00000000000E+00  0.00000000000E+00  0.74505805969E-08  0.10566000000E+00  0.10566000000E+00 0.  1.
     999900   -1    0    0    0    0 -0.00000000000E+00 -0.00000000000E+00 -0.74505805969E-08  0.93827000000E+00  0.93827000000E+00 0.  1.
     999902    2    1    2    0    0 -0.95827776137E-02  0.75813434641E-02  0.58493071022E-02  0.10303830155E+01  0.10302939570E+01 0.  0.
     999903    2    3    3    0    0 -0.82043518513E-02 -0.11977141949E+00  0.52924841439E-01  0.13996921719E+00  0.48763086473E-01 0.  0.
         14    1    1    2    0    0  0.95827776137E-02 -0.75813434641E-02 -0.58493071022E-02  0.13546984502E-01  0.00000000000E+00 0. -1.
     999901    1    3    3    0    0 -0.13784257623E-02  0.12735276296E+00 -0.47075534337E-01  0.89041379831E+00  0.88000000000E+00 0.  1.
        -11    1    4    4    0    0  0.32623979225E-02 -0.73055386518E-01  0.70039617632E-02  0.73464612847E-01  0.51100000000E-03 0.  1.
         11    1    4    4    0    0 -0.11466749774E-01 -0.46716032974E-01  0.45920879676E-01  0.66504604340E-01  0.51100000000E-03 0. -1.
</event>
<event>
 7    1  0.2123879E+004  0.1043930E+01  0.7957747E-01            NaN
         13   -1    0    0    0    0  0.00000000000E+00  0.00000000000E+00  0.74505805969E-08  0.10566000000E+00  0.10566000000E+00 0.  1.
     999900   -1    0    0    0    0 -0.00000000000E+00 -0.00000000000E+00 -0.74505805969E-08  0.93827000000E+00  0.93827000000E+00 0.  1.
     999902    2    1    2    0    0 -0.13578476187E-01  0.10774598880E-02  0.39190586269E-02  0.10297562582E+01  0.10296587087E+01 0.  0.
         14    1    1    2    0    0  0.13578476187E-01 -0.10774598880E-02 -0.39190586269E-02  0.14173741775E-01  0.00000000000E+00 0.  1.
     999901    1    3    3    0    0 -0.15857246393E-01 -0.76948540826E-01  0.11669772028E+00  0.89117388209E+00  0.88000000000E+00 0. -1.
        -11    1    3    3    0    0 -0.43703123607E-02  0.65145058512E-01 -0.84362748771E-01  0.10667854883E+00  0.51100000000E-03 0. -1.
         11    1    3    3    0    0  0.66490825658E-02  0.12880942201E-01 -0.28415912883E-01  0.31903827309E-01  0.51100000000E-03 0.  1.
</event>
<event>
 8    1  0.2123879E+004  0.1043930E+01  0.7957747E-01            NaN
         13   -1    0    0    0    0  0.00000000000E+00  0.00000000000E+00  0.74505805969E-08  0.10566000000E+00  0.10566000000E+00 0. -1.
     999900   -1    0    0    0    0 -0.00000000000E+00 -0.00000000000E+00 -0.74505805969E-08  0.93827000000E+00  0.93827000000E+00 0.  1.
     999902    2    1    2    0    0 -0.11090705656E-01 -0.40568839504E-02  0.84822173319E-02  0.10293900526E+01  0.10292873604E+01 0.  0.
     999903    2    3    3    0    0 -0.66733060520E-01  0.36800542735E-01 -0.10747709253E+00  0.13910247968E+00  0.44616063490E-01 0.  0.
         14    1    1    2    0    0  0.11090705656E-01  0.40568839504E-02 -0.84822173319E-02  0.14539947394E-01  0.00000000000E+00 0. -1.
     999901    1    3    3    0    0  0.55642354864E-01 -0.40857426686E-01  0.11595930986E+00  0.89028757293E+00  0.88000000000E+00 0. -1.
        -11    1    4    4    0    0 -0.32855845764E-01  0.53115876666E-02 -0.76514611116E-01  0.83441395000E-01  0.51100000000E-03 0. -1.
         11    1    4    4    0    0 -0.33877214756E-01  0.31488955069E-01 -0.30962481414E-01  0.55661084676E-01  0.51100000000E-03 0.  1.
</event>
<event>
 8    1  0.2123879E+004  0.1043930E+01  0.7957747E-01            NaN
         13   -1    0    0    0    0  0.00000000000E+00  0.00000000000E+00  0.74505805969E-08  0.10566000000E+00  0.10566000000E+00 0. -1.
     999900   -1    0    0    0    0 -0.00000000000E+00 -0.00000000000E+00 -0.74505805969E-08  0.93827000000E+00  0.93827000000E+00 0. -1.
     999902    2    1    2    0    0 -0.93202358748E-02 -0.76760010419E-02  0.67164398422E-02  0.10301134030E+01  0.10300207399E+01 0.  0.
     999903    2    3    3    0    0 -0.95928911222E-01  0.66379958909E-01 -0.62643189266E-01  0.14005941249E+00  0.45648821603E-01 0.  0.
         14    1    1    2    0    0  0.93202358748E-02  0.76760010419E-02 -0.67164398422E-02  0.13816597009E-01  0.00000000000E+00 0.  1.
     999901    1    3    3    0    0  0.86608675348E-01 -0.74055959950E-01  0.69359629108E-01  0.89005399050E+00  0.88000000000E+00 0.  1.
        -11    1    4    4    0    0 -0.17680714078E-01  0.19442398922E-01 -0.36799096502E-01  0.45222219654E-01  0.51100000000E-03 0.  1.
         11    1    4    4    0    0 -0.78248197145E-01  0.46937559986E-01 -0.25844092764E-01  0.94837192839E-01  0.51100000000E-03 0. -1.
</event>
<event>
 8    1  0.2123879E+004  0.1043930E+01  0.7957747E-01            NaN
         13   -1    0    0    0    0  0.00000000000E+00  0.00000000000E+00  0.74505805969E-08  0.10566000000E+00  0.10566000000E+00 0.  1.
     999900   -1    0    0    0    0 -0.00000000000E+00 -0.00000000000E+00 -0.74505805969E-08  0.93827000000E+00  0.93827000000E+00 0. -1.
     999902    2    1    2    0    0 -0.40429229119E-02  0.12994324535E-01  0.22208660679E-02  0.10301412386E+01  0.10300489510E+01 0.  0.
     999903    2    3    3    0    0  0.12590182708E+00  0.42931608882E-01 -0.41121105003E-02  0.14007270995E+00  0.43692808522E-01 0.  0.
         14    1    1    2    0    0  0.40429229119E-02 -0.12994324535E-01 -0.22208660679E-02  0.13788761434E-01  0.00000000000E+00 0.  1.
     999901    1    3    3    0    0 -0.12994474999E+00 -0.29937284347E-01  0.63329765682E-02  0.89006852862E+00  0.88000000000E+00 0.  1.
        -11    1    4    4    0    0  0.10464270688E+00  0.49903424695E-01  0.46802860572E-02  0.11602850554E+00  0.51100000000E-03 0. -1.
         11    1    4    4    0    0  0.21259120196E-01 -0.69718158134E-02 -0.87923965576E-02  0.24044204405E-01  0.51100000000E-03 0.  1.
</event>
<event>
 8    1  0.2123879E+004  0.1043930E+01  0.7957747E-01            NaN
         13   -1    0    0    0    0  0.00000000000E+00  0.00000000000E+00  0.74505805969E-08  0.10566000000E+00  0.10566000000E+00 0.  1.
     999900   -1    0    0    0    0 -0.00000000000E+00 -0.00000000000E+00 -0.74505805969E-08  0.93827000000E+00  0.93827000000E+00 0. -1.
     999902    2    1    2    0    0 -0.63164643966E-02  0.22420049476E-02  0.12504910365E-01  0.10297420794E+01  0.10296443332E+01 0.  0.
     999903    2    3    3    0    0 -0.13042740133E+00  0.27150316562E-01 -0.24108453316E-02  0.14055906760E+00  0.44750336319E-01 0.  0.
         14    1    1    2    0    0  0.63164643966E-02 -0.22420049476E-02 -0.12504910365E-01  0.14187920633E-01  0.00000000000E+00 0. -1.
     999901    1    3    3    0    0  0.12411093693E+00 -0.24908311614E-01  0.14915755697E-01  0.88918301177E+00  0.88000000000E+00 0. -1.
        -11    1    4    4    0    0 -0.47532692939E-01  0.29083746018E-01 -0.12253432401E-01  0.57058118678E-01  0.51100000000E-03 0.  1.
         11    1    4    4    0    0 -0.82894708392E-01 -0.19334294565E-02  0.98425870690E-02  0.83500948917E-01  0.51100000000E-03 0. -1.
</event>
<event>
 8    1  0.2123879E+004  0.1043930E+01  0.7957747E-01            NaN
         13   -1    0    0    0    0  0.00000000000E+00  0.00000000000E+00  0.74505805969E-08  0.10566000000E+00  0.10566000000E+00 0. -1.
     999900   -1    0    0    0    0 -0.00000000000E+00 -0.00000000000E+00 -0.74505805969E-08  0.93827000000E+00  0.93827000000E+00 0. -1.
     999902    2    1    2    0    0 -0.11026829441E-01 -0.73133085556E-02  0.28331977961E-02  0.10303984643E+01  0.10303096101E+01 0.  0.
     999903    2    3    3    0    0  0.11529455611E+00 -0.61522150633E-01  0.19964684251E-01  0.13956223979E+00  0.44735002753E-01 0.  0.
         14    1    1    2    0    0  0.11026829441E-01  0.73133085556E-02 -0.28331977961E-02  0.13531535733E-01  0.00000000000E+00 0. -1.
     999901    1    3    3    0    0 -0.12632138555E+00  0.54208842077E-01 -0.17131486455E-01  0.89083622447E+00  0.88000000000E+00 0.  1.
        -11    1    4    4    0    0  0.10949490450E+00 -0.49106473461E-01  0.62472599545E-02  0.12016600694E+00  0.51100000000E-03 0. -1.
         11    1    4    4    0    0  0.57996516162E-02 -0.12415677171E-01  0.13717424297E-01  0.19396232852E-01  0.51100000000E-03 0.  1.
</event>
<event>
 8    1  0.2123879E+004  0.1043930E+01  0.7957747E-01            NaN
         13   -1    0    0    0    0  0.00000000000E+00  0.00000000000E+00  0.74505805969E-08  0.10566000000E+00  0.10566000000E+00 0. -1.
     999900   -1    0    0    0    0 -0.00000000000E+00 -0.00000000000E+00 -0.74505805969E-08  0.93827000000E+00  0.93827000000E+00 0.  1.
     999902    2    1    2    0    0  0.82939738422E-02  0.10801342801E-02 -0.99578466885E-02  0.10309255622E+01  0.10308435378E+01 0.  0.
     999903    2    3    3    0    0 -0.60925072847E-02 -0.56216044573E-01  0.11921822206E+00  0.13953547940E+00  0.45385055135E-01 0.  0.
         14    1    1    2    0    0 -0.82939738422E-02 -0.10801342801E-02  0.99578466885E-02  0.13004437813E-01  0.00000000000E+00 0.  1.
     999901    1    3    3    0    0  0.14386481127E-01  0.57296178853E-01 -0.12917606874E+00  0.89139008278E+00  0.88000000000E+00 0.  1.
        -11    1    4    4    0    0 -0.15866494431E-01 -0.11509829540E-02  0.19171523891E-01  0.24917440812E-01  0.51100000000E-03 0. -1.
         11    1    4    4    0    0  0.97739871467E-02 -0.55065061619E-01  0.10004669816E+00  0.11461803859E+00  0.51100000000E-03 0.  1.
</event>
<event>
 8    1  0.2123879E+004  0.1043930E+01  0.7957747E-01            NaN
         13   -1    0    0    0    0  0.00000000000E+00  0.00000000000E+00  0.74505805969E-08  0.10566000000E+00  0.10566000000E+00 0.  1.
     999900   -1    0    0    0    0 -0.00000000000E+00 -0.00000000000E+00 -0.74505805969E-08  0.93827000000E+00  0.93827000000E+00 0.  1.
     999902    2    1    2    0    0 -0.10665596296E-02 -0.12789820686E-02 -0.13706119715E-01  0.10301230792E+01  0.10300305467E+01 0.  0.
     999903    2    3    3    0    0  0.77218103098E-01  0.76497424819E-01  0.72228093396E-01  0.13907743116E+00  0.48074347976E-01 0.  0.
         14    1    1    2    0    0  0.10665596296E-02  0.12789820686E-02  0.13706119715E-01  0.13806920809E-01  0.00000000000E+00 0.  1.
     999901    1    3    3    0    0 -0.78284662727E-01 -0.77776406888E-01 -0.85934213111E-01  0.89104564803E+00  0.88000000000E+00 0. -1.
        -11    1    4    4    0    0  0.59801708906E-02  0.31946930841E-01  0.84378530454E-02  0.33583140399E-01  0.51100000000E-03 0.  1.
         11    1    4    4    0    0  0.71237932207E-01  0.44550493978E-01  0.63790240350E-01  0.10549429076E+00  0.51100000000E-03 0. -1.
</event>
<event>
 8    1  0.2123879E+004  0.1043930E+01  0.7957747E-01            NaN
         13   -1    0    0    0    0  0.00000000000E+00  0.00000000000E+00  0.74505805969E-08  0.10566000000E+00  0.10566000000E+00 0.  1.
     999900   -1    0    0    0    0 -0.00000000000E+00 -0.00000000000E+00 -0.74505805969E-08  0.93827000000E+00  0.93827000000E+00 0.  1.
     999902    2    1    2    0    0 -0.92468856591E-02 -0.90175244572E-02 -0.43142456897E-03  0.10310068901E+01  0.10309258949E+01 0.  0.
     999903    2    3    3    0    0  0.24066058656E-01 -0.11651333454E+00 -0.62445017069E-01  0.14167523821E+00  0.44921717005E-01 0.  0.
         14    1    1    2    0    0  0.92468856591E-02  0.90175244572E-02  0.43142456897E-03  0.12923109877E-01  0.00000000000E+00 0.  1.
     999901    1    3    3    0    0 -0.33312944315E-01  0.10749581009E+00  0.62013592500E-01  0.88933165192E+00  0.88000000000E+00 0. -1.
        -11    1    4    4    0    0  0.94672072024E-02 -0.64206486565E-03 -0.59783219394E-03  0.95214906310E-02  0.51100000000E-03 0.  1.
         11    1    4    4    0    0  0.14598851453E-01 -0.11587126968E+00 -0.61847184875E-01  0.13215374758E+00  0.51100000000E-03 0. -1.
</event>
<event>
 8    1  0.2123879E+004  0.1043930E+01  0.7957747E-01            NaN
         13   -1    0    0    0    0  0.00000000000E+00  0.00000000000E+00  0.74505805969E-08  0.10566000000E+00  0.10566000000E+00 0.  1.
     999900   -1    0    0    0    0 -0.00000000000E+00 -0.00000000000E+00 -0.74505805969E-08  0.93827000000E+00  0.93827000000E+00 0. -1.
     999902    2    1    2    0    0  0.11522908806E-01  0.61377425949E-02  0.31390220210E-02  0.10305023133E+01  0.10304148266E+01 0.  0.
     999903    2    3    3    0    0  0.57227189992E-01  0.11207150604E+00 -0.46685636421E-01  0.14157411587E+00  0.45041179985E-01 0.  0.
         14    1    1    2    0    0 -0.11522908806E-01 -0.61377425949E-02 -0.31390220210E-02  0.13427686724E-01  0.00000000000E+00 0.  1.
     999901    1    3    3    0    0 -0.45704281185E-01 -0.10593376345E+00  0.49824658442E-01  0.88892819741E+00  0.88000000000E+00 0.  1.
        -11    1    4    4    0    0  0.79058093022E-02  0.64387294954E-01 -0.26334852278E-01  0.70014363796E-01  0.51100000000E-03 0. -1.
         11    1    4    4    0    0  0.49321380690E-01  0.47684211090E-01 -0.20350784143E-01  0.71559752072E-01  0.51100000000E-03 0.  1.
</event>
<event>
 7    1  0.2123879E+004  0.1043930E+01  0.7957747E-01            NaN
         13   -1    0    0    0    0  0.00000000000E+00  0.00000000000E+00  0.74505805969E-08  0.10566000000E+00  0.10566000000E+00 0.  1.
     999900   -1    0    0    0    0 -0.00000000000E+00 -0.00000000000E+00 -0.74505805969E-08  0.93827000000E+00  0.93827000000E+00 0. -1.
     999903    2    1    2    0    0  0.93128478082E-02 -0.93760167014E-01 -0.46217358907E-01  0.11419093431E+00  0.45009189750E-01 0.  0.
         14    1    1    2    0    0 -0.32017530225E-01  0.22584942288E-01 -0.20195100498E-01  0.44079972141E-01  0.00000000000E+00 0. -1.
     999901    1    1    2    0    0  0.22704682417E-01  0.71175224726E-01  0.66412459405E-01  0.88565909355E+00  0.88000000000E+00 0.  1.
        -11    1    3    3    0    0  0.84342325235E-03 -0.22923714779E-01 -0.35177348293E-01  0.41998988273E-01  0.51100000000E-03 0.  1.
         11    1    3    3    0    0  0.84694245559E-02 -0.70836452235E-01 -0.11040010614E-01  0.72191946039E-01  0.51100000000E-03 0. -1.
</event>
<event>
 8    1  0.2123879E+004  0.1043930E+01  0.7957747E-01            NaN
         13   -1    0    0    0    0  0.00000000000E+00  0.00000000000E+00  0.74505805969E-08  0.10566000000E+00  0.10566000000E+00 0.  1.
     999900   -1    0    0    0    0 -0.00000000000E+00 -0.00000000000E+00 -0.74505805969E-08  0.93827000000E+00  0.93827000000E+00 0. -1.
     999902    2    1    2    0    0 -0.12154282506E-01  0.24392795038E-02  0.31832191451E-02  0.10311311894E+01  0.10310517544E+01 0.  0.
     999903    2    3    3    0    0  0.16224862600E-02  0.26030894057E-01 -0.13079355861E+00  0.14057173571E+00  0.44420918505E-01 0.  0.
         14    1    1    2    0    0  0.12154282506E-01 -0.24392795038E-02 -0.31832191451E-02  0.12798810564E-01  0.00000000000E+00 0. -1.
     999901    1    3    3    0    0 -0.13776768766E-01 -0.23591614554E-01  0.13397677776E+00  0.89055945372E+00  0.88000000000E+00 0.  1.
        -11    1    4    4    0    0 -0.14578364442E-01  0.27593564766E-01 -0.56832412831E-01  0.64839168683E-01  0.51100000000E-03 0. -1.
         11    1    4    4    0    0  0.16200850702E-01 -0.15626707089E-02 -0.73961145779E-01  0.75732567031E-01  0.51100000000E-03 0.  1.
</event>
<event>
 8    1  0.2123879E+004  0.1043930E+01  0.7957747E-01            NaN
         13   -1    0    0    0    0  0.00000000000E+00  0.00000000000E+00  0.74505805969E-08  0.10566000000E+00  0.10566000000E+00 0.  1.
     999900   -1    0    0    0    0 -0.00000000000E+00 -0.00000000000E+00 -0.74505805969E-08  0.93827000000E+00  0.93827000000E+00 0. -1.
     999902    2    1    2    0    0 -0.10467557853E-01  0.40166643705E-02  0.53670688200E-02  0.10314998436E+01  0.10314249457E+01 0.  0.
     999903    2    3    3    0    0 -0.11653012408E+00 -0.37102140162E-01  0.57180685502E-01  0.14266652127E+00  0.46133142887E-01 0.  0.
         14    1    1    2    0    0  0.10467557853E-01 -0.40166643705E-02 -0.53670688200E-02  0.12430156386E-01  0.00000000000E+00 0. -1.
     999901    1    3    3    0    0  0.10606256623E+00  0.41118804533E-01 -0.51813616682E-01  0.88883332235E+00  0.88000000000E+00 0.  1.
        -11    1    4    4    0    0 -0.10351068758E+00 -0.45812946503E-01  0.41689979434E-01  0.12063002950E+00  0.51100000000E-03 0. -1.
         11    1    4    4    0    0 -0.13019436500E-01  0.87108063407E-02  0.15490706069E-01  0.22036491767E-01  0.51100000000E-03 0.  1.
</event>
<event>
 8    1  0.2123879E+004  0.1043930E+01  0.7957747E-01            NaN
         13   -1    0    0    0    0  0.00000000000E+00  0.00000000000E+00  0.74505805969E-08  0.10566000000E+00  0.10566000000E+00 0. -1.
     999900   -1    0    0    0    0 -0.00000000000E+00 -0.00000000000E+00 -0.74505805969E-08  0.93827000000E+00  0.93827000000E+00 0.  1.
     999902    2    1    2    0    0  0.58396603371E-02 -0.10756438036E-02  0.11952205330E-01  0.10305840697E+01  0.10304976521E+01 0.  0.
     999903    2    3    3    0    0 -0.23054997201E-03  0.97837110113E-01  0.91685710577E-01  0.14143953019E+00  0.45019083816E-01 0.  0.
         14    1    1    2    0    0 -0.58396603371E-02  0.10756438036E-02 -0.11952205330E-01  0.13345930267E-01  0.00000000000E+00 0.  1.
     999901    1    3    3    0    0  0.60702103091E-02 -0.98912753916E-01 -0.79733505247E-01  0.88914453954E+00  0.88000000000E+00 0. -1.
        -11    1    4    4    0    0 -0.35930095536E-02  0.74660693859E-01  0.40194375612E-01  0.84870359237E-01  0.51100000000E-03 0. -1.
         11    1    4    4    0    0  0.33624595816E-02  0.23176416254E-01  0.51491334965E-01  0.56569170953E-01  0.51100000000E-03 0.  1.
</event>
<event>
 8    1  0.2123879E+004  0.1043930E+01  0.7957747E-01            NaN
         13   -1    0    0    0    0  0.00000000000E+00  0.00000000000E+00  0.74505805969E-08  0.10566000000E+00  0.10566000000E+00 0. -1.
     999900   -1    0    0    0    0 -0.00000000000E+00 -0.00000000000E+00 -0.74505805969E-08  0.93827000000E+00  0.93827000000E+00 0. -1.
     999902    2    1    2    0    0  0.50153648245E-02  0.19935821249E-02  0.12402538064E-01  0.10304040544E+01  0.10303152741E+01 0.  0.
     999903    2    3    3    0    0  0.48798373973E-01 -0.11596863399E+00  0.44380041881E-01  0.14087912666E+00  0.45247484318E-01 0.  0.
         14    1    1    2    0    0 -0.50153648245E-02 -0.19935821249E-02 -0.12402538064E-01  0.13525945603E-01  0.00000000000E+00 0.  1.
     999901    1    3    3    0    0 -0.43783009148E-01  0.11796221612E+00 -0.31977503817E-01  0.88952492774E+00  0.88000000000E+00 0. -1.
        -11    1    4    4    0    0  0.39556690432E-01 -0.81608085848E-01  0.51923225244E-01  0.10450308069E+00  0.51100000000E-03 0. -1.
         11    1    4    4    0    0  0.92416835408E-02 -0.34360548147E-01 -0.75431833634E-02  0.36376045963E-01  0.51100000000E-03 0.  1.
</event>
<event>
 8    1  0.2123879E+004  0.1043930E+01  0.7957747E-01            NaN
         13   -1    0    0    0    0  0.00000000000E+00  0.00000000000E+00  0.74505805969E-08  0.10566000000E+00  0.10566000000E+00 0. -1.
     999900   -1    0    0    0    0 -0.00000000000E+00 -0.00000000000E+00 -0.74505805969E-08  0.93827000000E+00  0.93827000000E+00 0.  1.
     999902    2    1    2    0    0  0.13723546045E-01  0.12690519786E-02 -0.41370729585E-02  0.10295403655E+01  0.10294398004E+01 0.  0.
     999903    2    3    3    0    0 -0.32513474205E-01 -0.55150032900E-01  0.11332777614E+00  0.13874355029E+00  0.48040980086E-01 0.  0.
         14    1    1    2    0    0 -0.13723546045E-01 -0.12690519786E-02  0.41370729585E-02  0.14389634521E-01  0.00000000000E+00 0.  1.
     999901    1    3    3    0    0  0.46237020250E-01  0.56419084879E-01 -0.11746484910E+00  0.89079681519E+00  0.88000000000E+00 0.  1.
        -11    1    4    4    0    0 -0.40806811179E-01 -0.33565872911E-01  0.56343197000E-01  0.77244291906E-01  0.51100000000E-03 0.  1.
         11    1    4    4    0    0  0.82933369744E-02 -0.21584159989E-01  0.56984579142E-01  0.61499258382E-01  0.51100000000E-03 0. -1.
</event>
<event>
 8    1  0.2123879E+004  0.1043930E+01  0.7957747E-01            NaN
         13   -1    0    0    0    0  0.00000000000E+00  0.00000000000E+00  0.74505805969E-08  0.10566000000E+00  0.10566000000E+00 0. -1.
     999900   -1    0    0    0    0 -0.00000000000E+00 -0.00000000000E+00 -0.74505805969E-08  0.93827000000E+00  0.93827000000E+00 0. -1.
     999902    2    1    2    0    0 -0.10486139623E-01 -0.12978564950E-01 -0.22076155470E-01  0.10162576508E+01  0.10158808266E+01 0.  0.
     999903    2    3    3    0    0  0.88969257009E-01 -0.66725996724E-01  0.40217824380E-01  0.12684171753E+00  0.45863499406E-01 0.  0.
         14    1    1    2    0    0  0.10486139623E-01  0.12978564950E-01  0.22076155470E-01  0.27672349244E-01  0.00000000000E+00 0. -1.
     999901    1    3    3    0    0 -0.99455396632E-01  0.53747431774E-01 -0.62293979850E-01  0.88941593322E+00  0.88000000000E+00 0. -1.
        -11    1    4    4    0    0  0.61230874588E-01 -0.17611160622E-01  0.17935556045E-01  0.66191527199E-01  0.51100000000E-03 0.  1.
         11    1    4    4    0    0  0.27738382421E-01 -0.49114836101E-01  0.22282268336E-01  0.60650190336E-01  0.51100000000E-03 0. -1.
</event>
<event>
 8    1  0.2123879E+004  0.1043930E+01  0.7957747E-01            NaN
         13   -1    0    0    0    0  0.00000000000E+00  0.00000000000E+00  0.74505805969E-08  0.10566000000E+00  0.10566000000E+00 0.  1.
     999900   -1    0    0    0    0 -0.00000000000E+00 -0.00000000000E+00 -0.74505805969E-08  0.93827000000E+00  0.93827000000E+00 0. -1.
     999902    2    1    2    0    0  0.20828470893E-02  0.12304383346E-01 -0.76582897153E-02  0.10292880909E+01  0.10291839430E+01 0.  0.
     999903    2    3    3    0    0 -0.10634322588E+00 -0.72404048450E-01  0.20802249218E-01  0.13814178751E+00  0.45816939682E-01 0.  0.
         14    1    1    2    0    0 -0.20828470893E-02 -0.12304383346E-01  0.76582897153E-02  0.14641909127E-01  0.00000000000E+00 0.  1.
     999901    1    3    3    0    0  0.10842607297E+00  0.84708431796E-01 -0.28460538933E-01  0.89114630336E+00  0.88000000000E+00 0.  1.
        -11    1    4    4    0    0 -0.93066274078E-01 -0.56705159431E-01  0.33446780244E-01  0.11399892415E+00  0.51100000000E-03 0.  1.
         11    1    4    4    0    0 -0.13276951803E-01 -0.15698889019E-01 -0.12644531026E-01  0.24142863365E-01  0.51100000000E-03 0. -1.
</event>
<event>
 8    1  0.2123879E+004  0.1043930E+01  0.7957747E-01            NaN
         13   -1    0    0    0    0  0.00000000000E+00  0.00000000000E+00  0.74505805969E-08  0.10566000000E+00  0.10566000000E+00 0.  1.
     999900   -1    0    0    0    0 -0.00000000000E+00 -0.00000000000E+00 -0.74505805969E-08  0.93827000000E+00  0.93827000000E+00 0.  1.
     999902    2    1    2    0    0  0.10549778017E-01 -0.57018135684E-02 -0.69387128029E-02  0.10300752452E+01  0.10299820662E+01 0.  0.
     999903    2    3    3    0    0 -0.11119984783E+00 -0.62049386564E-01 -0.38547613864E-01  0.13934681131E+00  0.41425629246E-01 0.  0.
         14    1    1    2    0    0 -0.10549778017E-01  0.57018135684E-02  0.69387128029E-02  0.13854754763E-01  0.00000000000E+00 0. -1.
     999901    1    3    3    0    0  0.12174962584E+00  0.56347572996E-01  0.31608901061E-01  0.89072843392E+00  0.88000000000E+00 0. -1.
        -11    1    4    4    0    0 -0.83112081564E-01 -0.29571403804E-01 -0.38875779951E-01  0.96403700202E-01  0.51100000000E-03 0.  1.
         11    1    4    4    0    0 -0.28087766264E-01 -0.32477982760E-01  0.32816608731E-03  0.42943111110E-01  0.51100000000E-03 0. -1.
</event>
<event>
 8    1  0.2123879E+004  0.1043930E+01  0.7957747E-01            NaN
         13   -1    0    0    0    0  0.00000000000E+00  0.00000000000E+00  0.74505805969E-08  0.10566000000E+00  0.10566000000E+00 0.  1.
     999900   -1    0    0    0    0 -0.00000000000E+00 -0.00000000000E+00 -0.74505805969E-08  0.93827000000E+00  0.93827000000E+00 0. -1.
     999902    2    1    2    0    0  0.11467339035E-01  0.78261870655E-02  0.34065285567E-02  0.10296347733E+01  0.10295355326E+01 0.  0.
     999903    2    3    3    0    0  0.10078831625E+00  0.43856207196E-01 -0.76093396406E-01  0.14081722322E+00  0.44245155424E-01 0.  0.
         14    1    1    2    0    0 -0.11467339035E-01 -0.78261870655E-02 -0.34065285567E-02  0.14295226662E-01  0.00000000000E+00 0. -1.
     999901    1    3    3    0    0 -0.89320977211E-01 -0.36030020130E-01  0.79499924963E-01  0.88881755011E+00  0.88000000000E+00 0. -1.
        -11    1    4    4    0    0  0.95583410411E-01  0.39970842252E-01 -0.81917760142E-01  0.13207814779E+00  0.51100000000E-03 0.  1.
         11    1    4    4    0    0  0.52049058354E-02  0.38853649444E-02  0.58243637357E-02  0.87390754336E-02  0.51100000000E-03 0. -1.
</event>
<event>
 8    1  0.2123879E+004  0.1043930E+01  0.7957747E-01            NaN
         13   -1    0    0    0    0  0.00000000000E+00  0.00000000000E+00  0.74505805969E-08  0.10566000000E+00  0.10566000000E+00 0.  1.
     999900   -1    0    0    0    0 -0.00000000000E+00 -0.00000000000E+00 -0.74505805969E-08  0.93827000000E+00  0.93827000000E+00 0.  1.
     999902    2    1    2    0    0  0.99980968881E-02 -0.23191534340E-02 -0.11306401656E-01  0.10286599269E+01  0.10285465814E+01 0.  0.
     999903    2    3    3    0    0 -0.12208322035E+00 -0.36608530534E-01  0.24866898973E-01  0.13740814237E+00  0.44923687829E-01 0.  0.
         14    1    1    2    0    0 -0.99980968881E-02  0.23191534340E-02  0.11306401656E-01  0.15270073098E-01  0.00000000000E+00 0.  1.
     999901    1    3    3    0    0  0.13208131723E+00  0.34289377100E-01 -0.36173300629E-01  0.89125178453E+00  0.88000000000E+00 0. -1.
        -11    1    4    4    0    0 -0.51801901551E-01 -0.12018020963E-01  0.32869840143E-01  0.62518456028E-01  0.51100000000E-03 0. -1.
         11    1    4    4    0    0 -0.70281318796E-01 -0.24590509571E-01 -0.80029411698E-02  0.74889686346E-01  0.51100000000E-03 0.  1.
</event>
<event>
 8    1  0.2123879E+004  0.1043930E+01  0.7957747E-01            NaN
         13   -1    0    0    0    0  0.00000000000E+00  0.00000000000E+00  0.74505805969E-08  0.10566000000E+00  0.10566000000E+00 0. -1.
     999900   -1    0    0    0    0 -0.00000000000E+00 -0.00000000000E+00 -0.74505805969E-08  0.93827000000E+00  0.93827000000E+00 0. -1.
     999902    2    1    2    0    0  0.69010938992E-02  0.90008163646E-02  0.78213026494E-02  0.10301527518E+01  0.10300606193E+01 0.  0.
     999903    2    3    3    0    0  0.84848567608E-01  0.10384075423E+00 -0.14572749559E-02  0.14158282521E+00  0.45402544865E-01 0.  0.
         14    1    1    2    0    0 -0.69010938992E-02 -0.90008163646E-02 -0.78213026494E-02  0.13777248178E-01  0.00000000000E+00 0.  1.
     999901    1    3    3    0    0 -0.77947473708E-01 -0.94839937868E-01  0.92785776053E-02  0.88856992661E+00  0.88000000000E+00 0. -1.
        -11    1    4    4    0    0  0.47300639145E-01  0.89147333008E-01 -0.54155892669E-02  0.10106526196E+00  0.51100000000E-03 0.  1.
         11    1    4    4    0    0  0.37547928463E-01  0.14693421224E-01  0.39583143110E-02  0.40517563257E-01  0.51100000000E-03 0. -1.
</event>
<event>
 7    1  0.2123879E+004  0.1043930E+01  0.7957747E-01            NaN
         13   -1    0    0    0    0  0.00000000000E+00  0.00000000000E+00  0.74505805969E-08  0.10566000000E+00  0.10566000000E+00 0.  1.
     999900   -1    0    0    0    0 -0.00000000000E+00 -0.00000000000E+00 -0.74505805969E-08  0.93827000000E+00  0.93827000000E+00 0.  1.
     999902    2    1    2    0    0 -0.90476158776E-02 -0.11624346504E-01  0.51077161013E-02  0.10283391838E+01  0.10282209896E+01 0.  0.
         14    1    1    2    0    0  0.90476158776E-02  0.11624346504E-01 -0.51077161013E-02  0.15590816158E-01  0.00000000000E+00 0. -1.
     999901    1    3    3    0    0 -0.49801254292E-01 -0.27798959138E-01  0.13247235551E+00  0.89174092204E+00  0.88000000000E+00 0. -1.
        -11    1    3    3    0    0  0.18967526033E-01 -0.23772807106E-02 -0.68902201236E-01  0.71506593847E-01  0.51100000000E-03 0. -1.
         11    1    3    3    0    0  0.21786112381E-01  0.18551893345E-01 -0.58462438175E-01  0.65091667959E-01  0.51100000000E-03 0.  1.
</event>
<event>
 8    1  0.2123879E+004  0.1043930E+01  0.7957747E-01            NaN
         13   -1    0    0    0    0  0.00000000000E+00  0.00000000000E+00  0.74505805969E-08  0.10566000000E+00  0.10566000000E+00 0.  1.
     999900   -1    0    0    0    0 -0.00000000000E+00 -0.00000000000E+00 -0.74505805969E-08  0.93827000000E+00  0.93827000000E+00 0. -1.
     999902    2    1    2    0    0 -0.12444452162E-01  0.50976458562E-02  0.34572692266E-04  0.10304818931E+01  0.10303941384E+01 0.  0.
     999903    2    3    3    0    0  0.81315428824E-01  0.59234103182E-03  0.10395925365E+00  0.13940863444E+00  0.44885310554E-01 0.  0.
         14    1    1    2    0    0  0.12444452162E-01 -0.50976458562E-02 -0.34572692266E-04  0.13448106861E-01  0.00000000000E+00 0. -1.
     999901    1    3    3    0    0 -0.93759880986E-01  0.45053048244E-02 -0.10392468096E+00  0.89107325870E+00  0.88000000000E+00 0. -1.
        -11    1    4    4    0    0 -0.53571768326E-02 -0.10210850570E-02  0.11075148226E-01  0.12355645978E-01  0.51100000000E-03 0.  1.
         11    1    4    4    0    0  0.86672605656E-01  0.16134260888E-02  0.92884105428E-01  0.12705298846E+00  0.51100000000E-03 0. -1.
</event>
<event>
 8    1  0.2123879E+004  0.1043930E+01  0.7957747E-01            NaN
         13   -1    0    0    0    0  0.00000000000E+00  0.00000000000E+00  0.74505805969E-08  0.10566000000E+00  0.10566000000E+00 0. -1.
     999900   -1    0    0    0    0 -0.00000000000E+00 -0.00000000000E+00 -0.74505805969E-08  0.93827000000E+00  0.93827000000E+00 0. -1.
     999902    2    1    2    0    0 -0.20114385501E-02 -0.52105507948E-02 -0.12951253071E-01  0.10298257212E+01  0.10297291320E+01 0.  0.
     999903    2    3    3    0    0  0.11395195073E+00  0.43091058000E-01  0.47389063724E-01  0.13885910740E+00  0.46842736815E-01 0.  0.
         14    1    1    2    0    0  0.20114385501E-02  0.52105507948E-02  0.12951253071E-01  0.14104278810E-01  0.00000000000E+00 0. -1.
     999901    1    3    3    0    0 -0.11596338928E+00 -0.48301608795E-01 -0.60340316796E-01  0.89096661379E+00  0.88000000000E+00 0. -1.
        -11    1    4    4    0    0  0.46314384157E-01 -0.44412123822E-02  0.77276548657E-02  0.47166983347E-01  0.51100000000E-03 0.  1.
         11    1    4    4    0    0  0.67637566569E-01  0.47532270382E-01  0.39661408859E-01  0.91692124050E-01  0.51100000000E-03 0. -1.
</event>
<event>
 8    1  0.2123879E+004  0.1043930E+01  0.7957747E-01            NaN
         13   -1    0    0    0    0  0.00000000000E+00  0.00000000000E+00  0.74505805969E-08  0.10566000000E+00  0.10566000000E+00 0.  1.
     999900   -1    0    0    0    0 -0.00000000000E+00 -0.00000000000E+00 -0.74505805969E-08  0.93827000000E+00  0.93827000000E+00 0.  1.
     999902    2    1    2    0    0 -0.78197504541E-02  0.54933784916E-02 -0.99983113440E-02  0.10300991673E+01  0.10300063119E+01 0.  0.
     999903    2    3    3    0    0 -0.38933762939E-01 -0.28504038014E-01  0.12245968379E+00  0.13899365916E+00  0.44660329740E-01 0.  0.
         14    1    1    2    0    0  0.78197504541E-02 -0.54933784916E-02  0.99983113440E-02  0.13830832735E-01  0.00000000000E+00 0.  1.
     999901    1    3    3    0    0  0.31114012485E-01  0.33997416505E-01 -0.13245799513E+00  0.89110550811E+00  0.88000000000E+00 0.  1.
        -11    1    4    4    0    0 -0.48977576342E-01 -0.22891447597E-01  0.96991854731E-01  0.11104279519E+00  0.51100000000E-03 0. -1.
         11    1    4    4    0    0  0.10043813403E-01 -0.56125904169E-02  0.25467829059E-01  0.27950863973E-01  0.51100000000E-03 0.  1.
</event>
<event>
 8    1  0.2123879E+004  0.1043930E+01  0.7957747E-01            NaN
         13   -1    0    0    0    0  0.00000000000E+00  0.00000000000E+00  0.74505805969E-08  0.10566000000E+00  0.10566000000E+00 0. -1.
     999900   -1    0    0    0    0 -0.00000000000E+00 -0.00000000000E+00 -0.74505805969E-08  0.93827000000E+00  0.93827000000E+00 0. -1.
     999902    2    1    2    0    0 -0.48573719604E-03 -0.27464708975E-02 -0.12498868922E-01  0.10311237216E+01  0.10310441932E+01 0.  0.
     999903    2    3    3    0    0  0.74684531393E-01 -0.36742708705E-01 -0.10633177284E+00  0.14229813276E+00  0.44883257435E-01 0.  0.
         14    1    1    2    0    0  0.48573719604E-03  0.27464708975E-02  0.12498868922E-01  0.12806278435E-01  0.00000000000E+00 0. -1.
     999901    1    3    3    0    0 -0.75170268590E-01  0.33996237808E-01  0.93832903918E-01  0.88882558881E+00  0.88000000000E+00 0. -1.
        -11    1    4    4    0    0  0.44406822183E-01 -0.13213876800E-01 -0.25634554800E-01  0.52952468472E-01  0.51100000000E-03 0.  1.
         11    1    4    4    0    0  0.30277709210E-01 -0.23528831905E-01 -0.80697218040E-01  0.89345664284E-01  0.51100000000E-03 0. -1.
</event>
<event>
 8    1  0.2123879E+004  0.1043930E+01  0.7957747E-01            NaN
         13   -1    0    0    0    0  0.00000000000E+00  0.00000000000E+00  0.74505805969E-08  0.10566000000E+00  0.10566000000E+00 0.  1.
     999900   -1    0    0    0    0 -0.00000000000E+00 -0.00000000000E+00 -0.74505805969E-08  0.93827000000E+00  0.93827000000E+00 0. -1.
     999902    2    1    2    0    0  0.51998490125E-02  0.35539738722E-02  0.12255106864E-01  0.10301511465E+01  0.10300589924E+01 0.  0.
     999903    2    3    3    0    0  0.10826209220E-01  0.12646060302E+00  0.41959800256E-01  0.14109543156E+00  0.45142054114E-01 0.  0.
         14    1    1    2    0    0 -0.51998490125E-02 -0.35539738722E-02 -0.12255106864E-01  0.13778853519E-01  0.00000000000E+00 0. -1.
     999901    1    3    3    0    0 -0.56263602071E-02 -0.12290662914E+00 -0.29704693391E-01  0.88905571492E+00  0.88000000000E+00 0. -1.
        -11    1    4    4    0    0 -0.60756450502E-02  0.98644139969E-01  0.17482494289E-01  0.10036672028E+00  0.51100000000E-03 0. -1.
         11    1    4    4    0    0  0.16901854270E-01  0.27816463047E-01  0.24477305966E-01  0.40728711281E-01  0.51100000000E-03 0.  1.
</event>
<event>
 8    1  0.2123879E+004  0.1043930E+01  0.7957747E-01            NaN
         13   -1    0    0    0    0  0.00000000000E+00  0.00000000000E+00  0.74505805969E-08  0.10566000000E+00  0.10566000000E+00 0. -1.
     999900   -1    0    0    0    0 -0.00000000000E+00 -0.00000000000E+00 -0.74505805969E-08  0.93827000000E+00  0.93827000000E+00 0.  1.
     999902    2    1    2    0    0  0.17318947770E-01 -0.83748514493E-02 -0.18559433382E-02  0.10246031116E+01  0.10244208157E+01 0.  0.
     999903    2    3    3    0    0  0.16518006708E-01 -0.12389192354E+00  0.30653255961E-01  0.13645803142E+00  0.45377516168E-01 0.  0.
         14    1    1    2    0    0 -0.17318947770E-01  0.83748514493E-02  0.18559433382E-02  0.19326888377E-01  0.00000000000E+00 0.  1.
     999901    1    3    3    0    0  0.80094106248E-03  0.11551707209E+00 -0.32509199299E-01  0.88814508020E+00  0.88000000000E+00 0. -1.
        -11    1    4    4    0    0 -0.95540042961E-02 -0.88461343637E-01  0.20280212634E-01  0.91259171932E-01  0.51100000000E-03 0.  1.
         11    1    4    4    0    0  0.26072011004E-01 -0.35430579903E-01  0.10373043327E-01  0.45198859487E-01  0.51100000000E-03 0. -1.
</event>
<event>
 8    1  0.2123879E+004  0.1043930E+01  0.7957747E-01            NaN
         13   -1    0    0    0    0  0.00000000000E+00  0.00000000000E+00  0.74505805969E-08  0.10566000000E+00  0.10566000000E+00 0. -1.
     999900   -1    0    0    0    0 -0.00000000000E+00 -0.00000000000E+00 -0.74505805969E-08  0.93827000000E+00  0.93827000000E+00 0. -1.
     999902    2    1    2    0    0 -0.70069253364E-02 -0.68381603011E-02 -0.10397955339E-01  0.10296480213E+01  0.10295489658E+01 0.  0.
     999903    2    3    3    0    0 -0.10604982450E+00  0.76160246465E-01 -0.88364275329E-02  0.14020962001E+00  0.50335938197E-01 0.  0.
         14    1    1    2    0    0  0.70069253364E-02  0.68381603011E-02  0.10397955339E-01  0.14281978651E-01  0.00000000000E+00 0. -1.
     999901    1    3    3    0    0  0.99042899166E-01 -0.82998406766E-01 -0.15615278057E-02  0.88943840134E+00  0.88000000000E+00 0. -1.
        -11    1    4    4    0    0 -0.51929455257E-01  0.66208288578E-01 -0.12447149009E-01  0.85061145296E-01  0.51100000000E-03 0.  1.
         11    1    4    4    0    0 -0.54120369245E-01  0.99519578869E-02  0.36107214758E-02  0.55148474717E-01  0.51100000000E-03 0. -1.
</event>
<event>
 8    1  0.2123879E+004  0.1043930E+01  0.7957747E-01            NaN
         13   -1    0    0    0    0  0.00000000000E+00  0.00000000000E+00  0.74505805969E-08  0.10566000000E+00  0.10566000000E+00 0.  1.
     999900   -1    0    0    0    0 -0.00000000000E+00 -0.00000000000E+00 -0.74505805969E-08  0.93827000000E+00  0.93827000000E+00 0.  1.
     999902    2    1    2    0    0 -0.61110591377E-02 -0.10454727035E-01 -0.60778876564E-02  0.10303805690E+01  0.10302914782E+01 0.  0.
     999903    2    3    3    0    0 -0.12455962765E+00  0.46022034658E-02  0.48890043130E-01  0.14061753993E+00  0.42974121313E-01 0.  0.
         14    1    1    2    0    0  0.61110591377E-02  0.10454727035E-01  0.60778876564E-02  0.13549430967E-01  0.00000000000E+00 0.  1.
     999901    1    3    3    0    0  0.11844856851E+00 -0.15056930501E-01 -0.54967930787E-01  0.88976302910E+00  0.88000000000E+00 0.  1.
        -11    1    4    4    0    0 -0.32677987459E-01  0.62034549073E-02  0.33919291617E-01  0.47509085257E-01  0.51100000000E-03 0. -1.
         11    1    4    4    0    0 -0.91881640190E-01 -0.16012514415E-02  0.14970751513E-01  0.93108454676E-01  0.51100000000E-03 0.  1.
</event>
<event>
 8    1  0.2123879E+004  0.1043930E+01  0.7957747E-01            NaN
         13   -1    0    0    0    0  0.00000000000E+00  0.00000000000E+00  0.74505805969E-08  0.10566000000E+00  0.10566000000E+00 0. -1.
     999900   -1    0    0    0    0 -0.00000000000E+00 -0.00000000000E+00 -0.74505805969E-08  0.93827000000E+00  0.93827000000E+00 0. -1.
     999902    2    1    2    0    0 -0.80463670003E-02  0.47974523790E-02  0.98731361683E-02  0.10303197690E+01  0.10302298714E+01 0.  0.
     999903    2    3    3    0    0 -0.54586462433E-01  0.49266455993E-01  0.11295382692E+00  0.14196786708E+00  0.44603169180E-01 0.  0.
         14    1    1    2    0    0  0.80463670003E-02 -0.47974523790E-02 -0.98731361683E-02  0.13610231042E-01  0.00000000000E+00 0.  1.
     999901    1    3    3    0    0  0.46540095432E-01 -0.44469003614E-01 -0.10308069075E+00  0.88835190188E+00  0.88000000000E+00 0. -1.
        -11    1    4    4    0    0 -0.10759069199E-02  0.71965814827E-02  0.45697483231E-01  0.46276013824E-01  0.51100000000E-03 0.  1.
         11    1    4    4    0    0 -0.53510555513E-01  0.42069874510E-01  0.67256343685E-01  0.95691853256E-01  0.51100000000E-03 0. -1.
</event>
<event>
 8    1  0.2123879E+004  0.1043930E+01  0.7957747E-01            NaN
         13   -1    0    0    0    0  0.00000000000E+00  0.00000000000E+00  0.74505805969E-08  0.10566000000E+00  0.10566000000E+00 0. -1.
     999900   -1    0    0    0    0 -0.00000000000E+00 -0.00000000000E+00 -0.74505805969E-08  0.93827000000E+00  0.93827000000E+00 0.  1.
     999902    2    1    2    0    0  0.30210193854E-03 -0.13835042324E-01  0.49285786466E-02  0.10292401889E+01  0.10291353536E+01 0.  0.
     999903    2    3    3    0    0 -0.39978467716E-01 -0.12506737908E+00  0.19219076070E-01  0.14120900967E+00  0.48275090226E-01 0.  0.
         14    1    1    2    0    0 -0.30210193854E-03  0.13835042324E-01 -0.49285786466E-02  0.14689811066E-01  0.00000000000E+00 0. -1.
     999901    1    3    3    0    0  0.40280569654E-01  0.11123233675E+00 -0.14290497423E-01  0.88803117927E+00  0.88000000000E+00 0.  1.
        -11    1    4    4    0    0 -0.18408050457E-01 -0.67507578356E-01  0.34280079071E-01  0.77919922993E-01  0.51100000000E-03 0. -1.
         11    1    4    4    0    0 -0.21570417259E-01 -0.57559800722E-01 -0.15061003001E-01  0.63289086675E-01  0.51100000000E-03 0.  1.
</event>
<event>
 8    1  0.2123879E+004  0.1043930E+01  0.7957747E-01            NaN
         13   -1    0    0    0    0  0.00000000000E+00  0.00000000000E+00  0.74505805969E-08  0.10566000000E+00  0.10566000000E+00 0.  1.
     999900   -1    0    0    0    0 -0.00000000000E+00 -0.00000000000E+00 -0.74505805969E-08  0.93827000000E+00  0.93827000000E+00 0.  1.
     999902    2    1    2    0    0 -0.33638172272E-02 -0.19828709250E-02 -0.12924755265E-01  0.10304282837E+01  0.10303398233E+01 0.  0.
     999903    2    3    3    0    0  0.26768473652E-01 -0.10632447570E+00  0.73679768032E-01  0.13953240379E+00  0.44934821418E-01 0.  0.
         14    1    1    2    0    0  0.33638172272E-02  0.19828709250E-02  0.12924755265E-01  0.13501716265E-01  0.00000000000E+00 0.  1.
     999901    1    3    3    0    0 -0.30132290879E-01  0.10434160478E+00 -0.86604523297E-01  0.89089587994E+00  0.88000000000E+00 0.  1.
        -11    1    4    4    0    0  0.21622068888E-02 -0.84956425864E-01  0.60761263668E-01  0.10447230120E+00  0.51100000000E-03 0. -1.
         11    1    4    4    0    0  0.24606266763E-01 -0.21368049839E-01  0.12918504364E-01  0.35060102595E-01  0.51100000000E-03 0.  1.
</event>
<event>
 8    1  0.2123879E+004  0.1043930E+01  0.7957747E-01            NaN
         13   -1    0    0    0    0  0.00000000000E+00  0.00000000000E+00  0.74505805969E-08  0.10566000000E+00  0.10566000000E+00 0. -1.
     999900   -1    0    0    0    0 -0.00000000000E+00 -0.00000000000E+00 -0.74505805969E-08  0.93827000000E+00  0.93827000000E+00 0.  1.
     999902    2    1    2    0    0  0.15393652761E-02  0.10732061585E-01 -0.14184639763E-02  0.10329957039E+01  0.10329378323E+01 0.  0.
     999903    2    3    3    0    0 -0.11154610672E-03  0.12654878415E+00  0.51494515356E-01  0.14382979018E+00  0.44952377227E-01 0.  0.
         14    1    1    2    0    0 -0.15393652761E-02 -0.10732061585E-01  0.14184639763E-02  0.10934296107E-01  0.00000000000E+00 0.  1.
     999901    1    3    3    0    0  0.16509113828E-02 -0.11581672256E+00 -0.52912979332E-01  0.88916591372E+00  0.88000000000E+00 0.  1.
        -11    1    4    4    0    0  0.17376754857E-01  0.25074542329E-01  0.52877371600E-02  0.30966200407E-01  0.51100000000E-03 0. -1.
         11    1    4    4    0    0 -0.17488300963E-01  0.10147424182E+00  0.46206778196E-01  0.11286358977E+00  0.51100000000E-03 0.  1.
</event>
<event>
 8    1  0.2123879E+004  0.1043930E+01  0.7957747E-01            NaN
         13   -1    0    0    0    0  0.00000000000E+00  0.00000000000E+00  0.74505805969E-08  0.10566000000E+00  0.10566000000E+00 0.  1.
     999900   -1    0    0    0    0 -0.00000000000E+00 -0.00000000000E+00 -0.74505805969E-08  0.93827000000E+00  0.93827000000E+00 0.  1.
     999902    2    1    2    0    0 -0.69989943362E-02 -0.10084704030E-01  0.58437254353E-02  0.10303345484E+01  0.10302448473E+01 0.  0.
     999903    2    3    3    0    0  0.91220586364E-01  0.92576691059E-01 -0.17567747654E-01  0.13863137742E+00  0.44926539410E-01 0.  0.
         14    1    1    2    0    0  0.69989943362E-02  0.10084704030E-01 -0.58437254353E-02  0.13595451595E-01  0.00000000000E+00 0. -1.
     999901    1    3    3    0    0 -0.98219580701E-01 -0.10266139509E+00  0.23411473089E-01  0.89170317099E+00  0.88000000000E+00 0. -1.
        -11    1    4    4    0    0  0.29775776392E-01  0.54097980046E-02 -0.92968512051E-02  0.31663154257E-01  0.51100000000E-03 0. -1.
         11    1    4    4    0    0  0.61444809973E-01  0.87166893054E-01 -0.82708964488E-02  0.10696822316E+00  0.51100000000E-03 0.  1.
</event>
<event>
 8    1  0.2123879E+004  0.1043930E+01  0.7957747E-01            NaN
         13   -1    0    0    0    0  0.00000000000E+00  0.00000000000E+00  0.74505805969E-08  0.10566000000E+00  0.10566000000E+00 0.  1.
     999900   -1    0    0    0    0 -0.00000000000E+00 -0.00000000000E+00 -0.74505805969E-08  0.93827000000E+00  0.93827000000E+00 0. -1.
     999902    2    1    2    0    0 -0.15077057246E-02  0.92345254143E-02 -0.94605067376E-02  0.10306239554E+01  0.10305380568E+01 0.  0.
     999903    2    3    3    0    0 -0.58393446017E-02  0.13077211323E+00  0.28968005325E-01  0.14142943284E+00  0.45029941097E-01 0.  0.
         14    1    1    2    0    0  0.15077057246E-02 -0.92345254143E-02  0.94605067376E-02  0.13306044638E-01  0.00000000000E+00 0.  1.
     999901    1    3    3    0    0  0.43316388771E-02 -0.12153758782E+00 -0.38428512062E-01  0.88919452252E+00  0.88000000000E+00 0. -1.
        -11    1    4    4    0    0 -0.10013925259E-01  0.57555130588E-01  0.34560183842E-01  0.67878856681E-01  0.51100000000E-03 0.  1.
         11    1    4    4    0    0  0.41745806575E-02  0.73216982646E-01 -0.55921785170E-02  0.73550576156E-01  0.51100000000E-03 0. -1.
</event>
<event>
 8    1  0.2123879E+004  0.1043930E+01  0.7957747E-01            NaN
         13   -1    0    0    0    0  0.00000000000E+00  0.00000000000E+00  0.74505805969E-08  0.10566000000E+00  0.10566000000E+00 0.  1.
     999900   -1    0    0    0    0 -0.00000000000E+00 -0.00000000000E+00 -0.74505805969E-08  0.93827000000E+00  0.93827000000E+00 0.  1.
     999902    2    1    2    0    0 -0.62944496596E-04  0.12370792607E-01 -0.83914296861E-02  0.10289815364E+01  0.10288729492E+01 0.  0.
     999903    2    3    3    0    0  0.90058859843E-02 -0.10887424013E+00 -0.72510450819E-01  0.13831108639E+00  0.44016871719E-01 0.  0.
         14    1    1    2    0    0  0.62944496596E-04 -0.12370792607E-01  0.83914296861E-02  0.14948463597E-01  0.00000000000E+00 0.  1.
     999901    1    3    3    0    0 -0.90688304809E-02  0.12124503273E+00  0.64119021133E-01  0.89067045001E+00  0.88000000000E+00 0. -1.
        -11    1    4    4    0    0 -0.16414173184E-01 -0.57718968487E-01 -0.29911568454E-01  0.67051230062E-01  0.51100000000E-03 0.  1.
         11    1    4    4    0    0  0.25420059168E-01 -0.51155271639E-01 -0.42598882365E-01  0.71259856331E-01  0.51100000000E-03 0. -1.
</event>
<event>
 8    1  0.2123879E+004  0.1043930E+01  0.7957747E-01            NaN
         13   -1    0    0    0    0  0.00000000000E+00  0.00000000000E+00  0.74505805969E-08  0.10566000000E+00  0.10566000000E+00 0. -1.
     999900   -1    0    0    0    0 -0.00000000000E+00 -0.00000000000E+00 -0.74505805969E-08  0.93827000000E+00  0.93827000000E+00 0. -1.
     999902    2    1    2    0    0  0.73750088331E-02 -0.99806657174E-02  0.93960974420E-02  0.10283642976E+01  0.10282464868E+01 0.  0.
     999903    2    3    3    0    0 -0.88182820744E-02  0.85587613420E-01 -0.98079231089E-01  0.13654230591E+00  0.40264923490E-01 0.  0.
         14    1    1    2    0    0 -0.73750088331E-02  0.99806657174E-02 -0.93960974420E-02  0.15565702380E-01  0.00000000000E+00 0.  1.
     999901    1    3    3    0    0  0.16193290907E-01 -0.95568279137E-01  0.10747532853E+00  0.89182199171E+00  0.88000000000E+00 0.  1.
        -11    1    4    4    0    0  0.14541109391E-01  0.42029413949E-01 -0.56812272200E-01  0.72151305552E-01  0.51100000000E-03 0.  1.
         11    1    4    4    0    0 -0.23359391465E-01  0.43558199470E-01 -0.41266958888E-01  0.64391000362E-01  0.51100000000E-03 0. -1.
</event>
<event>
 8    1  0.2123879E+004  0.1043930E+01  0.7957747E-01            NaN
         13   -1    0    0    0    0  0.00000000000E+00  0.00000000000E+00  0.74505805969E-08  0.10566000000E+00  0.10566000000E+00 0.  1.
     999900   -1    0    0    0    0 -0.00000000000E+00 -0.00000000000E+00 -0.74505805969E-08  0.93827000000E+00  0.93827000000E+00 0. -1.
     999902    2    1    2    0    0  0.67289728788E-02 -0.26080373421E-02  0.12100172944E-01  0.10298411704E+01  0.10297447942E+01 0.  0.
     999903    2    3    3    0    0 -0.32450773858E-02  0.92902560972E-01  0.95688087392E-01  0.14067937660E+00  0.44643706953E-01 0.  0.
         14    1    1    2    0    0 -0.67289728788E-02  0.26080373421E-02 -0.12100172944E-01  0.14088829620E-01  0.00000000000E+00 0. -1.
     999901    1    3    3    0    0  0.99740502646E-02 -0.95510598314E-01 -0.83587914448E-01  0.88916179378E+00  0.88000000000E+00 0.  1.
        -11    1    4    4    0    0 -0.15941861606E-01  0.79830132663E-01  0.61833952857E-01  0.10222862554E+00  0.51100000000E-03 0.  1.
         11    1    4    4    0    0  0.12696784220E-01  0.13072428309E-01  0.33854134535E-01  0.38450751066E-01  0.51100000000E-03 0. -1.
</event>
<event>
 8    1  0.2123879E+004  0.1043930E+01  0.7957747E-01            NaN
         13   -1    0    0    0    0  0.00000000000E+00  0.00000000000E+00  0.74505805969E-08  0.10566000000E+00  0.10566000000E+00 0. -1.
     999900   -1    0    0    0    0 -0.00000000000E+00 -0.00000000000E+00 -0.74505805969E-08  0.93827000000E+00  0.93827000000E+00 0. -1.
     999902    2    1    2    0    0  0.11416901060E-01  0.18596582531E-02  0.80646064310E-02  0.10298288711E+01  0.10297323254E+01 0.  0.
     999903    2    3    3    0    0  0.65338696461E-01  0.60626260442E-01 -0.97238452096E-01  0.13996943971E+00  0.46812805676E-01 0.  0.
         14    1    1    2    0    0 -0.11416901060E-01 -0.18596582531E-02 -0.80646064310E-02  0.14101128874E-01  0.00000000000E+00 0.  1.
     999901    1    3    3    0    0 -0.53921795401E-01 -0.58766602189E-01  0.10530305853E+00  0.88985943142E+00  0.88000000000E+00 0.  1.
        -11    1    4    4    0    0  0.42788161190E-01  0.11464074787E-01 -0.58764984468E-01  0.73592365563E-01  0.51100000000E-03 0. -1.
         11    1    4    4    0    0  0.22550535271E-01  0.49162185655E-01 -0.38473467629E-01  0.66377074143E-01  0.51100000000E-03 0.  1.
</event>
<event>
 8    1  0.2191398E+004  0.1043930E+01  0.7957747E-01            NaN
         13   -1    0    0    0    0  0.00000000000E+00  0.00000000000E+00  0.74505805969E-08  0.10566000000E+00  0.10566000000E+00 0. -1.
     999900   -1    0    0    0    0 -0.00000000000E+00 -0.00000000000E+00 -0.74505805969E-08  0.93827000000E+00  0.93827000000E+00 0. -1.
     999902    2    1    2    0    0  0.12586191932E-01  0.11946538801E-02  0.50869526525E-02  0.10303022154E+01  0.10302120843E+01 0.  0.
     999903    2    3    3    0    0  0.80805869164E-01  0.63048232689E-01 -0.85287124867E-01  0.14089383708E+00  0.45524845118E-01 0.  0.
         14    1    1    2    0    0 -0.12586191932E-01 -0.11946538801E-02 -0.50869526525E-02  0.13627784579E-01  0.00000000000E+00 0.  1.
     999901    1    3    3    0    0 -0.68219677232E-01 -0.61853578808E-01  0.90374077520E-01  0.88940837834E+00  0.88000000000E+00 0.  1.
        -11    1    4    4    0    0  0.64816640027E-01  0.23170108901E-01 -0.57825313558E-01  0.89900382535E-01  0.51100000000E-03 0.  1.
         11    1    4    4    0    0  0.15989229137E-01  0.39878123788E-01 -0.27461811309E-01  0.50993454547E-01  0.51100000000E-03 0. -1.
</event>
<event>
 8    1  0.2123879E+004  0.1043930E+01  0.7957747E-01            NaN
         13   -1    0    0    0    0  0.00000000000E+00  0.00000000000E+00  0.74505805969E-08  0.10566000000E+00  0.10566000000E+00 0.  1.
     999900   -1    0    0    0    0 -0.00000000000E+00 -0.00000000000E+00 -0.74505805969E-08  0.93827000000E+00  0.93827000000E+00 0. -1.
     999902    2    1    2    0    0  0.41882449029E-02 -0.97396779867E-02 -0.58289161144E-02  0.10318312816E+01  0.10317603476E+01 0.  0.
     999903    2    3    3    0    0 -0.69176356868E-01 -0.10801506313E+00 -0.43008125770E-01  0.14254914996E+00  0.44921476580E-01 0.  0.
         14    1    1    2    0    0 -0.41882449029E-02  0.97396779867E-02  0.58289161144E-02  0.12098718350E-01  0.00000000000E+00 0.  1.
     999901    1    3    3    0    0  0.73364601771E-01  0.98275385145E-01  0.37179209655E-01  0.88928213169E+00  0.88000000000E+00 0.  1.
        -11    1    4    4    0    0 -0.25585628613E-01 -0.50566519413E-01 -0.41803387145E-01  0.70422876787E-01  0.51100000000E-03 0.  1.
         11    1    4    4    0    0 -0.43590728255E-01 -0.57448543719E-01 -0.12047386242E-02  0.72126273170E-01  0.51100000000E-03 0. -1.
</event>
<event>
 8    1  0.2123879E+004  0.1043930E+01  0.7957747E-01            NaN
         13   -1    0    0    0    0  0.00000000000E+00  0.00000000000E+00  0.74505805969E-08  0.10566000000E+00  0.10566000000E+00 0.  1.
     999900   -1    0    0    0    0 -0.00000000000E+00 -0.00000000000E+00 -0.74505805969E-08  0.93827000000E+00  0.93827000000E+00 0. -1.
     999902    2    1    2    0    0  0.10728098191E-01 -0.38722043692E-02  0.77754475814E-02  0.10301262453E+01  0.10300337556E+01 0.  0.
     999903    2    3    3    0    0 -0.70478777877E-01 -0.90639109258E-01  0.66916762728E-01  0.14017077024E+00  0.44578979789E-01 0.  0.
         14    1    1    2    0    0 -0.10728098191E-01  0.38722043692E-02 -0.77754475814E-02  0.13803754654E-01  0.00000000000E+00 0. -1.
     999901    1    3    3    0    0  0.81206876068E-01  0.86766904888E-01 -0.59141315147E-01  0.88995547510E+00  0.88000000000E+00 0. -1.
        -11    1    4    4    0    0 -0.20660943122E-01 -0.60536636180E-02  0.26147648934E-01  0.33874504862E-01  0.51100000000E-03 0. -1.
         11    1    4    4    0    0 -0.49817834756E-01 -0.84585445640E-01  0.40769113794E-01  0.10629626538E+00  0.51100000000E-03 0.  1.
</event>
<event>
 8    1  0.2123879E+004  0.1043930E+01  0.7957747E-01            NaN
         13   -1    0    0    0    0  0.00000000000E+00  0.00000000000E+00  0.74505805969E-08  0.10566000000E+00  0.10566000000E+00 0. -1.
     999900   -1    0    0    0    0 -0.00000000000E+00 -0.00000000000E+00 -0.74505805969E-08  0.93827000000E+00  0.93827000000E+00 0.  1.
     999902    2    1    2    0    0 -0.76387786419E-02  0.11199282271E-01 -0.15824525773E-02  0.10302815928E+01  0.10301911869E+01 0.  0.
     999903    2    3    3    0    0 -0.75965837113E-01 -0.72144725536E-01  0.80673370957E-01  0.13989918561E+00  0.45693758015E-01 0.  0.
         14    1    1    2    0    0  0.76387786419E-02 -0.11199282271E-01  0.15824525773E-02  0.13648407185E-01  0.00000000000E+00 0.  1.
     999901    1    3    3    0    0  0.68327058471E-01  0.83344007807E-01 -0.82255823535E-01  0.89038240721E+00  0.88000000000E+00 0.  1.
        -11    1    4    4    0    0 -0.61344979627E-01 -0.65001804568E-01  0.84690210511E-01  0.12313055673E+00  0.51100000000E-03 0.  1.
         11    1    4    4    0    0 -0.14620857485E-01 -0.71429209682E-02 -0.40168395541E-02  0.16768628882E-01  0.51100000000E-03 0. -1.
</event>
<event>
 8    1  0.2123879E+004  0.1043930E+01  0.7957747E-01            NaN
         13   -1    0    0    0    0  0.00000000000E+00  0.00000000000E+00  0.74505805969E-08  0.10566000000E+00  0.10566000000E+00 0.  1.
     999900   -1    0    0    0    0 -0.00000000000E+00 -0.00000000000E+00 -0.74505805969E-08  0.93827000000E+00  0.93827000000E+00 0. -1.
     999902    2    1    2    0    0  0.14482303972E-02  0.13257674067E-01 -0.45334329482E-02  0.10298440032E+01  0.10297476659E+01 0.  0.
     999903    2    3    3    0    0 -0.80724981390E-01 -0.99527030317E-01 -0.28727596625E-01  0.13852016535E+00  0.44050073964E-01 0.  0.
         14    1    1    2    0    0 -0.14482303972E-02 -0.13257674067E-01  0.45334329482E-02  0.14085996849E-01  0.00000000000E+00 0.  1.
     999901    1    3    3    0    0  0.82173211787E-01  0.11278470438E+00  0.24194163676E-01  0.89132383780E+00  0.88000000000E+00 0.  1.
        -11    1    4    4    0    0  0.36239360605E-02 -0.74607578959E-02  0.43064455660E-02  0.93596161976E-02  0.51100000000E-03 0.  1.
         11    1    4    4    0    0 -0.84348917450E-01 -0.92066272421E-01 -0.33034042191E-01  0.12916054915E+00  0.51100000000E-03 0. -1.
</event>
<event>
 8    1  0.2123879E+004  0.1043930E+01  0.7957747E-01            NaN
         13   -1    0    0    0    0  0.00000000000E+00  0.00000000000E+00  0.74505805969E-08  0.10566000000E+00  0.10566000000E+00 0.  1.
     999900   -1    0    0    0    0 -0.00000000000E+00 -0.00000000000E+00 -0.74505805969E-08  0.93827000000E+00  0.93827000000E+00 0.  1.
     999902    2    1    2    0    0 -0.95163164495E-02 -0.80470349043E-02 -0.44193381229E-02  0.10307070805E+01  0.10306222588E+01 0.  0.
     999903    2    3    3    0    0  0.88359137867E-01  0.11292169603E-01 -0.97175675377E-01  0.14022555491E+00  0.47804226034E-01 0.  0.
         14    1    1    2    0    0  0.95163164495E-02  0.80470349043E-02  0.44193381229E-02  0.13222919457E-01  0.00000000000E+00 0.  1.
     999901    1    3    3    0    0 -0.97875454316E-01 -0.19339204508E-01  0.92756337254E-01  0.89048152563E+00  0.88000000000E+00 0. -1.
        -11    1    4    4    0    0  0.71242274968E-01  0.28564251644E-01 -0.72745846375E-01  0.10575252952E+00  0.51100000000E-03 0. -1.
         11    1    4    4    0    0  0.17116862899E-01 -0.17272082040E-01 -0.24429829002E-01  0.34473025391E-01  0.51100000000E-03 0.  1.
</event>
<event>
 8    1  0.2123879E+004  0.1043930E+01  0.7957747E-01            NaN
         13   -1    0    0    0    0  0.00000000000E+00  0.00000000000E+00  0.74505805969E-08  0.10566000000E+00  0.10566000000E+00 0. -1.
     999900   -1    0    0    0    0 -0.00000000000E+00 -0.00000000000E+00 -0.74505805969E-08  0.93827000000E+00  0.93827000000E+00 0.  1.
     999902    2    1    2    0    0 -0.12247506786E-01 -0.12591867908E-01  0.40936884858E-02  0.10258935135E+01  0.10257349493E+01 0.  0.
     999903    2    3    3    0    0 -0.89864526283E-01 -0.46088300819E-01 -0.82032428876E-01  0.13765699048E+00  0.44948449186E-01 0.  0.
         14    1    1    2    0    0  0.12247506786E-01  0.12591867908E-01 -0.40936884858E-02  0.18036486501E-01  0.00000000000E+00 0.  1.
     999901    1    3    3    0    0  0.77617019497E-01  0.33496432911E-01  0.86126117362E-01  0.88823652302E+00  0.88000000000E+00 0. -1.
        -11    1    4    4    0    0 -0.82441397489E-01 -0.46351964403E-01 -0.54549312758E-01  0.10918322796E+00  0.51100000000E-03 0. -1.
         11    1    4    4    0    0 -0.74231287936E-02  0.26366358441E-03 -0.27483116118E-01  0.28473762522E-01  0.51100000000E-03 0.  1.
</event>
<event>
 8    1  0.2123879E+004  0.1043930E+01  0.7957747E-01            NaN
         13   -1    0    0    0    0  0.00000000000E+00  0.00000000000E+00  0.74505805969E-08  0.10566000000E+00  0.10566000000E+00 0. -1.
     999900   -1    0    0    0    0 -0.00000000000E+00 -0.00000000000E+00 -0.74505805969E-08  0.93827000000E+00  0.93827000000E+00 0. -1.
     999902    2    1    2    0    0 -0.11107945871E-01  0.49001044575E-02  0.77590823880E-02  0.10295216398E+01  0.10294208109E+01 0.  0.
     999903    2    3    3    0    0 -0.12910517365E+00  0.34610523036E-01  0.12984991085E-01  0.14113356867E+00  0.43405530132E-01 0.  0.
         14    1    1    2    0    0  0.11107945871E-01 -0.49001044575E-02 -0.77590823880E-02  0.14408360236E-01  0.00000000000E+00 0.  1.
     999901    1    3    3    0    0  0.11799722777E+00 -0.29710418578E-01 -0.52259086971E-02  0.88838807109E+00  0.88000000000E+00 0.  1.
        -11    1    4    4    0    0 -0.47138399435E-01  0.34748638093E-01  0.50096601453E-02  0.58778009208E-01  0.51100000000E-03 0.  1.
         11    1    4    4    0    0 -0.81966774211E-01 -0.13811505736E-03  0.79753309397E-02  0.82355559466E-01  0.51100000000E-03 0. -1.
</event>
<event>
 8    1  0.2123879E+004  0.1043930E+01  0.7957747E-01            NaN
         13   -1    0    0    0    0  0.00000000000E+00  0.00000000000E+00  0.74505805969E-08  0.10566000000E+00  0.10566000000E+00 0.  1.
     999900   -1    0    0    0    0 -0.00000000000E+00 -0.00000000000E+00 -0.74505805969E-08  0.93827000000E+00  0.93827000000E+00 0. -1.
     999902    2    1    2    0    0  0.68779953695E-02  0.59786501181E-03 -0.11968709163E-01  0.10301128273E+01  0.10300201564E+01 0.  0.
     999903    2    3    3    0    0 -0.72142163754E-01 -0.10910509232E+00  0.53103088659E-03  0.13969990740E+00  0.49064948496E-01 0.  0.
         14    1    1    2    0    0 -0.68779953695E-02 -0.59786501181E-03  0.11968709163E-01  0.13817172717E-01  0.00000000000E+00 0.  1.
     999901    1    3    3    0    0  0.79020159124E-01  0.10970295734E+00 -0.12499740049E-01  0.89041291988E+00  0.88000000000E+00 0. -1.
        -11    1    4    4    0    0 -0.72549072686E-01 -0.70842498516E-01 -0.88644205204E-03  0.10140549514E+00  0.51100000000E-03 0.  1.
         11    1    4    4    0    0  0.40690893186E-03 -0.38262593809E-01  0.14174729386E-02  0.38294412261E-01  0.51100000000E-03 0. -1.
</event>
<event>
 8    1  0.2123879E+004  0.1043930E+01  0.7957747E-01            NaN
         13   -1    0    0    0    0  0.00000000000E+00  0.00000000000E+00  0.74505805969E-08  0.10566000000E+00  0.10566000000E+00 0. -1.
     999900   -1    0    0    0    0 -0.00000000000E+00 -0.00000000000E+00 -0.74505805969E-08  0.93827000000E+00  0.93827000000E+00 0.  1.
     999902    2    1    2    0    0  0.20731494716E-02 -0.14389785420E-02 -0.14422883058E-01  0.10292880000E+01  0.10291838508E+01 0.  0.
     999903    2    3    3    0    0  0.12222468942E+00 -0.49018395578E-01  0.11037964017E-01  0.13948552293E+00  0.44639630929E-01 0.  0.
         14    1    1    2    0    0 -0.20731494716E-02  0.14389785420E-02  0.14422883058E-01  0.14641999989E-01  0.00000000000E+00 0. -1.
     999901    1    3    3    0    0 -0.12015153995E+00  0.47579417036E-01 -0.25460847076E-01  0.88980247708E+00  0.88000000000E+00 0.  1.
        -11    1    4    4    0    0  0.49432700870E-01 -0.20043253594E-01 -0.17439082168E-01  0.56122247263E-01  0.51100000000E-03 0.  1.
         11    1    4    4    0    0  0.72791988550E-01 -0.28975141985E-01  0.28477046186E-01  0.83363275671E-01  0.51100000000E-03 0. -1.
</event>
<event>
 8    1  0.2123879E+004  0.1043930E+01  0.7957747E-01            NaN
         13   -1    0    0    0    0  0.00000000000E+00  0.00000000000E+00  0.74505805969E-08  0.10566000000E+00  0.10566000000E+00 0.  1.
     999900   -1    0    0    0    0 -0.00000000000E+00 -0.00000000000E+00 -0.74505805969E-08  0.93827000000E+00  0.93827000000E+00 0.  1.
     999902    2    1    2    0    0 -0.58656444268E-02  0.20489866637E-01  0.14535019863E-01  0.10181325734E+01  0.10178056935E+01 0.  0.
     999903    2    3    3    0    0  0.67245292166E-02 -0.40312030257E-01 -0.11037415261E+00  0.12714565734E+00  0.48096627104E-01 0.  0.
         14    1    1    2    0    0  0.58656444268E-02 -0.20489866637E-01 -0.14535019863E-01  0.25797426650E-01  0.00000000000E+00 0. -1.
     999901    1    3    3    0    0 -0.12590173643E-01  0.60801896894E-01  0.12490917247E+00  0.89098691601E+00  0.88000000000E+00 0. -1.
        -11    1    4    4    0    0  0.18435450036E-01 -0.44720282284E-01 -0.99181208525E-01  0.11034918537E+00  0.51100000000E-03 0. -1.
         11    1    4    4    0    0 -0.11710920820E-01  0.44082520266E-02 -0.11192944085E-01  0.16796471971E-01  0.51100000000E-03 0.  1.
</event>
<event>
 8    1  0.2123879E+004  0.1043930E+01  0.7957747E-01            NaN
         13   -1    0    0    0    0  0.00000000000E+00  0.00000000000E+00  0.74505805969E-08  0.10566000000E+00  0.10566000000E+00 0. -1.
     999900   -1    0    0    0    0 -0.00000000000E+00 -0.00000000000E+00 -0.74505805969E-08  0.93827000000E+00  0.93827000000E+00 0. -1.
     999902    2    1    2    0    0 -0.87813282640E-02 -0.10562805069E-01  0.16821453837E-02  0.10300911348E+01  0.10299981708E+01 0.  0.
     999903    2    3    3    0    0  0.13112676871E-01  0.91943485857E-01  0.93583632564E-01  0.13911820003E+00  0.44389530405E-01 0.  0.
         14    1    1    2    0    0  0.87813282640E-02  0.10562805069E-01 -0.16821453837E-02  0.13838865203E-01  0.00000000000E+00 0. -1.
     999901    1    3    3    0    0 -0.21894005135E-01 -0.10250629093E+00 -0.91901487180E-01  0.89097293477E+00  0.88000000000E+00 0. -1.
        -11    1    4    4    0    0  0.15482219001E-01  0.24758357855E-01  0.53209802806E-01  0.60697772813E-01  0.51100000000E-03 0. -1.
         11    1    4    4    0    0 -0.23695421298E-02  0.67185128003E-01  0.40373829758E-01  0.78420427218E-01  0.51100000000E-03 0.  1.
</event>
<event>
 8    1  0.2123879E+004  0.1043930E+01  0.7957747E-01            NaN
         13   -1    0    0    0    0  0.00000000000E+00  0.00000000000E+00  0.74505805969E-08  0.10566000000E+00  0.10566000000E+00 0.  1.
     999900   -1    0    0    0    0 -0.00000000000E+00 -0.00000000000E+00 -0.74505805969E-08  0.93827000000E+00  0.93827000000E+00 0.  1.
     999902    2    1    2    0    0  0.10737395159E-02  0.11820856071E-01 -0.75374674783E-02  0.10298694534E+01  0.10297734664E+01 0.  0.
     999903    2    3    3    0    0 -0.93136367225E-01 -0.54144638518E-02  0.90496048834E-01  0.13926113837E+00  0.50004304697E-01 0.  0.
         14    1    1    2    0    0 -0.10737395159E-02 -0.11820856071E-01  0.75374674783E-02  0.14060546604E-01  0.00000000000E+00 0.  1.
     999901    1    3    3    0    0  0.94210106741E-01  0.17235319923E-01 -0.98033516313E-01  0.89060831502E+00  0.88000000000E+00 0.  1.
        -11    1    4    4    0    0 -0.50114173557E-01 -0.26836922573E-02  0.80726756433E-01  0.95056314470E-01  0.51100000000E-03 0. -1.
         11    1    4    4    0    0 -0.43022193667E-01 -0.27307715945E-02  0.97692924019E-02  0.44204823905E-01  0.51100000000E-03 0.  1.
</event>
<event>
 8    1  0.2123879E+004  0.1043930E+01  0.7957747E-01            NaN
         13   -1    0    0    0    0  0.00000000000E+00  0.00000000000E+00  0.74505805969E-08  0.10566000000E+00  0.10566000000E+00 0. -1.
     999900   -1    0    0    0    0 -0.00000000000E+00 -0.00000000000E+00 -0.74505805969E-08  0.93827000000E+00  0.93827000000E+00 0.  1.
     999902    2    1    2    0    0 -0.67105197343E-02 -0.95402213559E-02  0.79917563942E-02  0.10297908675E+01  0.10296937970E+01 0.  0.
     999903    2    3    3    0    0 -0.24976837651E-01 -0.61821394991E-01 -0.11407935534E+00  0.13964012978E+00  0.45161258092E-01 0.  0.
         14    1    1    2    0    0  0.67105197343E-02  0.95402213559E-02 -0.79917563942E-02  0.14139132537E-01  0.00000000000E+00 0. -1.
     999901    1    3    3    0    0  0.18266317917E-01  0.52281173635E-01  0.12207111173E+00  0.89015073769E+00  0.88000000000E+00 0. -1.
        -11    1    4    4    0    0  0.72396595044E-02 -0.27540031764E-01 -0.68282650534E-01  0.73984103050E-01  0.51100000000E-03 0.  1.
         11    1    4    4    0    0 -0.32216497155E-01 -0.34281363227E-01 -0.45796704802E-01  0.65656026725E-01  0.51100000000E-03 0. -1.
</event>
<event>
 8    1  0.2123879E+004  0.1043930E+01  0.7957747E-01            NaN
         13   -1    0    0    0    0  0.00000000000E+00  0.00000000000E+00  0.74505805969E-08  0.10566000000E+00  0.10566000000E+00 0. -1.
     999900   -1    0    0    0    0 -0.00000000000E+00 -0.00000000000E+00 -0.74505805969E-08  0.93827000000E+00  0.93827000000E+00 0.  1.
     999902    2    1    2    0    0 -0.77566090851E-02 -0.45694618562E-02  0.69680837578E-02  0.10325458374E+01  0.10324830784E+01 0.  0.
     999903    2    3    3    0    0  0.11478732502E+00  0.22885518603E-01 -0.63795371984E-01  0.14081815568E+00  0.45387515181E-01 0.  0.
         14    1    1    2    0    0  0.77566090851E-02  0.45694618562E-02 -0.69680837578E-02  0.11384162570E-01  0.00000000000E+00 0.  1.
     999901    1    3    3    0    0 -0.12254393411E+00 -0.27454980459E-01  0.70763455742E-01  0.89172768175E+00  0.88000000000E+00 0.  1.
        -11    1    4    4    0    0  0.37057608911E-01  0.22062676170E-01 -0.51407026209E-02  0.43436344257E-01  0.51100000000E-03 0. -1.
         11    1    4    4    0    0  0.77729716110E-01  0.82284243288E-03 -0.58654669363E-01  0.97381811419E-01  0.51100000000E-03 0.  1.
</event>
<event>
 8    1  0.2123879E+004  0.1043930E+01  0.7957747E-01            NaN
         13   -1    0    0    0    0  0.00000000000E+00  0.00000000000E+00  0.74505805969E-08  0.10566000000E+00  0.10566000000E+00 0. -1.
     999900   -1    0    0    0    0 -0.00000000000E+00 -0.00000000000E+00 -0.74505805969E-08  0.93827000000E+00  0.93827000000E+00 0. -1.
     999902    2    1    2    0    0 -0.94379236453E-02 -0.80612241456E-02 -0.58636801630E-02  0.10302026375E+01  0.10301111754E+01 0.  0.
     999903    2    3    3    0    0  0.32054478202E-01  0.82872555530E-01  0.96762577155E-01  0.13861824975E+00  0.44234294322E-01 0.  0.
         14    1    1    2    0    0  0.94379236453E-02  0.80612241456E-02  0.58636801630E-02  0.13727362548E-01  0.00000000000E+00 0.  1.
     999901    1    3    3    0    0 -0.41492401847E-01 -0.90933779676E-01 -0.10262625732E+00  0.89158438770E+00  0.88000000000E+00 0. -1.
        -11    1    4    4    0    0 -0.42577500185E-02  0.15905155908E-01  0.41072097441E-01  0.44252465794E-01  0.51100000000E-03 0.  1.
         11    1    4    4    0    0  0.36312228220E-01  0.66967399622E-01  0.55690479714E-01  0.94365783959E-01  0.51100000000E-03 0. -1.
</event>
<event>
 8    1  0.2123879E+004  0.1043930E+01  0.7957747E-01            NaN
         13   -1    0    0    0    0  0.00000000000E+00  0.00000000000E+00  0.74505805969E-08  0.10566000000E+00  0.10566000000E+00 0. -1.
     999900   -1    0    0    0    0 -0.00000000000E+00 -0.00000000000E+00 -0.74505805969E-08  0.93827000000E+00  0.93827000000E+00 0. -1.
     999902    2    1    2    0    0  0.28336901644E-02  0.66262143040E-02 -0.12877326792E-01  0.10291732368E+01  0.10290674367E+01 0.  0.
     999903    2    3    3    0    0  0.41449655473E-01 -0.88363930549E-01  0.85191978485E-01  0.13780804279E+00  0.46980052120E-01 0.  0.
         14    1    1    2    0    0 -0.28336901644E-02 -0.66262143040E-02  0.12877326792E-01  0.14756763238E-01  0.00000000000E+00 0. -1.
     999901    1    3    3    0    0 -0.38615965309E-01  0.94990144853E-01 -0.98069305277E-01  0.89136519398E+00  0.88000000000E+00 0.  1.
        -11    1    4    4    0    0  0.43549472605E-01 -0.82075775164E-01  0.57363537336E-01  0.10919627269E+00  0.51100000000E-03 0. -1.
         11    1    4    4    0    0 -0.20998171316E-02 -0.62881553849E-02  0.27828441150E-01  0.28611770095E-01  0.51100000000E-03 0.  1.
</event>
<event>
 8    1  0.2123879E+004  0.1043930E+01  0.7957747E-01            NaN
         13   -1    0    0    0    0  0.00000000000E+00  0.00000000000E+00  0.74505805969E-08  0.10566000000E+00  0.10566000000E+00 0.  1.
     999900   -1    0    0    0    0 -0.00000000000E+00 -0.00000000000E+00 -0.74505805969E-08  0.93827000000E+00  0.93827000000E+00 0. -1.
     999902    2    1    2    0    0 -0.41828830146E-03  0.81671798074E-02  0.11047674587E-01  0.10301848589E+01  0.10300931582E+01 0.  0.
     999903    2    3    3    0    0 -0.12510319283E+00 -0.19192292453E-03  0.46110444560E-01  0.14066498958E+00  0.44828791034E-01 0.  0.
         14    1    1    2    0    0  0.41828830146E-03 -0.81671798074E-02 -0.11047674587E-01  0.13745141138E-01  0.00000000000E+00 0. -1.
     999901    1    3    3    0    0  0.12468490452E+00  0.83591027319E-02 -0.35062769973E-01  0.88951986929E+00  0.88000000000E+00 0. -1.
        -11    1    4    4    0    0 -0.84227548424E-01  0.20354399160E-01  0.24399874101E-01  0.90023310624E-01  0.51100000000E-03 0. -1.
         11    1    4    4    0    0 -0.40875644402E-01 -0.20546322085E-01  0.21710570459E-01  0.50641678953E-01  0.51100000000E-03 0.  1.
</event>
<event>
 7    1  0.2123879E+004  0.1043930E+01  0.7957747E-01            NaN
         13   -1    0    0    0    0  0.00000000000E+00  0.00000000000E+00  0.74505805969E-08  0.10566000000E+00  0.10566000000E+00 0. -1.
     999900   -1    0    0    0    0 -0.00000000000E+00 -0.00000000000E+00 -0.74505805969E-08  0.93827000000E+00  0.93827000000E+00 0.  1.
     999903    2    1    2    0    0 -0.12303344145E-01  0.22534343554E-01 -0.10717361515E+00  0.11915933801E+00  0.45316609893E-01 0.  0.
         14    1    1    2    0    0  0.26195534742E-01  0.57375939539E-02 -0.22124079053E-01  0.34764937779E-01  0.00000000000E+00 0.  1.
     999901    1    1    2    0    0 -0.13892190597E-01 -0.28271937508E-01  0.12929769421E+00  0.89000572422E+00  0.88000000000E+00 0. -1.
        -11    1    3    3    0    0  0.11995574726E-01  0.23737719947E-01 -0.68300395004E-01  0.73297873366E-01  0.51100000000E-03 0.  1.
         11    1    3    3    0    0 -0.24298918871E-01 -0.12033763931E-02 -0.38873220150E-01  0.45861464640E-01  0.51100000000E-03 0. -1.
</event>
<event>
 8    1  0.2123879E+004  0.1043930E+01  0.7957747E-01            NaN
         13   -1    0    0    0    0  0.00000000000E+00  0.00000000000E+00  0.74505805969E-08  0.10566000000E+00  0.10566000000E+00 0.  1.
     999900   -1    0    0    0    0 -0.00000000000E+00 -0.00000000000E+00 -0.74505805969E-08  0.93827000000E+00  0.93827000000E+00 0.  1.
     999902    2    1    2    0    0 -0.34397303414E-02  0.66855656988E-02  0.20135444742E-01  0.10224366366E+01  0.10222106981E+01 0.  0.
     999903    2    3    3    0    0 -0.16106608169E-01  0.77422440191E-01 -0.95452325922E-01  0.13197344934E+00  0.45301078746E-01 0.  0.
         14    1    1    2    0    0  0.34397303414E-02 -0.66855656988E-02 -0.20135444742E-01  0.21493363359E-01  0.00000000000E+00 0. -1.
     999901    1    3    3    0    0  0.12666877828E-01 -0.70736874492E-01  0.11558777066E+00  0.89046318730E+00  0.88000000000E+00 0. -1.
        -11    1    4    4    0    0  0.40398748665E-02  0.73521002175E-02 -0.38635066108E-01  0.39538632003E-01  0.51100000000E-03 0.  1.
         11    1    4    4    0    0 -0.20146483036E-01  0.70070339974E-01 -0.56817259814E-01  0.92434817339E-01  0.51100000000E-03 0. -1.
</event>
<event>
 8    1  0.2123879E+004  0.1043930E+01  0.7957747E-01            NaN
         13   -1    0    0    0    0  0.00000000000E+00  0.00000000000E+00  0.74505805969E-08  0.10566000000E+00  0.10566000000E+00 0. -1.
     999900   -1    0    0    0    0 -0.00000000000E+00 -0.00000000000E+00 -0.74505805969E-08  0.93827000000E+00  0.93827000000E+00 0. -1.
     999902    2    1    2    0    0 -0.10910805715E-01 -0.58485677889E-02  0.50535406229E-02  0.10305587735E+01  0.10304720257E+01 0.  0.
     999903    2    3    3    0    0  0.46479335111E-01  0.58774027742E-01 -0.10817937160E+00  0.13910411923E+00  0.45082863918E-01 0.  0.
         14    1    1    2    0    0  0.10910805715E-01  0.58485677889E-02 -0.50535406229E-02  0.13371226547E-01  0.00000000000E+00 0.  1.
     999901    1    3    3    0    0 -0.57390140827E-01 -0.64622595530E-01  0.11323291222E+00  0.89145465422E+00  0.88000000000E+00 0.  1.
        -11    1    4    4    0    0  0.12935585666E-02  0.36193227696E-01 -0.54055755647E-01  0.65068493638E-01  0.51100000000E-03 0. -1.
         11    1    4    4    0    0  0.45185776545E-01  0.22580800046E-01 -0.54123615953E-01  0.74035625597E-01  0.51100000000E-03 0.  1.
</event>
<event>
 8    1  0.2123879E+004  0.1043930E+01  0.7957747E-01            NaN
         13   -1    0    0    0    0  0.00000000000E+00  0.00000000000E+00  0.74505805969E-08  0.10566000000E+00  0.10566000000E+00 0.  1.
     999900   -1    0    0    0    0 -0.00000000000E+00 -0.00000000000E+00 -0.74505805969E-08  0.93827000000E+00  0.93827000000E+00 0.  1.
     999902    2    1    2    0    0  0.10480309428E-01  0.74566526423E-02 -0.52570272457E-02  0.10300348609E+01  0.10299411342E+01 0.  0.
     999903    2    3    3    0    0 -0.74253800530E-01 -0.10472330957E+00  0.26286322308E-01  0.13831786759E+00  0.44274860733E-01 0.  0.
         14    1    1    2    0    0 -0.10480309428E-01 -0.74566526423E-02  0.52570272457E-02  0.13895139071E-01  0.00000000000E+00 0.  1.
     999901    1    3    3    0    0  0.84734109958E-01  0.11217996221E+00 -0.31543349554E-01  0.89171699334E+00  0.88000000000E+00 0.  1.
        -11    1    4    4    0    0 -0.34697600500E-01 -0.67251370528E-01  0.34576538559E-01  0.83201372934E-01  0.51100000000E-03 0. -1.
         11    1    4    4    0    0 -0.39556200030E-01 -0.37471939044E-01 -0.82902162510E-02  0.55116494654E-01  0.51100000000E-03 0.  1.
</event>
<event>
 8    1  0.2123879E+004  0.1043930E+01  0.7957747E-01            NaN
         13   -1    0    0    0    0  0.00000000000E+00  0.00000000000E+00  0.74505805969E-08  0.10566000000E+00  0.10566000000E+00 0.  1.
     999900   -1    0    0    0    0 -0.00000000000E+00 -0.00000000000E+00 -0.74505805969E-08  0.93827000000E+00  0.93827000000E+00 0.  1.
     999902    2    1    2    0    0  0.12256390815E-01 -0.80275085581E-02  0.27763660644E-02  0.10290179841E+01  0.10289099297E+01 0.  0.
     999903    2    3    3    0    0  0.22498133113E-01  0.95693137906E-01 -0.85915408817E-01  0.13844002754E+00  0.46052590780E-01 0.  0.
         14    1    1    2    0    0 -0.12256390815E-01  0.80275085581E-02 -0.27763660644E-02  0.14912015893E-01  0.00000000000E+00 0. -1.
     999901    1    3    3    0    0 -0.10241742297E-01 -0.10372064646E+00  0.88691774882E-01  0.89057795657E+00  0.88000000000E+00 0. -1.
        -11    1    4    4    0    0 -0.11403473363E-01  0.38832635077E-01 -0.45406089530E-01  0.60827517121E-01  0.51100000000E-03 0.  1.
         11    1    4    4    0    0  0.33901606475E-01  0.56860502829E-01 -0.40509319288E-01  0.77612510420E-01  0.51100000000E-03 0. -1.
</event>
<event>
 8    1  0.2123879E+004  0.1043930E+01  0.7957747E-01            NaN
         13   -1    0    0    0    0  0.00000000000E+00  0.00000000000E+00  0.74505805969E-08  0.10566000000E+00  0.10566000000E+00 0.  1.
     999900   -1    0    0    0    0 -0.00000000000E+00 -0.00000000000E+00 -0.74505805969E-08  0.93827000000E+00  0.93827000000E+00 0.  1.
     999902    2    1    2    0    0 -0.76058239116E-02  0.11496678353E-01 -0.16256054334E-02  0.10300496267E+01  0.10299561004E+01 0.  0.
     999903    2    3    3    0    0 -0.21943142776E-01  0.12523302070E+00 -0.43137746377E-01  0.14164387921E+00  0.45136596754E-01 0.  0.
         14    1    1    2    0    0  0.76058239116E-02 -0.11496678353E-01  0.16256054334E-02  0.13880373321E-01  0.00000000000E+00 0. -1.
     999901    1    3    3    0    0  0.14337318864E-01 -0.11373634235E+00  0.41512140944E-01  0.88840574747E+00  0.88000000000E+00 0. -1.
        -11    1    4    4    0    0 -0.18471962801E-02  0.57987747235E-01 -0.41687850544E-01  0.71443186991E-01  0.51100000000E-03 0. -1.
         11    1    4    4    0    0 -0.20095946496E-01  0.67245273469E-01 -0.14498958331E-02  0.70200692222E-01  0.51100000000E-03 0.  1.
</event>
<event>
 8    1  0.2123879E+004  0.1043930E+01  0.7957747E-01            NaN
         13   -1    0    0    0    0  0.00000000000E+00  0.00000000000E+00  0.74505805969E-08  0.10566000000E+00  0.10566000000E+00 0. -1.
     999900   -1    0    0    0    0 -0.00000000000E+00 -0.00000000000E+00 -0.74505805969E-08  0.93827000000E+00  0.93827000000E+00 0. -1.
     999902    2    1    2    0    0 -0.68277851255E-02 -0.48647725919E-03  0.11427666518E-01  0.10306090814E+01  0.10305229895E+01 0.  0.
     999903    2    3    3    0    0 -0.54072428579E-01 -0.39402997289E-01 -0.11409235233E+00  0.13959739407E+00  0.44653598318E-01 0.  0.
         14    1    1    2    0    0  0.68277851255E-02  0.48647725919E-03 -0.11427666518E-01  0.13320918583E-01  0.00000000000E+00 0.  1.
     999901    1    3    3    0    0  0.47244643453E-01  0.38916520030E-01  0.12552001884E+00  0.89101168735E+00  0.88000000000E+00 0.  1.
        -11    1    4    4    0    0  0.64919799143E-03 -0.23402443937E-01 -0.34017604558E-01  0.41298358092E-01  0.51100000000E-03 0.  1.
         11    1    4    4    0    0 -0.54721626570E-01 -0.16000553352E-01 -0.80074747768E-01  0.98299035973E-01  0.51100000000E-03 0. -1.
</event>
<event>
 8    1  0.2123879E+004  0.1043930E+01  0.7957747E-01            NaN
         13   -1    0    0    0    0  0.00000000000E+00  0.00000000000E+00  0.74505805969E-08  0.10566000000E+00  0.10566000000E+00 0.  1.
     999900   -1    0    0    0    0 -0.00000000000E+00 -0.00000000000E+00 -0.74505805969E-08  0.93827000000E+00  0.93827000000E+00 0.  1.
     999902    2    1    2    0    0 -0.10089480498E-01 -0.11582211279E-01 -0.21032509484E-02  0.10284261650E+01  0.10283092959E+01 0.  0.
     999903    2    3    3    0    0  0.30239342038E-01 -0.10220805626E+00 -0.78540698653E-01  0.13956051649E+00  0.44131528941E-01 0.  0.
         14    1    1    2    0    0  0.10089480498E-01  0.11582211279E-01  0.21032509484E-02  0.15503834990E-01  0.00000000000E+00 0. -1.
     999901    1    3    3    0    0 -0.40328822535E-01  0.90625844982E-01  0.76437447705E-01  0.88886564852E+00  0.88000000000E+00 0. -1.
        -11    1    4    4    0    0  0.83483993206E-02 -0.77906943390E-01 -0.36901742346E-01  0.86609395038E-01  0.51100000000E-03 0. -1.
         11    1    4    4    0    0  0.21890942717E-01 -0.24301112871E-01 -0.41638956307E-01  0.52951121453E-01  0.51100000000E-03 0.  1.
</event>
<event>
 8    1  0.2123879E+004  0.1043930E+01  0.7957747E-01            NaN
         13   -1    0    0    0    0  0.00000000000E+00  0.00000000000E+00  0.74505805969E-08  0.10566000000E+00  0.10566000000E+00 0.  1.
     999900   -1    0    0    0    0 -0.00000000000E+00 -0.00000000000E+00 -0.74505805969E-08  0.93827000000E+00  0.93827000000E+00 0. -1.
     999902    2    1    2    0    0 -0.28692530511E-02 -0.10687188901E-01 -0.82516092242E-02  0.10301264615E+01  0.10300339747E+01 0.  0.
     999903    2    3    3    0    0 -0.16269681435E-01  0.98227983304E-01  0.85351193024E-01  0.13838458698E+00  0.44181766899E-01 0.  0.
         14    1    1    2    0    0  0.28692530511E-02  0.10687188901E-01  0.82516092242E-02  0.13803538477E-01  0.00000000000E+00 0.  1.
     999901    1    3    3    0    0  0.13400428384E-01 -0.10891517221E+00 -0.93602802248E-01  0.89174187454E+00  0.88000000000E+00 0.  1.
        -11    1    4    4    0    0 -0.28125331301E-02  0.79175712586E-01  0.83304959821E-01  0.11496382587E+00  0.51100000000E-03 0. -1.
         11    1    4    4    0    0 -0.13457148305E-01  0.19052270718E-01  0.20462332028E-02  0.23420761118E-01  0.51100000000E-03 0.  1.
</event>
<event>
 8    1  0.2123879E+004  0.1043930E+01  0.7957747E-01            NaN
         13   -1    0    0    0    0  0.00000000000E+00  0.00000000000E+00  0.74505805969E-08  0.10566000000E+00  0.10566000000E+00 0. -1.
     999900   -1    0    0    0    0 -0.00000000000E+00 -0.00000000000E+00 -0.74505805969E-08  0.93827000000E+00  0.93827000000E+00 0.  1.
     999902    2    1    2    0    0 -0.63050861181E-02  0.50749382082E-02  0.11246489779E-01  0.10300738591E+01  0.10299806612E+01 0.  0.
     999903    2    3    3    0    0 -0.62284972630E-01  0.22550182243E-01  0.11689957498E+00  0.14181617898E+00  0.45369477129E-01 0.  0.
         14    1    1    2    0    0  0.63050861181E-02 -0.50749382082E-02 -0.11246489779E-01  0.13856140918E-01  0.00000000000E+00 0.  1.
     999901    1    3    3    0    0  0.55979886512E-01 -0.17475244034E-01 -0.10565308520E+00  0.88825768010E+00  0.88000000000E+00 0.  1.
        -11    1    4    4    0    0 -0.56864192717E-01  0.24073632985E-01  0.65175812261E-01  0.89784318472E-01  0.51100000000E-03 0.  1.
         11    1    4    4    0    0 -0.54207799124E-02 -0.15234507429E-02  0.51723762720E-01  0.52031860508E-01  0.51100000000E-03 0. -1.
</event>
<event>
 7    1  0.2123879E+004  0.1043930E+01  0.7957747E-01            NaN
         13   -1    0    0    0    0  0.00000000000E+00  0.00000000000E+00  0.74505805969E-08  0.10566000000E+00  0.10566000000E+00 0.  1.
     999900   -1    0    0    0    0 -0.00000000000E+00 -0.00000000000E+00 -0.74505805969E-08  0.93827000000E+00  0.93827000000E+00 0.  1.
     999902    2    1    2    0    0  0.18491144681E-02  0.74538734100E-02  0.11722725642E-01  0.10299156591E+01  0.10298203063E+01 0.  0.
         14    1    1    2    0    0 -0.18491144681E-02 -0.74538734100E-02 -0.11722725642E-01  0.14014340855E-01  0.00000000000E+00 0. -1.
     999901    1    3    3    0    0  0.10277338781E+00  0.14897447747E-01  0.56427226243E-01  0.88790108405E+00  0.88000000000E+00 0. -1.
        -11    1    3    3    0    0 -0.84079060235E-01 -0.13497194544E-01  0.87832638925E-02  0.85608816580E-01  0.51100000000E-03 0. -1.
         11    1    3    3    0    0 -0.16845213110E-01  0.60536202069E-02 -0.53487764494E-01  0.56405758517E-01  0.51100000000E-03 0.  1.
</event>
<event>
 8    1  0.2123879E+004  0.1043930E+01  0.7957747E-01            NaN
         13   -1    0    0    0    0  0.00000000000E+00  0.00000000000E+00  0.74505805969E-08  0.10566000000E+00  0.10566000000E+00 0. -1.
     999900   -1    0    0    0    0 -0.00000000000E+00 -0.00000000000E+00 -0.74505805969E-08  0.93827000000E+00  0.93827000000E+00 0. -1.
     999902    2    1    2    0    0 -0.64448026340E-02 -0.75745284601E-02 -0.91707034982E-02  0.10304018529E+01  0.10303130435E+01 0.  0.
     999903    2    3    3    0    0 -0.33995806553E-01  0.84854425539E-01 -0.97010034888E-01  0.14078512781E+00  0.45315747220E-01 0.  0.
         14    1    1    2    0    0  0.64448026340E-02  0.75745284601E-02  0.91707034982E-02  0.13528147140E-01  0.00000000000E+00 0. -1.
     999901    1    3    3    0    0  0.27551003919E-01 -0.92428953999E-01  0.87839331390E-01  0.88961672505E+00  0.88000000000E+00 0.  1.
        -11    1    4    4    0    0 -0.30406572382E-01  0.20220356686E-01 -0.43496502309E-01  0.56794623889E-01  0.51100000000E-03 0. -1.
         11    1    4    4    0    0 -0.35892341706E-02  0.64634068853E-01 -0.53513532578E-01  0.83990503919E-01  0.51100000000E-03 0.  1.
</event>
<event>
 8    1  0.2123879E+004  0.1043930E+01  0.7957747E-01            NaN
         13   -1    0    0    0    0  0.00000000000E+00  0.00000000000E+00  0.74505805969E-08  0.10566000000E+00  0.10566000000E+00 0.  1.
     999900   -1    0    0    0    0 -0.00000000000E+00 -0.00000000000E+00 -0.74505805969E-08  0.93827000000E+00  0.93827000000E+00 0.  1.
     999902    2    1    2    0    0  0.44825280571E-02  0.66501517881E-02  0.11113732389E-01  0.10302247957E+01  0.10301336307E+01 0.  0.
     999903    2    3    3    0    0 -0.10303549017E-01 -0.23719120893E-02  0.13368017422E+00  0.14156144081E+00  0.45359270865E-01 0.  0.
         14    1    1    2    0    0 -0.44825280571E-02 -0.66501517881E-02 -0.11113732389E-01  0.13705204274E-01  0.00000000000E+00 0. -1.
     999901    1    3    3    0    0  0.14786077074E-01  0.90220638774E-02 -0.12256644184E+00  0.88866335492E+00  0.88000000000E+00 0.  1.
        -11    1    4    4    0    0 -0.30914163022E-02 -0.22848396039E-01  0.49232333519E-01  0.54366256456E-01  0.51100000000E-03 0. -1.
         11    1    4    4    0    0 -0.72121327152E-02  0.20476483950E-01  0.84447840705E-01  0.87195184351E-01  0.51100000000E-03 0.  1.
</event>
<event>
 8    1  0.2123879E+004  0.1043930E+01  0.7957747E-01            NaN
         13   -1    0    0    0    0  0.00000000000E+00  0.00000000000E+00  0.74505805969E-08  0.10566000000E+00  0.10566000000E+00 0. -1.
     999900   -1    0    0    0    0 -0.00000000000E+00 -0.00000000000E+00 -0.74505805969E-08  0.93827000000E+00  0.93827000000E+00 0. -1.
     999902    2    1    2    0    0 -0.13313513683E-01 -0.13778129574E-02 -0.23632053619E-02  0.10303383572E+01  0.10302487066E+01 0.  0.
     999903    2    3    3    0    0  0.11428704075E+00  0.73319581929E-02  0.64214247269E-01  0.13860391307E+00  0.44410470281E-01 0.  0.
         14    1    1    2    0    0  0.13313513683E-01  0.13778129574E-02  0.23632053619E-02  0.13591642826E-01  0.00000000000E+00 0.  1.
     999901    1    3    3    0    0 -0.12760055444E+00 -0.87097711503E-02 -0.66577452631E-01  0.89173444411E+00  0.88000000000E+00 0. -1.
        -11    1    4    4    0    0  0.49382257768E-01 -0.93735765862E-02  0.75342315279E-02  0.50828113146E-01  0.51100000000E-03 0. -1.
         11    1    4    4    0    0  0.64904782985E-01  0.16705534779E-01  0.56680015741E-01  0.87775799922E-01  0.51100000000E-03 0.  1.
</event>
<event>
 8    1  0.2123879E+004  0.1043930E+01  0.7957747E-01            NaN
         13   -1    0    0    0    0  0.00000000000E+00  0.00000000000E+00  0.74505805969E-08  0.10566000000E+00  0.10566000000E+00 0. -1.
     999900   -1    0    0    0    0 -0.00000000000E+00 -0.00000000000E+00 -0.74505805969E-08  0.93827000000E+00  0.93827000000E+00 0. -1.
     999902    2    1    2    0    0 -0.76997392108E-02 -0.46691809803E-02  0.88808492307E-02  0.10312826003E+01  0.10312050451E+01 0.  0.
     999903    2    3    3    0    0  0.66189984137E-01  0.87568000642E-01  0.77400632774E-01  0.14074211860E+00  0.42050175484E-01 0.  0.
         14    1    1    2    0    0  0.76997392108E-02  0.46691809803E-02 -0.88808492307E-02  0.12647399654E-01  0.00000000000E+00 0.  1.
     999901    1    3    3    0    0 -0.73889723347E-01 -0.92237181622E-01 -0.68519783543E-01  0.89054048175E+00  0.88000000000E+00 0.  1.
        -11    1    4    4    0    0  0.21445045095E-01  0.81440003783E-02  0.31346405039E-02  0.23158190633E-01  0.51100000000E-03 0. -1.
         11    1    4    4    0    0  0.44744939041E-01  0.79424000263E-01  0.74265992270E-01  0.11758392797E+00  0.51100000000E-03 0.  1.
</event>
<event>
 8    1  0.2123879E+004  0.1043930E+01  0.7957747E-01            NaN
         13   -1    0    0    0    0  0.00000000000E+00  0.00000000000E+00  0.74505805969E-08  0.10566000000E+00  0.10566000000E+00 0.  1.
     999900   -1    0    0    0    0 -0.00000000000E+00 -0.00000000000E+00 -0.74505805969E-08  0.93827000000E+00  0.93827000000E+00 0. -1.
     999902    2    1    2    0    0  0.10661250585E-01 -0.69407064364E-02  0.77013914451E-02  0.10290589846E+01  0.10289515278E+01 0.  0.
     999903    2    3    3    0    0  0.69262328251E-01 -0.62794703868E-01  0.95031487120E-01  0.14103854508E+00  0.46048264953E-01 0.  0.
         14    1    1    2    0    0 -0.10661250585E-01  0.69407064364E-02 -0.77013914451E-02  0.14871015435E-01  0.00000000000E+00 0. -1.
     999901    1    3    3    0    0 -0.58601077666E-01  0.55853997432E-01 -0.87330095675E-01  0.88802043949E+00  0.88000000000E+00 0. -1.
        -11    1    4    4    0    0  0.44762170054E-01 -0.29341484908E-01  0.81335544704E-01  0.97366865811E-01  0.51100000000E-03 0.  1.
         11    1    4    4    0    0  0.24500158197E-01 -0.33453218961E-01  0.13695942417E-01  0.43671679269E-01  0.51100000000E-03 0. -1.
</event>
<event>
 8    1  0.2123879E+004  0.1043930E+01  0.7957747E-01            NaN
         13   -1    0    0    0    0  0.00000000000E+00  0.00000000000E+00  0.74505805969E-08  0.10566000000E+00  0.10566000000E+00 0.  1.
     999900   -1    0    0    0    0 -0.00000000000E+00 -0.00000000000E+00 -0.74505805969E-08  0.93827000000E+00  0.93827000000E+00 0.  1.
     999902    2    1    2    0    0 -0.90578392213E-02  0.20438385288E-02  0.68264708107E-02  0.10324051386E+01  0.10323408099E+01 0.  0.
     999903    2    3    3    0    0  0.13038959124E+00 -0.16093799693E-01 -0.27759214700E-01  0.14056954305E+00  0.41578438420E-01 0.  0.
         14    1    1    2    0    0  0.90578392213E-02 -0.20438385288E-02 -0.68264708107E-02  0.11524861432E-01  0.00000000000E+00 0. -1.
     999901    1    3    3    0    0 -0.13944743046E+00  0.18137638222E-01  0.34585685511E-01  0.89183559551E+00  0.88000000000E+00 0. -1.
        -11    1    4    4    0    0  0.67553800609E-01 -0.11835178302E-01  0.64664819568E-02  0.68888779435E-01  0.51100000000E-03 0.  1.
         11    1    4    4    0    0  0.62835790632E-01 -0.42586213916E-02 -0.34225696657E-01  0.71680763620E-01  0.51100000000E-03 0. -1.
</event>
<event>
 8    1  0.2123879E+004  0.1043930E+01  0.7957747E-01            NaN
         13   -1    0    0    0    0  0.00000000000E+00  0.00000000000E+00  0.74505805969E-08  0.10566000000E+00  0.10566000000E+00 0.  1.
     999900   -1    0    0    0    0 -0.00000000000E+00 -0.00000000000E+00 -0.74505805969E-08  0.93827000000E+00  0.93827000000E+00 0. -1.
     999902    2    1    2    0    0  0.49408122970E-02 -0.44981773523E-02  0.12121427547E-01  0.10300889657E+01  0.10299959723E+01 0.  0.
     999903    2    3    3    0    0 -0.22284453687E-01  0.12728939968E+00  0.14940503204E-01  0.13985465507E+00  0.51350927576E-01 0.  0.
         14    1    1    2    0    0 -0.49408122970E-02  0.44981773523E-02 -0.12121427547E-01  0.13841034334E-01  0.00000000000E+00 0. -1.
     999901    1    3    3    0    0  0.27225265984E-01 -0.13178757703E+00 -0.28190756568E-02  0.89023431059E+00  0.88000000000E+00 0.  1.
        -11    1    4    4    0    0 -0.28857374943E-02  0.96315121493E-01 -0.80158083889E-02  0.96692525121E-01  0.51100000000E-03 0.  1.
         11    1    4    4    0    0 -0.19398716193E-01  0.30974278186E-01  0.22956311593E-01  0.43162129953E-01  0.51100000000E-03 0. -1.
</event>
<event>
 7    1  0.2123879E+004  0.1043930E+01  0.7957747E-01            NaN
         13   -1    0    0    0    0  0.00000000000E+00  0.00000000000E+00  0.74505805969E-08  0.10566000000E+00  0.10566000000E+00 0.  1.
     999900   -1    0    0    0    0 -0.00000000000E+00 -0.00000000000E+00 -0.74505805969E-08  0.93827000000E+00  0.93827000000E+00 0.  1.
     999903    2    1    2    0    0 -0.37213983905E-01 -0.89845790556E-01  0.35781024679E-01  0.11317055540E+00  0.45498859363E-01 0.  0.
         14    1    1    2    0    0 -0.13629232485E-01 -0.10683057443E-02  0.39135608926E-01  0.41454711931E-01  0.00000000000E+00 0.  1.
     999901    1    1    2    0    0  0.50843216389E-01  0.90914096301E-01 -0.74916633605E-01  0.88930473267E+00  0.88000000000E+00 0.  1.
        -11    1    3    3    0    0 -0.38858207639E-01 -0.82209200284E-01  0.16574444541E-01  0.92429899087E-01  0.51100000000E-03 0. -1.
         11    1    3    3    0    0  0.16442237343E-02 -0.76365902720E-02  0.19206580137E-01  0.20740656312E-01  0.51100000000E-03 0.  1.
</event>
<event>
 8    1  0.2123879E+004  0.1043930E+01  0.7957747E-01            NaN
         13   -1    0    0    0    0  0.00000000000E+00  0.00000000000E+00  0.74505805969E-08  0.10566000000E+00  0.10566000000E+00 0.  1.
     999900   -1    0    0    0    0 -0.00000000000E+00 -0.00000000000E+00 -0.74505805969E-08  0.93827000000E+00  0.93827000000E+00 0. -1.
     999902    2    1    2    0    0 -0.49741235689E-03  0.11032509287E-01  0.78663719501E-02  0.10303711104E+01  0.10302818942E+01 0.  0.
     999903    2    3    3    0    0  0.89319012643E-01 -0.92694632349E-01  0.32226874121E-01  0.13940548580E+00  0.42721624140E-01 0.  0.
         14    1    1    2    0    0  0.49741235689E-03 -0.11032509287E-01 -0.78663719501E-02  0.13558889625E-01  0.00000000000E+00 0.  1.
     999901    1    3    3    0    0 -0.89816425000E-01  0.10372714164E+00 -0.24360502171E-01  0.89096562458E+00  0.88000000000E+00 0. -1.
        -11    1    4    4    0    0  0.58425712248E-01 -0.83390959162E-01  0.33271185451E-01  0.10712072080E+00  0.51100000000E-03 0.  1.
         11    1    4    4    0    0  0.30893300395E-01 -0.93036731869E-02 -0.10443113293E-02  0.32284765002E-01  0.51100000000E-03 0. -1.
</event>
<event>
 8    1  0.2123879E+004  0.1043930E+01  0.7957747E-01            NaN
         13   -1    0    0    0    0  0.00000000000E+00  0.00000000000E+00  0.74505805969E-08  0.10566000000E+00  0.10566000000E+00 0.  1.
     999900   -1    0    0    0    0 -0.00000000000E+00 -0.00000000000E+00 -0.74505805969E-08  0.93827000000E+00  0.93827000000E+00 0.  1.
     999902    2    1    2    0    0  0.43233166424E-02 -0.64169799949E-02  0.93372501507E-02  0.10318034614E+01  0.10317321987E+01 0.  0.
     999903    2    3    3    0    0 -0.10942864779E+00 -0.28807778186E-01 -0.70387822892E-01  0.14062618128E+00  0.44908353455E-01 0.  0.
         14    1    1    2    0    0 -0.43233166424E-02  0.64169799949E-02 -0.93372501507E-02  0.12126538641E-01  0.00000000000E+00 0. -1.
     999901    1    3    3    0    0  0.11375196443E+00  0.22390798191E-01  0.79725073043E-01  0.89117728008E+00  0.88000000000E+00 0. -1.
        -11    1    4    4    0    0 -0.79931442316E-01 -0.40805424869E-01 -0.48856292683E-01  0.10218276090E+00  0.51100000000E-03 0. -1.
         11    1    4    4    0    0 -0.29497205470E-01  0.11997646683E-01 -0.21531530209E-01  0.38443420381E-01  0.51100000000E-03 0.  1.
</event>
<event>
 8    1  0.2123879E+004  0.1043930E+01  0.7957747E-01            NaN
         13   -1    0    0    0    0  0.00000000000E+00  0.00000000000E+00  0.74505805969E-08  0.10566000000E+00  0.10566000000E+00 0. -1.
     999900   -1    0    0    0    0 -0.00000000000E+00 -0.00000000000E+00 -0.74505805969E-08  0.93827000000E+00  0.93827000000E+00 0.  1.
     999902    2    1    2    0    0 -0.12388319323E-03 -0.10550106673E-01  0.86612312773E-02  0.10302794680E+01  0.10301890337E+01 0.  0.
     999903    2    3    3    0    0  0.10679343364E+00 -0.69428474056E-01 -0.39682842534E-01  0.14054067243E+00  0.44179204820E-01 0.  0.
         14    1    1    2    0    0  0.12388319323E-03  0.10550106673E-01 -0.86612312773E-02  0.13650532044E-01  0.00000000000E+00 0.  1.
     999901    1    3    3    0    0 -0.10691731683E+00  0.58878367384E-01  0.48344073811E-01  0.88973879552E+00  0.88000000000E+00 0. -1.
        -11    1    4    4    0    0  0.76858862748E-02 -0.22723109999E-01 -0.14791342309E-01  0.28186122546E-01  0.51100000000E-03 0.  1.
         11    1    4    4    0    0  0.99107547363E-01 -0.46705364057E-01 -0.24891500225E-01  0.11235454989E+00  0.51100000000E-03 0. -1.
</event>
<event>
 8    1  0.2123879E+004  0.1043930E+01  0.7957747E-01            NaN
         13   -1    0    0    0    0  0.00000000000E+00  0.00000000000E+00  0.74505805969E-08  0.10566000000E+00  0.10566000000E+00 0. -1.
     999900   -1    0    0    0    0 -0.00000000000E+00 -0.00000000000E+00 -0.74505805969E-08  0.93827000000E+00  0.93827000000E+00 0.  1.
     999902    2    1    2    0    0  0.68679507331E-02  0.12564416414E-01 -0.19697862152E-02  0.10294761644E+01  0.10293746935E+01 0.  0.
     999903    2    3    3    0    0 -0.10661929978E+00  0.25046821697E-01  0.72365007326E-01  0.13899268444E+00  0.45686471513E-01 0.  0.
         14    1    1    2    0    0 -0.68679507331E-02 -0.12564416414E-01  0.19697862152E-02  0.14453835644E-01  0.00000000000E+00 0.  1.
     999901    1    3    3    0    0  0.11348725052E+00 -0.12482405283E-01 -0.74334793542E-01  0.89048347992E+00  0.88000000000E+00 0.  1.
        -11    1    4    4    0    0 -0.35852695307E-01  0.30244971529E-01  0.21005954528E-01  0.51397327851E-01  0.51100000000E-03 0. -1.
         11    1    4    4    0    0 -0.70766604475E-01 -0.51981498321E-02  0.51359052798E-01  0.87595356589E-01  0.51100000000E-03 0.  1.
</event>
<event>
 8    1  0.2123879E+004  0.1043930E+01  0.7957747E-01            NaN
         13   -1    0    0    0    0  0.00000000000E+00  0.00000000000E+00  0.74505805969E-08  0.10566000000E+00  0.10566000000E+00 0. -1.
     999900   -1    0    0    0    0 -0.00000000000E+00 -0.00000000000E+00 -0.74505805969E-08  0.93827000000E+00  0.93827000000E+00 0.  1.
     999902    2    1    2    0    0  0.89163088012E-04 -0.30014166423E-02 -0.11125682793E-01  0.10324062302E+01  0.10323419138E+01 0.  0.
     999903    2    3    3    0    0  0.86632759532E-02  0.19661385635E-02 -0.13558700030E+00  0.14359308251E+00  0.46435122962E-01 0.  0.
         14    1    1    2    0    0 -0.89163088012E-04  0.30014166423E-02  0.11125682793E-01  0.11523769762E-01  0.00000000000E+00 0. -1.
     999901    1    3    3    0    0 -0.85741128652E-02 -0.49675552059E-02  0.12446131750E+00  0.88881314773E+00  0.88000000000E+00 0. -1.
        -11    1    4    4    0    0  0.18380368312E-01  0.19751313547E-01 -0.79419028269E-01  0.83878456700E-01  0.51100000000E-03 0. -1.
         11    1    4    4    0    0 -0.97170923591E-02 -0.17785174983E-01 -0.56167972028E-01  0.59714625812E-01  0.51100000000E-03 0.  1.
</event>
<event>
 8    1  0.2123879E+004  0.1043930E+01  0.7957747E-01            NaN
         13   -1    0    0    0    0  0.00000000000E+00  0.00000000000E+00  0.74505805969E-08  0.10566000000E+00  0.10566000000E+00 0.  1.
     999900   -1    0    0    0    0 -0.00000000000E+00 -0.00000000000E+00 -0.74505805969E-08  0.93827000000E+00  0.93827000000E+00 0. -1.
     999902    2    1    2    0    0  0.30494131808E-02 -0.13112734264E-01 -0.45526167139E-02  0.10297184188E+01  0.10296203441E+01 0.  0.
     999903    2    3    3    0    0  0.45976078196E-01  0.63313393106E-01  0.10482565773E+00  0.13862512492E+00  0.45892496423E-01 0.  0.
         14    1    1    2    0    0 -0.30494131808E-02  0.13112734264E-01  0.45526167139E-02  0.14211581178E-01  0.00000000000E+00 0. -1.
     999901    1    3    3    0    0 -0.42926665015E-01 -0.76426127370E-01 -0.10937827444E+00  0.89109329390E+00  0.88000000000E+00 0. -1.
        -11    1    4    4    0    0  0.26648543044E-01  0.81504349979E-02  0.55643420599E-01  0.62233638926E-01  0.51100000000E-03 0. -1.
         11    1    4    4    0    0  0.19327535153E-01  0.55162958108E-01  0.49182237131E-01  0.76391485995E-01  0.51100000000E-03 0.  1.
</event>
<event>
 8    1  0.2123879E+004  0.1043930E+01  0.7957747E-01            NaN
         13   -1    0    0    0    0  0.00000000000E+00  0.00000000000E+00  0.74505805969E-08  0.10566000000E+00  0.10566000000E+00 0. -1.
     999900   -1    0    0    0    0 -0.00000000000E+00 -0.00000000000E+00 -0.74505805969E-08  0.93827000000E+00  0.93827000000E+00 0. -1.
     999902    2    1    2    0    0 -0.97932727839E-02  0.10689517182E-01 -0.29601380210E-02  0.10291335009E+01  0.10290271261E+01 0.  0.
     999903    2    3    3    0    0  0.44338178930E-01  0.53009375381E-01  0.11168127987E+00  0.13904146116E+00  0.45650319363E-01 0.  0.
         14    1    1    2    0    0  0.97932727839E-02 -0.10689517182E-01  0.29601380210E-02  0.14796499130E-01  0.00000000000E+00 0.  1.
     999901    1    3    3    0    0 -0.54131451714E-01 -0.42319858199E-01 -0.11464141789E+00  0.89009203971E+00  0.88000000000E+00 0. -1.
        -11    1    4    4    0    0  0.13119310241E-01 -0.52675623484E-02  0.35251381481E-01  0.37984003628E-01  0.51100000000E-03 0.  1.
         11    1    4    4    0    0  0.31218868689E-01  0.58276937729E-01  0.76429898390E-01  0.10105745753E+00  0.51100000000E-03 0. -1.
</event>
<event>
 8    1  0.2123879E+004  0.1043930E+01  0.7957747E-01            NaN
         13   -1    0    0    0    0  0.00000000000E+00  0.00000000000E+00  0.74505805969E-08  0.10566000000E+00  0.10566000000E+00 0.  1.
     999900   -1    0    0    0    0 -0.00000000000E+00 -0.00000000000E+00 -0.74505805969E-08  0.93827000000E+00  0.93827000000E+00 0. -1.
     999902    2    1    2    0    0 -0.12605520842E-01  0.86101274790E-02  0.41998137716E-02  0.10280973790E+01  0.10279754612E+01 0.  0.
     999903    2    3    3    0    0  0.23263041093E-01  0.88594224900E-01 -0.93192401217E-01  0.13839560141E+00  0.45589615895E-01 0.  0.
         14    1    1    2    0    0  0.12605520842E-01 -0.86101274790E-02 -0.41998137716E-02  0.15832620965E-01  0.00000000000E+00 0. -1.
     999901    1    3    3    0    0 -0.35868561935E-01 -0.79984097421E-01  0.97392214989E-01  0.88970177763E+00  0.88000000000E+00 0.  1.
        -11    1    4    4    0    0  0.21770338205E-01  0.60667690068E-01 -0.89332732513E-01  0.11015949556E+00  0.51100000000E-03 0.  1.
         11    1    4    4    0    0  0.14927028888E-02  0.27926534831E-01 -0.38596687043E-02  0.28236105842E-01  0.51100000000E-03 0. -1.
</event>
<event>
 8    1  0.2123879E+004  0.1043930E+01  0.7957747E-01            NaN
         13   -1    0    0    0    0  0.00000000000E+00  0.00000000000E+00  0.74505805969E-08  0.10566000000E+00  0.10566000000E+00 0.  1.
     999900   -1    0    0    0    0 -0.00000000000E+00 -0.00000000000E+00 -0.74505805969E-08  0.93827000000E+00  0.93827000000E+00 0. -1.
     999902    2    1    2    0    0 -0.12849852251E-01  0.55399600753E-02  0.12995299867E-02  0.10298765791E+01  0.10297806900E+01 0.  0.
     999903    2    3    3    0    0  0.60677892908E-01 -0.12843497551E-01  0.11492758412E+00  0.13933987829E+00  0.48584873909E-01 0.  0.
         14    1    1    2    0    0  0.12849852251E-01 -0.55399600753E-02 -0.12995299867E-02  0.14053420889E-01  0.00000000000E+00 0. -1.
     999901    1    3    3    0    0 -0.73527745159E-01  0.18383457627E-01 -0.11362805413E+00  0.89053670082E+00  0.88000000000E+00 0. -1.
        -11    1    4    4    0    0  0.49913552033E-01 -0.17464166745E-01  0.48082142822E-01  0.71473864986E-01  0.51100000000E-03 0. -1.
         11    1    4    4    0    0  0.10764340875E-01  0.46206691937E-02  0.66845441299E-01  0.67866013304E-01  0.51100000000E-03 0.  1.
</event>
<event>
 8    1  0.2123879E+004  0.1043930E+01  0.7957747E-01            NaN
         13   -1    0    0    0    0  0.00000000000E+00  0.00000000000E+00  0.74505805969E-08  0.10566000000E+00  0.10566000000E+00 0.  1.
     999900   -1    0    0    0    0 -0.00000000000E+00 -0.00000000000E+00 -0.74505805969E-08  0.93827000000E+00  0.93827000000E+00 0.  1.
     999902    2    1    2    0    0  0.13136283323E-01  0.50145367351E-02 -0.41199678213E-02  0.10292779813E+01  0.10291736885E+01 0.  0.
     999903    2    3    3    0    0  0.25351987159E-01 -0.63608204686E-01  0.11228877197E+00  0.13887958798E+00  0.44609916951E-01 0.  0.
         14    1    1    2    0    0 -0.13136283323E-01 -0.50145367351E-02  0.41199678213E-02  0.14652018737E-01  0.00000000000E+00 0. -1.
     999901    1    3    3    0    0 -0.12215703836E-01  0.68622741421E-01 -0.11640873979E+00  0.89039839328E+00  0.88000000000E+00 0.  1.
        -11    1    4    4    0    0  0.15179566799E-01 -0.10598193271E-01  0.56598006680E-02  0.19365831080E-01  0.51100000000E-03 0. -1.
         11    1    4    4    0    0  0.10172420360E-01 -0.53010011415E-01  0.10662897130E+00  0.11951375690E+00  0.51100000000E-03 0.  1.
</event>
<event>
 8    1  0.2123879E+004  0.1043930E+01  0.7957747E-01            NaN
         13   -1    0    0    0    0  0.00000000000E+00  0.00000000000E+00  0.74505805969E-08  0.10566000000E+00  0.10566000000E+00 0.  1.
     999900   -1    0    0    0    0 -0.00000000000E+00 -0.00000000000E+00 -0.74505805969E-08  0.93827000000E+00  0.93827000000E+00 0. -1.
     999902    2    1    2    0    0 -0.13834042584E-02  0.11939046161E-01 -0.83675364691E-02  0.10292851956E+01  0.10291810062E+01 0.  0.
     999903    2    3    3    0    0  0.96203723609E-01  0.50587173158E-01 -0.76619886159E-01  0.14042339050E+00  0.45098815076E-01 0.  0.
         14    1    1    2    0    0  0.13834042584E-02 -0.11939046161E-01  0.83675364691E-02  0.14644804442E-01  0.00000000000E+00 0.  1.
     999901    1    3    3    0    0 -0.97587127867E-01 -0.38648126997E-01  0.68252349690E-01  0.88886180505E+00  0.88000000000E+00 0.  1.
        -11    1    4    4    0    0  0.88478599384E-01  0.51782158660E-01 -0.52735689213E-01  0.11528733036E+00  0.51100000000E-03 0. -1.
         11    1    4    4    0    0  0.77251242250E-02 -0.11949855022E-02 -0.23884196946E-01  0.25136060141E-01  0.51100000000E-03 0.  1.
</event>
<event>
 8    1  0.2123879E+004  0.1043930E+01  0.7957747E-01            NaN
         13   -1    0    0    0    0  0.00000000000E+00  0.00000000000E+00  0.74505805969E-08  0.10566000000E+00  0.10566000000E+00 0.  1.
     999900   -1    0    0    0    0 -0.00000000000E+00 -0.00000000000E+00 -0.74505805969E-08  0.93827000000E+00  0.93827000000E+00 0. -1.
     999902    2    1    2    0    0  0.13061028027E-01 -0.29899927408E-02  0.21726134516E-02  0.10303561001E+01  0.10302666850E+01 0.  0.
     999903    2    3    3    0    0 -0.63140808477E-01  0.96441327354E-01 -0.62851714466E-01  0.13910895674E+00  0.45970343878E-01 0.  0.
         14    1    1    2    0    0 -0.13061028027E-01  0.29899927408E-02 -0.21726134516E-02  0.13573899916E-01  0.00000000000E+00 0.  1.
     999901    1    3    3    0    0  0.76201836505E-01 -0.99431320095E-01  0.65024327917E-01  0.89124714335E+00  0.88000000000E+00 0.  1.
        -11    1    4    4    0    0 -0.46557796399E-01  0.72400989809E-01 -0.67683218136E-01  0.10950256102E+00  0.51100000000E-03 0.  1.
         11    1    4    4    0    0 -0.16583012078E-01  0.24040337546E-01  0.48315036702E-02  0.29606395721E-01  0.51100000000E-03 0. -1.
</event>
<event>
 8    1  0.2123879E+004  0.1043930E+01  0.7957747E-01            NaN
         13   -1    0    0    0    0  0.00000000000E+00  0.00000000000E+00  0.74505805969E-08  0.10566000000E+00  0.10566000000E+00 0.  1.
     999900   -1    0    0    0    0 -0.00000000000E+00 -0.00000000000E+00 -0.74505805969E-08  0.93827000000E+00  0.93827000000E+00 0.  1.
     999902    2    1    2    0    0 -0.81800085420E-02 -0.12124287389E-01 -0.96182457057E-03  0.10292727154E+01  0.10291683471E+01 0.  0.
     999903    2    3    3    0    0 -0.11696049209E+00  0.31881909159E-02  0.59664100028E-01  0.14037273887E+00  0.49545733562E-01 0.  0.
         14    1    1    2    0    0  0.81800085420E-02  0.12124287389E-01  0.96182457057E-03  0.14657284569E-01  0.00000000000E+00 0.  1.
     999901    1    3    3    0    0  0.10878048355E+00 -0.15312478305E-01 -0.60625924599E-01  0.88889997656E+00  0.88000000000E+00 0.  1.
        -11    1    4    4    0    0 -0.30482436700E-01 -0.45133159463E-03  0.42216409680E-01  0.52075608634E-01  0.51100000000E-03 0. -1.
         11    1    4    4    0    0 -0.86478055393E-01  0.36395225105E-02  0.17447690348E-01  0.88297130237E-01  0.51100000000E-03 0.  1.
</event>
<event>
 8    1  0.2123879E+004  0.1043930E+01  0.7957747E-01            NaN
         13   -1    0    0    0    0  0.00000000000E+00  0.00000000000E+00  0.74505805969E-08  0.10566000000E+00  0.10566000000E+00 0. -1.
     999900   -1    0    0    0    0 -0.00000000000E+00 -0.00000000000E+00 -0.74505805969E-08  0.93827000000E+00  0.93827000000E+00 0. -1.
     999902    2    1    2    0    0  0.21812638336E-01 -0.44667229849E-02  0.15174367802E-02  0.10216130688E+01  0.10213692852E+01 0.  0.
     999903    2    3    3    0    0  0.64350151263E-01 -0.81319858520E-01 -0.72251768983E-01  0.13416856900E+00  0.45022499136E-01 0.  0.
         14    1    1    2    0    0 -0.21812638336E-01  0.44667229849E-02 -0.15174367802E-02  0.22316931236E-01  0.00000000000E+00 0. -1.
     999901    1    3    3    0    0 -0.42537512928E-01  0.76853135535E-01  0.73769205763E-01  0.88744449977E+00  0.88000000000E+00 0.  1.
        -11    1    4    4    0    0  0.23713290924E-01 -0.30784676719E-01 -0.54494226835E-01  0.66932042898E-01  0.51100000000E-03 0.  1.
         11    1    4    4    0    0  0.40636860339E-01 -0.50535181800E-01 -0.17757542148E-01  0.67236526100E-01  0.51100000000E-03 0. -1.
</event>
<event>
 8    1  0.2123879E+004  0.1043930E+01  0.7957747E-01            NaN
         13   -1    0    0    0    0  0.00000000000E+00  0.00000000000E+00  0.74505805969E-08  0.10566000000E+00  0.10566000000E+00 0.  1.
     999900   -1    0    0    0    0 -0.00000000000E+00 -0.00000000000E+00 -0.74505805969E-08  0.93827000000E+00  0.93827000000E+00 0.  1.
     999902    2    1    2    0    0 -0.33672066906E-02  0.10128245102E-01 -0.90829334139E-02  0.10299150398E+01  0.10298196784E+01 0.  0.
     999903    2    3    3    0    0  0.63296243107E-01 -0.77275665013E-01 -0.86707488407E-01  0.13968527701E+00  0.44898165573E-01 0.  0.
         14    1    1    2    0    0  0.33672066906E-02 -0.10128245102E-01  0.90829334139E-02  0.14014960190E-01  0.00000000000E+00 0.  1.
     999901    1    3    3    0    0 -0.66663449798E-01  0.87403910115E-01  0.77624554993E-01  0.89022976280E+00  0.88000000000E+00 0. -1.
        -11    1    4    4    0    0  0.40420700144E-01 -0.65071221555E-01 -0.40386640554E-01  0.86599299830E-01  0.51100000000E-03 0.  1.
         11    1    4    4    0    0  0.22875542964E-01 -0.12204443458E-01 -0.46320847853E-01  0.53085977177E-01  0.51100000000E-03 0. -1.
</event>
<event>
 8    1  0.2123879E+004  0.1043930E+01  0.7957747E-01            NaN
         13   -1    0    0    0    0  0.00000000000E+00  0.00000000000E+00  0.74505805969E-08  0.10566000000E+00  0.10566000000E+00 0. -1.
     999900   -1    0    0    0    0 -0.00000000000E+00 -0.00000000000E+00 -0.74505805969E-08  0.93827000000E+00  0.93827000000E+00 0. -1.
     999902    2    1    2    0    0 -0.95174127559E-03 -0.11240850303E-01 -0.93286852610E-02  0.10292914586E+01  0.10291873589E+01 0.  0.
     999903    2    3    3    0    0  0.92054682445E-01  0.67871438092E-01  0.62962002866E-01  0.13792459097E+00  0.44479009899E-01 0.  0.
         14    1    1    2    0    0  0.95174127559E-03  0.11240850303E-01  0.93286852610E-02  0.14638541447E-01  0.00000000000E+00 0. -1.
     999901    1    3    3    0    0 -0.93006423721E-01 -0.79112288395E-01 -0.72290688127E-01  0.89136686758E+00  0.88000000000E+00 0. -1.
        -11    1    4    4    0    0  0.51429733077E-01  0.59852972304E-01  0.53804747690E-01  0.95512343354E-01  0.51100000000E-03 0. -1.
         11    1    4    4    0    0  0.40624949368E-01  0.80184657874E-02  0.91572551759E-02  0.42412247619E-01  0.51100000000E-03 0.  1.
</event>
<event>
 8    1  0.2123879E+004  0.1043930E+01  0.7957747E-01            NaN
         13   -1    0    0    0    0  0.00000000000E+00  0.00000000000E+00  0.74505805969E-08  0.10566000000E+00  0.10566000000E+00 0. -1.
     999900   -1    0    0    0    0 -0.00000000000E+00 -0.00000000000E+00 -0.74505805969E-08  0.93827000000E+00  0.93827000000E+00 0.  1.
     999902    2    1    2    0    0 -0.26134473383E-02  0.47936897602E-02 -0.10847482002E-01  0.10317859712E+01  0.10317145017E+01 0.  0.
     999903    2    3    3    0    0 -0.81954958676E-01  0.92274843325E-01 -0.57617468405E-01  0.14266536116E+00  0.42454336040E-01 0.  0.
         14    1    1    2    0    0  0.26134473383E-02 -0.47936897602E-02  0.10847482002E-01  0.12144028750E-01  0.00000000000E+00 0. -1.
     999901    1    3    3    0    0  0.79341511338E-01 -0.87481153565E-01  0.46769986403E-01  0.88912061009E+00  0.88000000000E+00 0.  1.
        -11    1    4    4    0    0 -0.29248596996E-01  0.60325419522E-01 -0.18082657342E-01  0.69439760111E-01  0.51100000000E-03 0.  1.
         11    1    4    4    0    0 -0.52706361680E-01  0.31949423803E-01 -0.39534811062E-01  0.73225601054E-01  0.51100000000E-03 0. -1.
</event>
<event>
 8    1  0.2123879E+004  0.1043930E+01  0.7957747E-01            NaN
         13   -1    0    0    0    0  0.00000000000E+00  0.00000000000E+00  0.74505805969E-08  0.10566000000E+00  0.10566000000E+00 0. -1.
     999900   -1    0    0    0    0 -0.00000000000E+00 -0.00000000000E+00 -0.74505805969E-08  0.93827000000E+00  0.93827000000E+00 0.  1.
     999902    2    1    2    0    0 -0.47702299331E-02 -0.47911713342E-02  0.11735614162E-01  0.10303861802E+01  0.10302971635E+01 0.  0.
     999903    2    3    3    0    0  0.82149121610E-02 -0.94941101826E-01  0.94722116461E-01  0.14180169714E+00  0.45322669462E-01 0.  0.
         14    1    1    2    0    0  0.47702299331E-02  0.47911713342E-02 -0.11735614162E-01  0.13543819850E-01  0.00000000000E+00 0.  1.
     999901    1    3    3    0    0 -0.12985142094E-01  0.90149930492E-01 -0.82986502300E-01  0.88858448301E+00  0.88000000000E+00 0.  1.
        -11    1    4    4    0    0  0.40167653685E-02  0.33784922503E-02  0.12487032590E-01  0.13554914896E-01  0.51100000000E-03 0.  1.
         11    1    4    4    0    0  0.41981467926E-02 -0.98319594076E-01  0.82235083871E-01  0.12824678224E+00  0.51100000000E-03 0. -1.
</event>
<event>
 8    1  0.2123879E+004  0.1043930E+01  0.7957747E-01            NaN
         13   -1    0    0    0    0  0.00000000000E+00  0.00000000000E+00  0.74505805969E-08  0.10566000000E+00  0.10566000000E+00 0.  1.
     999900   -1    0    0    0    0 -0.00000000000E+00 -0.00000000000E+00 -0.74505805969E-08  0.93827000000E+00  0.93827000000E+00 0.  1.
     999902    2    1    2    0    0 -0.49202645961E-02 -0.55615833667E-02  0.12769708142E-01  0.10291582141E+01  0.10290521969E+01 0.  0.
     999903    2    3    3    0    0 -0.10729240194E+00 -0.70144317004E-01  0.31001759347E-01  0.14068570934E+00  0.48984436382E-01 0.  0.
         14    1    1    2    0    0  0.49202645961E-02  0.55615833667E-02 -0.12769708142E-01  0.14771785920E-01  0.00000000000E+00 0. -1.
     999901    1    3    3    0    0  0.10237213734E+00  0.64582733638E-01 -0.18232051205E-01  0.88847250474E+00  0.88000000000E+00 0.  1.
        -11    1    4    4    0    0 -0.39882168177E-01 -0.16860431258E-01 -0.11525202552E-01  0.44810187408E-01  0.51100000000E-03 0.  1.
         11    1    4    4    0    0 -0.67410233763E-01 -0.53283885747E-01  0.42526961899E-01  0.95875521931E-01  0.51100000000E-03 0. -1.
</event>
<event>
 8    1  0.2123879E+004  0.1043930E+01  0.7957747E-01            NaN
         13   -1    0    0    0    0  0.00000000000E+00  0.00000000000E+00  0.74505805969E-08  0.10566000000E+00  0.10566000000E+00 0.  1.
     999900   -1    0    0    0    0 -0.00000000000E+00 -0.00000000000E+00 -0.74505805969E-08  0.93827000000E+00  0.93827000000E+00 0.  1.
     999902    2    1    2    0    0 -0.61137386346E-02  0.11266134349E-01 -0.65191127639E-02  0.10295493736E+01  0.10294489353E+01 0.  0.
     999903    2    3    3    0    0  0.76821965960E-01 -0.93424710862E-01 -0.49860444222E-01  0.13841696194E+00  0.45203986565E-01 0.  0.
         14    1    1    2    0    0  0.61137386346E-02 -0.11266134349E-01  0.65191127639E-02  0.14380626360E-01  0.00000000000E+00 0. -1.
     999901    1    3    3    0    0 -0.82935704595E-01  0.10469084521E+00  0.43341331458E-01  0.89113241170E+00  0.88000000000E+00 0. -1.
        -11    1    4    4    0    0  0.61493944836E-01 -0.65922235134E-01 -0.56282709955E-01  0.10627911788E+00  0.51100000000E-03 0.  1.
         11    1    4    4    0    0  0.15328021124E-01 -0.27502475728E-01  0.64222657324E-02  0.32137844061E-01  0.51100000000E-03 0. -1.
</event>
<event>
 8    1  0.2123879E+004  0.1043930E+01  0.7957747E-01            NaN
         13   -1    0    0    0    0  0.00000000000E+00  0.00000000000E+00  0.74505805969E-08  0.10566000000E+00  0.10566000000E+00 0.  1.
     999900   -1    0    0    0    0 -0.00000000000E+00 -0.00000000000E+00 -0.74505805969E-08  0.93827000000E+00  0.93827000000E+00 0.  1.
     999902    2    1    2    0    0  0.36695008217E-02 -0.12482254700E-01  0.74445599905E-02  0.10289402237E+01  0.10288310311E+01 0.  0.
     999903    2    3    3    0    0  0.10431555773E+00 -0.69622840241E-01  0.43808972363E-01  0.14061762144E+00  0.46097873399E-01 0.  0.
         14    1    1    2    0    0 -0.36695008217E-02  0.12482254700E-01 -0.74445599905E-02  0.14989776254E-01  0.00000000000E+00 0. -1.
     999901    1    3    3    0    0 -0.10064605691E+00  0.57140585540E-01 -0.36364412372E-01  0.88832260231E+00  0.88000000000E+00 0.  1.
        -11    1    4    4    0    0  0.30628214953E-01 -0.36023195693E-01 -0.24493769384E-02  0.47349960375E-01  0.51100000000E-03 0. -1.
         11    1    4    4    0    0  0.73687342774E-01 -0.33599644548E-01  0.46258349301E-01  0.93267661062E-01  0.51100000000E-03 0.  1.
</event>
<event>
 8    1  0.2123879E+004  0.1043930E+01  0.7957747E-01            NaN
         13   -1    0    0    0    0  0.00000000000E+00  0.00000000000E+00  0.74505805969E-08  0.10566000000E+00  0.10566000000E+00 0. -1.
     999900   -1    0    0    0    0 -0.00000000000E+00 -0.00000000000E+00 -0.74505805969E-08  0.93827000000E+00  0.93827000000E+00 0.  1.
     999902    2    1    2    0    0  0.11426429707E-01 -0.77297729779E-03  0.83153279410E-02  0.10297770686E+01  0.10296798072E+01 0.  0.
     999903    2    3    3    0    0 -0.10702345683E+00 -0.54168094292E-01  0.53692880125E-01  0.13908041066E+00  0.45521780537E-01 0.  0.
         14    1    1    2    0    0 -0.11426429707E-01  0.77297729779E-03 -0.83153279410E-02  0.14152931446E-01  0.00000000000E+00 0.  1.
     999901    1    3    3    0    0  0.11844988653E+00  0.53395116995E-01 -0.45377552184E-01  0.89069665789E+00  0.88000000000E+00 0. -1.
        -11    1    4    4    0    0 -0.81729333275E-01 -0.29191702216E-01  0.56274841233E-01  0.10343576883E+00  0.51100000000E-03 0. -1.
         11    1    4    4    0    0 -0.25294123552E-01 -0.24976392076E-01 -0.25819611084E-02  0.35644641835E-01  0.51100000000E-03 0.  1.
</event>
<event>
 8    1  0.2123879E+004  0.1043930E+01  0.7957747E-01            NaN
         13   -1    0    0    0    0  0.00000000000E+00  0.00000000000E+00  0.74505805969E-08  0.10566000000E+00  0.10566000000E+00 0.  1.
     999900   -1    0    0    0    0 -0.00000000000E+00 -0.00000000000E+00 -0.74505805969E-08  0.93827000000E+00  0.93827000000E+00 0. -1.
     999902    2    1    2    0    0 -0.10670751899E-01 -0.85275560227E-02  0.92264816899E-03  0.10302392938E+01  0.10301483228E+01 0.  0.
     999903    2    3    3    0    0 -0.77797980016E-01  0.91554284584E-01 -0.56784217188E-01  0.14015361143E+00  0.44540708961E-01 0.  0.
         14    1    1    2    0    0  0.10670751899E-01  0.85275560227E-02 -0.92264816899E-03  0.13690706244E-01  0.00000000000E+00 0. -1.
     999901    1    3    3    0    0  0.67127228118E-01 -0.10008184061E+00  0.57706865357E-01  0.89008568233E+00  0.88000000000E+00 0.  1.
        -11    1    4    4    0    0 -0.54529810548E-01  0.31413111185E-01 -0.20658784018E-01  0.66236925282E-01  0.51100000000E-03 0.  1.
         11    1    4    4    0    0 -0.23268169468E-01  0.60141173400E-01 -0.36125433169E-01  0.73916686147E-01  0.51100000000E-03 0. -1.
</event>
<event>
 8    1  0.2123879E+004  0.1043930E+01  0.7957747E-01            NaN
         13   -1    0    0    0    0  0.00000000000E+00  0.00000000000E+00  0.74505805969E-08  0.10566000000E+00  0.10566000000E+00 0. -1.
     999900   -1    0    0    0    0 -0.00000000000E+00 -0.00000000000E+00 -0.74505805969E-08  0.93827000000E+00  0.93827000000E+00 0. -1.
     999902    2    1    2    0    0  0.65746253863E-02  0.93973952965E-02  0.73666630425E-02  0.10302989890E+01  0.10302088149E+01 0.  0.
     999903    2    3    3    0    0 -0.16458809158E-01  0.32745714372E-01 -0.12746685341E+00  0.13942539509E+00  0.42993811980E-01 0.  0.
         14    1    1    2    0    0 -0.65746253863E-02 -0.93973952965E-02 -0.73666630425E-02  0.13631011030E-01  0.00000000000E+00 0.  1.
     999901    1    3    3    0    0  0.23033434544E-01 -0.23348319076E-01  0.13483351646E+00  0.89087359388E+00  0.88000000000E+00 0.  1.
        -11    1    4    4    0    0 -0.25732280261E-01  0.37829322973E-01 -0.99294512105E-01  0.10932917808E+00  0.51100000000E-03 0.  1.
         11    1    4    4    0    0  0.92734711029E-02 -0.50836086010E-02 -0.28172341308E-01  0.30096217013E-01  0.51100000000E-03 0. -1.
</event>
<event>
 8    1  0.2123879E+004  0.1043930E+01  0.7957747E-01            NaN
         13   -1    0    0    0    0  0.00000000000E+00  0.00000000000E+00  0.74505805969E-08  0.10566000000E+00  0.10566000000E+00 0. -1.
     999900   -1    0    0    0    0 -0.00000000000E+00 -0.00000000000E+00 -0.74505805969E-08  0.93827000000E+00  0.93827000000E+00 0.  1.
     999902    2    1    2    0    0 -0.72252261679E-02 -0.92738660043E-02  0.69448380663E-02  0.10302757238E+01  0.10301852395E+01 0.  0.
     999903    2    3    3    0    0 -0.60598791883E-01  0.33587025758E-01  0.11440501773E+00  0.14109999098E+00  0.44948831975E-01 0.  0.
         14    1    1    2    0    0  0.72252261679E-02  0.92738660043E-02 -0.69448380663E-02  0.13654276239E-01  0.00000000000E+00 0.  1.
     999901    1    3    3    0    0  0.53373565715E-01 -0.42860891763E-01 -0.10746017966E+00  0.88917573278E+00  0.88000000000E+00 0.  1.
        -11    1    4    4    0    0 -0.41496962000E-01  0.10747592230E-01  0.32047106862E-01  0.53523702910E-01  0.51100000000E-03 0.  1.
         11    1    4    4    0    0 -0.19101829883E-01  0.22839433528E-01  0.82357910863E-01  0.87576288067E-01  0.51100000000E-03 0. -1.
</event>
<event>
 8    1  0.2123879E+004  0.1043930E+01  0.7957747E-01            NaN
         13   -1    0    0    0    0  0.00000000000E+00  0.00000000000E+00  0.74505805969E-08  0.10566000000E+00  0.10566000000E+00 0.  1.
     999900   -1    0    0    0    0 -0.00000000000E+00 -0.00000000000E+00 -0.74505805969E-08  0.93827000000E+00  0.93827000000E+00 0. -1.
     999902    2    1    2    0    0  0.13949912785E-02  0.16219649905E-01  0.10606624660E-01  0.10245000352E+01  0.10243157710E+01 0.  0.
     999903    2    3    3    0    0 -0.54122691529E-01  0.98194527782E-01 -0.62296729904E-01  0.13595234783E+00  0.45063591718E-01 0.  0.
         14    1    1    2    0    0 -0.13949912785E-02 -0.16219649905E-01 -0.10606624660E-01  0.19429964755E-01  0.00000000000E+00 0. -1.
     999901    1    3    3    0    0  0.55517682808E-01 -0.81974877877E-01  0.72903354564E-01  0.88854768742E+00  0.88000000000E+00 0. -1.
        -11    1    4    4    0    0 -0.40448808752E-01  0.28496608924E-01 -0.20673945219E-01  0.53626821475E-01  0.51100000000E-03 0.  1.
         11    1    4    4    0    0 -0.13673882778E-01  0.69697918858E-01 -0.41622784685E-01  0.82325526353E-01  0.51100000000E-03 0. -1.
</event>
<event>
 8    1  0.2123879E+004  0.1043930E+01  0.7957747E-01            NaN
         13   -1    0    0    0    0  0.00000000000E+00  0.00000000000E+00  0.74505805969E-08  0.10566000000E+00  0.10566000000E+00 0. -1.
     999900   -1    0    0    0    0 -0.00000000000E+00 -0.00000000000E+00 -0.74505805969E-08  0.93827000000E+00  0.93827000000E+00 0.  1.
     999902    2    1    2    0    0 -0.24531368432E-02  0.38427246453E-02 -0.16966261358E-01  0.10263618915E+01  0.10262115249E+01 0.  0.
     999903    2    3    3    0    0  0.10843782871E+00  0.44039207630E-01 -0.51704596496E-01  0.13781289708E+00  0.51193894165E-01 0.  0.
         14    1    1    2    0    0  0.24531368432E-02 -0.38427246453E-02  0.16966261358E-01  0.17568108536E-01  0.00000000000E+00 0. -1.
     999901    1    3    3    0    0 -0.11089096555E+00 -0.40196482984E-01  0.34738335138E-01  0.88854899438E+00  0.88000000000E+00 0.  1.
        -11    1    4    4    0    0  0.28907293929E-01  0.17925256374E-01  0.80581755398E-02  0.34959144331E-01  0.51100000000E-03 0.  1.
         11    1    4    4    0    0  0.79530534782E-01  0.26113951256E-01 -0.59762772036E-01  0.10285375275E+00  0.51100000000E-03 0. -1.
</event>
<event>
 8    1  0.2123879E+004  0.1043930E+01  0.7957747E-01            NaN
         13   -1    0    0    0    0  0.00000000000E+00  0.00000000000E+00  0.74505805969E-08  0.10566000000E+00  0.10566000000E+00 0. -1.
     999900   -1    0    0    0    0 -0.00000000000E+00 -0.00000000000E+00 -0.74505805969E-08  0.93827000000E+00  0.93827000000E+00 0.  1.
     999902    2    1    2    0    0  0.10223787429E-01  0.31814689315E-02 -0.84544089024E-02  0.10302872509E+01  0.10301969204E+01 0.  0.
     999903    2    3    3    0    0 -0.79658747189E-02 -0.57768592508E-02 -0.13337947427E+00  0.14123304138E+00  0.45385686694E-01 0.  0.
         14    1    1    2    0    0 -0.10223787429E-01 -0.31814689315E-02  0.84544089024E-02  0.13642749131E-01  0.00000000000E+00 0. -1.
     999901    1    3    3    0    0  0.18189662148E-01  0.89583281824E-02  0.12492506537E+00  0.88905420949E+00  0.88000000000E+00 0. -1.
        -11    1    4    4    0    0 -0.10936607036E-01 -0.23831913908E-01 -0.57854570108E-01  0.63521507361E-01  0.51100000000E-03 0. -1.
         11    1    4    4    0    0  0.29707323172E-02  0.18055054657E-01 -0.75524904167E-01  0.77711534019E-01  0.51100000000E-03 0.  1.
</event>
<event>
 8    1  0.2123879E+004  0.1043930E+01  0.7957747E-01            NaN
         13   -1    0    0    0    0  0.00000000000E+00  0.00000000000E+00  0.74505805969E-08  0.10566000000E+00  0.10566000000E+00 0. -1.
     999900   -1    0    0    0    0 -0.00000000000E+00 -0.00000000000E+00 -0.74505805969E-08  0.93827000000E+00  0.93827000000E+00 0.  1.
     999902    2    1    2    0    0 -0.11784305020E-01 -0.10285201247E-01  0.63633426286E-02  0.10270436937E+01  0.10269048649E+01 0.  0.
     999903    2    3    3    0    0  0.67260349136E-01 -0.42475424728E-01 -0.10096790115E+00  0.13642353693E+00  0.45702823691E-01 0.  0.
         14    1    1    2    0    0  0.11784305020E-01  0.10285201247E-01 -0.63633426286E-02  0.16886306254E-01  0.00000000000E+00 0.  1.
     999901    1    3    3    0    0 -0.79044654156E-01  0.32190223482E-01  0.10733124378E+00  0.89062015682E+00  0.88000000000E+00 0. -1.
        -11    1    4    4    0    0  0.71035038639E-02 -0.78109411953E-02  0.33708034797E-02  0.11094773842E-01  0.51100000000E-03 0.  1.
         11    1    4    4    0    0  0.60156845272E-01 -0.34664483533E-01 -0.10433870463E+00  0.12532876309E+00  0.51100000000E-03 0. -1.
</event>
<event>
 8    1  0.2123879E+004  0.1043930E+01  0.7957747E-01            NaN
         13   -1    0    0    0    0  0.00000000000E+00  0.00000000000E+00  0.74505805969E-08  0.10566000000E+00  0.10566000000E+00 0. -1.
     999900   -1    0    0    0    0 -0.00000000000E+00 -0.00000000000E+00 -0.74505805969E-08  0.93827000000E+00  0.93827000000E+00 0. -1.
     999902    2    1    2    0    0  0.29873701406E-02 -0.13379423449E-01  0.10515234744E-01  0.10266527458E+01  0.10265073584E+01 0.  0.
     999903    2    3    3    0    0 -0.79464227561E-01 -0.91247067006E-01  0.50549175906E-01  0.13847238552E+00  0.44483611234E-01 0.  0.
         14    1    1    2    0    0 -0.29873701406E-02  0.13379423449E-01 -0.10515234744E-01  0.17277254235E-01  0.00000000000E+00 0.  1.
     999901    1    3    3    0    0  0.82451597701E-01  0.77867643557E-01 -0.40033941162E-01  0.88818036024E+00  0.88000000000E+00 0. -1.
        -11    1    4    4    0    0 -0.54460873302E-01 -0.32249634637E-01  0.35798801064E-01  0.72717542132E-01  0.51100000000E-03 0.  1.
         11    1    4    4    0    0 -0.25003354258E-01 -0.58997432369E-01  0.14750374842E-01  0.65754843390E-01  0.51100000000E-03 0. -1.
</event>
<event>
 8    1  0.2123879E+004  0.1043930E+01  0.7957747E-01            NaN
         13   -1    0    0    0    0  0.00000000000E+00  0.00000000000E+00  0.74505805969E-08  0.10566000000E+00  0.10566000000E+00 0.  1.
     999900   -1    0    0    0    0 -0.00000000000E+00 -0.00000000000E+00 -0.74505805969E-08  0.93827000000E+00  0.93827000000E+00 0.  1.
     999902    2    1    2    0    0 -0.47070687291E-02 -0.12352406949E-01  0.44118501009E-02  0.10299943308E+01  0.10299000528E+01 0.  0.
     999903    2    3    3    0    0 -0.12410765519E+00  0.35993866775E-01  0.30606183884E-01  0.14023031418E+00  0.45050349615E-01 0.  0.
         14    1    1    2    0    0  0.47070687291E-02  0.12352406949E-01 -0.44118501009E-02  0.13935669154E-01  0.00000000000E+00 0.  1.
     999901    1    3    3    0    0  0.11940058646E+00 -0.48346273724E-01 -0.26194333783E-01  0.88976401667E+00  0.88000000000E+00 0. -1.
        -11    1    4    4    0    0 -0.58616939163E-01  0.99199566927E-02 -0.77878063889E-02  0.59960504893E-01  0.51100000000E-03 0. -1.
         11    1    4    4    0    0 -0.65490716029E-01  0.26073910082E-01  0.38393990273E-01  0.80269809288E-01  0.51100000000E-03 0.  1.
</event>
<event>
 8    1  0.2123879E+004  0.1043930E+01  0.7957747E-01            NaN
         13   -1    0    0    0    0  0.00000000000E+00  0.00000000000E+00  0.74505805969E-08  0.10566000000E+00  0.10566000000E+00 0. -1.
     999900   -1    0    0    0    0 -0.00000000000E+00 -0.00000000000E+00 -0.74505805969E-08  0.93827000000E+00  0.93827000000E+00 0. -1.
     999902    2    1    2    0    0 -0.55869812822E-02 -0.57549380989E-02  0.12385916042E-01  0.10291738288E+01  0.10290680373E+01 0.  0.
     999903    2    3    3    0    0  0.25057836945E-02  0.12969739211E+00 -0.18812999087E-01  0.13822702965E+00  0.43875851226E-01 0.  0.
         14    1    1    2    0    0  0.55869812822E-02  0.57549380989E-02 -0.12385916042E-01  0.14756171203E-01  0.00000000000E+00 0.  1.
     999901    1    3    3    0    0 -0.80927649767E-02 -0.13545233020E+00  0.31198915129E-01  0.89094679915E+00  0.88000000000E+00 0.  1.
        -11    1    4    4    0    0  0.89516021892E-02  0.55857476329E-01  0.12208475575E-01  0.57874837714E-01  0.51100000000E-03 0. -1.
         11    1    4    4    0    0 -0.64458184946E-02  0.73839915777E-01 -0.31021474662E-01  0.80352191938E-01  0.51100000000E-03 0.  1.
</event>
<event>
 8    1  0.2123879E+004  0.1043930E+01  0.7957747E-01            NaN
         13   -1    0    0    0    0  0.00000000000E+00  0.00000000000E+00  0.74505805969E-08  0.10566000000E+00  0.10566000000E+00 0.  1.
     999900   -1    0    0    0    0 -0.00000000000E+00 -0.00000000000E+00 -0.74505805969E-08  0.93827000000E+00  0.93827000000E+00 0.  1.
     999902    2    1    2    0    0  0.59873744787E-02 -0.63039586046E-02 -0.10836417422E-01  0.10300369625E+01  0.10299432643E+01 0.  0.
     999903    2    3    3    0    0 -0.76686802720E-01  0.46634350297E-01 -0.98049016518E-01  0.14029344806E+00  0.44866619988E-01 0.  0.
         14    1    1    2    0    0 -0.59873744787E-02  0.63039586046E-02  0.10836417422E-01  0.13893037457E-01  0.00000000000E+00 0.  1.
     999901    1    3    3    0    0  0.82674177199E-01 -0.52938308902E-01  0.87212599096E-01  0.88974351448E+00  0.88000000000E+00 0. -1.
        -11    1    4    4    0    0 -0.28270451400E-02  0.19126791742E-01 -0.32321253133E-01  0.37666309504E-01  0.51100000000E-03 0. -1.
         11    1    4    4    0    0 -0.73859757580E-01  0.27507558556E-01 -0.65727763385E-01  0.10262713856E+00  0.51100000000E-03 0.  1.
</event>
<event>
 8    1  0.2123879E+004  0.1043930E+01  0.7957747E-01            NaN
         13   -1    0    0    0    0  0.00000000000E+00  0.00000000000E+00  0.74505805969E-08  0.10566000000E+00  0.10566000000E+00 0.  1.
     999900   -1    0    0    0    0 -0.00000000000E+00 -0.00000000000E+00 -0.74505805969E-08  0.93827000000E+00  0.93827000000E+00 0. -1.
     999902    2    1    2    0    0 -0.98643685718E-02  0.28023562748E-02 -0.33189380935E-02  0.10331515809E+01  0.10330953561E+01 0.  0.
     999903    2    3    3    0    0 -0.10699816659E+00 -0.76718206670E-01  0.34802855224E-01  0.14342591208E+00  0.45005140107E-01 0.  0.
         14    1    1    2    0    0  0.98643685718E-02 -0.28023562748E-02  0.33189380935E-02  0.10778419090E-01  0.00000000000E+00 0. -1.
     999901    1    3    3    0    0  0.97133798018E-01  0.79520562945E-01 -0.38121793318E-01  0.88972566883E+00  0.88000000000E+00 0. -1.
        -11    1    4    4    0    0 -0.80642843598E-02 -0.11999931324E-01  0.19405493550E-01  0.24204655232E-01  0.51100000000E-03 0.  1.
         11    1    4    4    0    0 -0.98933882230E-01 -0.64718275346E-01  0.15397361675E-01  0.11922125685E+00  0.51100000000E-03 0. -1.
</event>
<event>
 8    1  0.2123879E+004  0.1043930E+01  0.7957747E-01            NaN
         13   -1    0    0    0    0  0.00000000000E+00  0.00000000000E+00  0.74505805969E-08  0.10566000000E+00  0.10566000000E+00 0.  1.
     999900   -1    0    0    0    0 -0.00000000000E+00 -0.00000000000E+00 -0.74505805969E-08  0.93827000000E+00  0.93827000000E+00 0.  1.
     999902    2    1    2    0    0 -0.47931996042E-02  0.12653633135E-01  0.76735973155E-02  0.10283745093E+01  0.10282568542E+01 0.  0.
     999903    2    3    3    0    0  0.11071719288E+00 -0.61476277923E-01  0.28552627201E-01  0.13749077485E+00  0.45286102764E-01 0.  0.
         14    1    1    2    0    0  0.47931996042E-02 -0.12653633135E-01 -0.76735973155E-02  0.15555490662E-01  0.00000000000E+00 0. -1.
     999901    1    3    3    0    0 -0.11551039248E+00  0.74129911059E-01 -0.20879029886E-01  0.89088373449E+00  0.88000000000E+00 0.  1.
        -11    1    4    4    0    0  0.67958611885E-01 -0.33337245497E-01 -0.56800642617E-02  0.75909611497E-01  0.51100000000E-03 0.  1.
         11    1    4    4    0    0  0.42758580991E-01 -0.28139032426E-01  0.34232691463E-01  0.61581163354E-01  0.51100000000E-03 0. -1.
</event>
<event>
 8    1  0.2123879E+004  0.1043930E+01  0.7957747E-01            NaN
         13   -1    0    0    0    0  0.00000000000E+00  0.00000000000E+00  0.74505805969E-08  0.10566000000E+00  0.10566000000E+00 0.  1.
     999900   -1    0    0    0    0 -0.00000000000E+00 -0.00000000000E+00 -0.74505805969E-08  0.93827000000E+00  0.93827000000E+00 0. -1.
     999902    2    1    2    0    0  0.14100133341E-01 -0.12588275307E-02  0.29342436987E-02  0.10294728843E+01  0.10293713671E+01 0.  0.
     999903    2    3    3    0    0  0.93975334017E-01  0.66823261420E-01  0.67171552275E-01  0.14091132186E+00  0.45246784657E-01 0.  0.
         14    1    1    2    0    0 -0.14100133341E-01  0.12588275307E-02 -0.29342436987E-02  0.14457115655E-01  0.00000000000E+00 0. -1.
     999901    1    3    3    0    0 -0.79875200677E-01 -0.68082088951E-01 -0.64237308576E-01  0.88856156249E+00  0.88000000000E+00 0. -1.
        -11    1    4    4    0    0  0.42204757699E-01  0.41771482588E-02  0.19404211480E-01  0.46641984137E-01  0.51100000000E-03 0. -1.
         11    1    4    4    0    0  0.51770576318E-01  0.62646113162E-01  0.47767340794E-01  0.94269337720E-01  0.51100000000E-03 0.  1.
</event>
<event>
 8    1  0.2123879E+004  0.1043930E+01  0.7957747E-01            NaN
         13   -1    0    0    0    0  0.00000000000E+00  0.00000000000E+00  0.74505805969E-08  0.10566000000E+00  0.10566000000E+00 0. -1.
     999900   -1    0    0    0    0 -0.00000000000E+00 -0.00000000000E+00 -0.74505805969E-08  0.93827000000E+00  0.93827000000E+00 0. -1.
     999902    2    1    2    0    0  0.37722150886E-02 -0.55629060365E-02  0.12788574697E-01  0.10294827451E+01  0.10293813673E+01 0.  0.
     999903    2    3    3    0    0 -0.76046791452E-01 -0.81903835189E-01  0.77655673926E-01  0.14020958585E+00  0.33719008922E-01 0.  0.
         14    1    1    2    0    0 -0.37722150886E-02  0.55629060365E-02 -0.12788574697E-01  0.14447254861E-01  0.00000000000E+00 0.  1.
     999901    1    3    3    0    0  0.79819006540E-01  0.76340929153E-01 -0.64867099229E-01  0.88927315929E+00  0.88000000000E+00 0. -1.
        -11    1    4    4    0    0 -0.59038293978E-01 -0.62696976863E-01  0.40787699011E-01  0.95290758078E-01  0.51100000000E-03 0.  1.
         11    1    4    4    0    0 -0.17008497474E-01 -0.19206858326E-01  0.36867974915E-01  0.44918827772E-01  0.51100000000E-03 0. -1.
</event>
<event>
 8    1  0.2123879E+004  0.1043930E+01  0.7957747E-01            NaN
         13   -1    0    0    0    0  0.00000000000E+00  0.00000000000E+00  0.74505805969E-08  0.10566000000E+00  0.10566000000E+00 0.  1.
     999900   -1    0    0    0    0 -0.00000000000E+00 -0.00000000000E+00 -0.74505805969E-08  0.93827000000E+00  0.93827000000E+00 0. -1.
     999902    2    1    2    0    0  0.26302092070E-02 -0.21636377884E-02  0.12599853306E-01  0.10308779644E+01  0.10307953346E+01 0.  0.
     999903    2    3    3    0    0  0.91446293223E-01 -0.96787586090E-01 -0.11112594082E-01  0.14104412122E+00  0.45162960696E-01 0.  0.
         14    1    1    2    0    0 -0.26302092070E-02  0.21636377884E-02 -0.12599853306E-01  0.13052035561E-01  0.00000000000E+00 0. -1.
     999901    1    3    3    0    0 -0.88816084016E-01  0.94623948302E-01  0.23712447387E-01  0.88983384322E+00  0.88000000000E+00 0. -1.
        -11    1    4    4    0    0  0.57510458889E-01 -0.64036404229E-01  0.14637436465E-01  0.87307672146E-01  0.51100000000E-03 0. -1.
         11    1    4    4    0    0  0.33935834335E-01 -0.32751181861E-01 -0.25750030547E-01  0.53736449077E-01  0.51100000000E-03 0.  1.
</event>
<event>
 8    1  0.2123879E+004  0.1043930E+01  0.7957747E-01            NaN
         13   -1    0    0    0    0  0.00000000000E+00  0.00000000000E+00  0.74505805969E-08  0.10566000000E+00  0.10566000000E+00 0.  1.
     999900   -1    0    0    0    0 -0.00000000000E+00 -0.00000000000E+00 -0.74505805969E-08  0.93827000000E+00  0.93827000000E+00 0.  1.
     999902    2    1    2    0    0  0.15301993570E-02 -0.17758499285E-02 -0.14988922990E-01  0.10287588773E+01  0.10286470068E+01 0.  0.
     999903    2    3    3    0    0  0.10558459155E-01 -0.56162838501E-01  0.11631598329E+00  0.13731037486E+00  0.45376046406E-01 0.  0.
         14    1    1    2    0    0 -0.15301993570E-02  0.17758499285E-02  0.14988922990E-01  0.15171122748E-01  0.00000000000E+00 0.  1.
     999901    1    3    3    0    0 -0.90282597978E-02  0.54386988572E-01 -0.13130490628E+00  0.89144850239E+00  0.88000000000E+00 0.  1.
        -11    1    4    4    0    0 -0.68103186515E-02 -0.38941595755E-01  0.10096189720E+00  0.10842690684E+00  0.51100000000E-03 0. -1.
         11    1    4    4    0    0  0.17368777806E-01 -0.17221242746E-01  0.15354086093E-01  0.28883468022E-01  0.51100000000E-03 0.  1.
</event>
<event>
 8    1  0.2123879E+004  0.1043930E+01  0.7957747E-01            NaN
         13   -1    0    0    0    0  0.00000000000E+00  0.00000000000E+00  0.74505805969E-08  0.10566000000E+00  0.10566000000E+00 0. -1.
     999900   -1    0    0    0    0 -0.00000000000E+00 -0.00000000000E+00 -0.74505805969E-08  0.93827000000E+00  0.93827000000E+00 0. -1.
     999902    2    1    2    0    0  0.67334893346E-02  0.40337766123E-02  0.84245692725E-02  0.10324154614E+01  0.10323512485E+01 0.  0.
     999903    2    3    3    0    0 -0.15805058862E-01 -0.11019748928E+00  0.77053288901E-01  0.14209716468E+00  0.43140565036E-01 0.  0.
         14    1    1    2    0    0 -0.67334893346E-02 -0.40337766123E-02 -0.84245692725E-02  0.11514538628E-01  0.00000000000E+00 0.  1.
     999901    1    3    3    0    0  0.22538548196E-01  0.11423126589E+00 -0.68628719629E-01  0.89031829669E+00  0.88000000000E+00 0. -1.
        -11    1    4    4    0    0  0.42128683049E-02 -0.58395603108E-01  0.60391532267E-01  0.84114166537E-01  0.51100000000E-03 0. -1.
         11    1    4    4    0    0 -0.20017927166E-01 -0.51801886171E-01  0.16661756635E-01  0.57982998146E-01  0.51100000000E-03 0.  1.
</event>
<event>
 8    1  0.2123879E+004  0.1043930E+01  0.7957747E-01            NaN
         13   -1    0    0    0    0  0.00000000000E+00  0.00000000000E+00  0.74505805969E-08  0.10566000000E+00  0.10566000000E+00 0.  1.
     999900   -1    0    0    0    0 -0.00000000000E+00 -0.00000000000E+00 -0.74505805969E-08  0.93827000000E+00  0.93827000000E+00 0. -1.
     999902    2    1    2    0    0  0.80354622650E-02 -0.22721047403E-02  0.11301613994E-01  0.10298780395E+01  0.10297821705E+01 0.  0.
     999903    2    3    3    0    0  0.83472511229E-01 -0.89466614242E-01  0.55303948435E-01  0.14126685557E+00  0.43884650805E-01 0.  0.
         14    1    1    2    0    0 -0.80354622650E-02  0.22721047403E-02 -0.11301613994E-01  0.14051960455E-01  0.00000000000E+00 0. -1.
     999901    1    3    3    0    0 -0.75437048964E-01  0.87194509501E-01 -0.44002334441E-01  0.88861118397E+00  0.88000000000E+00 0.  1.
        -11    1    4    4    0    0  0.57198735029E-01 -0.77785913643E-01  0.57579987066E-01  0.11241912507E+00  0.51100000000E-03 0. -1.
         11    1    4    4    0    0  0.26273776200E-01 -0.11680700599E-01 -0.22760386313E-02  0.28847730502E-01  0.51100000000E-03 0.  1.
</event>
<event>
 8    1  0.2123879E+004  0.1043930E+01  0.7957747E-01            NaN
         13   -1    0    0    0    0  0.00000000000E+00  0.00000000000E+00  0.74505805969E-08  0.10566000000E+00  0.10566000000E+00 0.  1.
     999900   -1    0    0    0    0 -0.00000000000E+00 -0.00000000000E+00 -0.74505805969E-08  0.93827000000E+00  0.93827000000E+00 0. -1.
     999902    2    1    2    0    0  0.14778405882E-01 -0.55757581533E-02  0.44214760389E-02  0.10275275670E+01  0.10273966425E+01 0.  0.
     999903    2    3    3    0    0  0.43802657841E-02 -0.82610188501E-01  0.10207664502E+00  0.13871996302E+00  0.44496704485E-01 0.  0.
         14    1    1    2    0    0 -0.14778405882E-01  0.55757581533E-02 -0.44214760389E-02  0.16402433044E-01  0.00000000000E+00 0. -1.
     999901    1    3    3    0    0  0.10398140098E-01  0.77034430348E-01 -0.97655168983E-01  0.88880760393E+00  0.88000000000E+00 0. -1.
        -11    1    4    4    0    0 -0.13365794893E-01 -0.68001762702E-02  0.25024489228E-01  0.29178297630E-01  0.51100000000E-03 0. -1.
         11    1    4    4    0    0  0.17746060677E-01 -0.75810012231E-01  0.77052155794E-01  0.10954166540E+00  0.51100000000E-03 0.  1.
</event>
<event>
 8    1  0.2123879E+004  0.1043930E+01  0.7957747E-01            NaN
         13   -1    0    0    0    0  0.00000000000E+00  0.00000000000E+00  0.74505805969E-08  0.10566000000E+00  0.10566000000E+00 0. -1.
     999900   -1    0    0    0    0 -0.00000000000E+00 -0.00000000000E+00 -0.74505805969E-08  0.93827000000E+00  0.93827000000E+00 0.  1.
     999902    2    1    2    0    0 -0.34007835156E-02  0.58926140831E-02 -0.11737474965E-01  0.10303632558E+01  0.10302739356E+01 0.  0.
     999903    2    3    3    0    0 -0.77238801873E-01 -0.82172490209E-01  0.68291302900E-01  0.13928967814E+00  0.44941759218E-01 0.  0.
         14    1    1    2    0    0  0.34007835156E-02 -0.58926140831E-02  0.11737474965E-01  0.13566744186E-01  0.00000000000E+00 0. -1.
     999901    1    3    3    0    0  0.73838018357E-01  0.88065104292E-01 -0.80028777865E-01  0.89107357768E+00  0.88000000000E+00 0.  1.
        -11    1    4    4    0    0 -0.42143969960E-01 -0.72571812087E-01  0.55960134923E-01  0.10086912280E+00  0.51100000000E-03 0. -1.
         11    1    4    4    0    0 -0.35094831912E-01 -0.96006781218E-02  0.12331167977E-01  0.38420555332E-01  0.51100000000E-03 0.  1.
</event>
<event>
 7    1  0.2718209E+004  0.1043930E+01  0.7957747E-01            NaN
         13   -1    0    0    0    0  0.00000000000E+00  0.00000000000E+00  0.74505805969E-08  0.10566000000E+00  0.10566000000E+00 0. -1.
     999900   -1    0    0    0    0 -0.00000000000E+00 -0.00000000000E+00 -0.74505805969E-08  0.93827000000E+00  0.93827000000E+00 0. -1.
     999903    2    1    2    0    0 -0.20124669998E-01  0.84076298197E-02  0.75565936062E-01  0.89438133269E-01  0.42582606872E-01 0.  0.
         14    1    1    2    0    0 -0.46045154333E-01  0.43074844407E-01  0.17994455699E-01  0.65569801694E-01  0.00000000000E+00 0. -1.
     999901    1    1    2    0    0  0.66169824330E-01 -0.51482474227E-01 -0.93560391761E-01  0.88892206504E+00  0.88000000000E+00 0. -1.
        -11    1    3    3    0    0 -0.21650325709E-01 -0.13481159462E-01  0.34921679174E-01  0.43246538139E-01  0.51100000000E-03 0. -1.
         11    1    3    3    0    0  0.15256557113E-02  0.21888789282E-01  0.40644256888E-01  0.46191595129E-01  0.51100000000E-03 0.  1.
</event>
<event>
 8    1  0.2123879E+004  0.1043930E+01  0.7957747E-01            NaN
         13   -1    0    0    0    0  0.00000000000E+00  0.00000000000E+00  0.74505805969E-08  0.10566000000E+00  0.10566000000E+00 0. -1.
     999900   -1    0    0    0    0 -0.00000000000E+00 -0.00000000000E+00 -0.74505805969E-08  0.93827000000E+00  0.93827000000E+00 0.  1.
     999902    2    1    2    0    0  0.14198319896E-01 -0.15345244692E-02 -0.25688307808E-02  0.10294197986E+01  0.10293175291E+01 0.  0.
     999903    2    3    3    0    0 -0.10272225851E+00 -0.79010072208E-01  0.19462906575E-01  0.13803981250E+00  0.43378925750E-01 0.  0.
         14    1    1    2    0    0 -0.14198319896E-01  0.15345244692E-02  0.25688307808E-02  0.14510201405E-01  0.00000000000E+00 0. -1.
     999901    1    3    3    0    0  0.11692057841E+00  0.77475547739E-01 -0.22031737356E-01  0.89137998609E+00  0.88000000000E+00 0.  1.
        -11    1    4    4    0    0 -0.10083161491E+00 -0.61222934379E-01  0.11730070877E-01  0.11854584743E+00  0.51100000000E-03 0.  1.
         11    1    4    4    0    0 -0.18906436060E-02 -0.17787137829E-01  0.77328356980E-02  0.19493965075E-01  0.51100000000E-03 0. -1.
</event>
<event>
 8    1  0.2123879E+004  0.1043930E+01  0.7957747E-01            NaN
         13   -1    0    0    0    0  0.00000000000E+00  0.00000000000E+00  0.74505805969E-08  0.10566000000E+00  0.10566000000E+00 0. -1.
     999900   -1    0    0    0    0 -0.00000000000E+00 -0.00000000000E+00 -0.74505805969E-08  0.93827000000E+00  0.93827000000E+00 0.  1.
     999902    2    1    2    0    0 -0.10411010763E-02  0.60241125059E-02  0.12364593405E-01  0.10301366323E+01  0.10300442826E+01 0.  0.
     999903    2    3    3    0    0 -0.32563110800E-01  0.75379815517E-01  0.10635690955E+00  0.14185829407E+00  0.45491874162E-01 0.  0.
         14    1    1    2    0    0  0.10411010763E-02 -0.60241125059E-02 -0.12364593405E-01  0.13793367718E-01  0.00000000000E+00 0.  1.
     999901    1    3    3    0    0  0.31522009723E-01 -0.69355703011E-01 -0.93992316150E-01  0.88827833821E+00  0.88000000000E+00 0.  1.
        -11    1    4    4    0    0  0.63879646974E-02  0.40142360950E-01  0.37959602461E-01  0.55618412200E-01  0.51100000000E-03 0.  1.
         11    1    4    4    0    0 -0.38951075497E-01  0.35237454567E-01  0.68397307093E-01  0.86239881872E-01  0.51100000000E-03 0. -1.
</event>
<event>
 8    1  0.2123879E+004  0.1043930E+01  0.7957747E-01            NaN
         13   -1    0    0    0    0  0.00000000000E+00  0.00000000000E+00  0.74505805969E-08  0.10566000000E+00  0.10566000000E+00 0. -1.
     999900   -1    0    0    0    0 -0.00000000000E+00 -0.00000000000E+00 -0.74505805969E-08  0.93827000000E+00  0.93827000000E+00 0.  1.
     999902    2    1    2    0    0  0.12281177644E-01  0.46914075993E-02  0.27363061766E-02  0.10305015228E+01  0.10304140257E+01 0.  0.
     999903    2    3    3    0    0 -0.15880260229E-01  0.11696477613E+00 -0.62133907798E-01  0.14055404086E+00  0.44293051206E-01 0.  0.
         14    1    1    2    0    0 -0.12281177644E-01 -0.46914075993E-02 -0.27363061766E-02  0.13428477244E-01  0.00000000000E+00 0. -1.
     999901    1    3    3    0    0  0.28161437873E-01 -0.11227336853E+00  0.64870213975E-01  0.88994748189E+00  0.88000000000E+00 0. -1.
        -11    1    4    4    0    0 -0.21902923781E-01  0.49125043765E-01 -0.45479245989E-01  0.70438845332E-01  0.51100000000E-03 0. -1.
         11    1    4    4    0    0  0.60226635522E-02  0.67839732365E-01 -0.16654661810E-01  0.70115195532E-01  0.51100000000E-03 0.  1.
</event>
<event>
 8    1  0.2123879E+004  0.1043930E+01  0.7957747E-01            NaN
         13   -1    0    0    0    0  0.00000000000E+00  0.00000000000E+00  0.74505805969E-08  0.10566000000E+00  0.10566000000E+00 0.  1.
     999900   -1    0    0    0    0 -0.00000000000E+00 -0.00000000000E+00 -0.74505805969E-08  0.93827000000E+00  0.93827000000E+00 0. -1.
     999902    2    1    2    0    0  0.12780366409E-01  0.49343956083E-02  0.38354828105E-03  0.10302247771E+01  0.10301336118E+01 0.  0.
     999903    2    3    3    0    0 -0.76297994581E-01  0.10722983920E+00  0.11730632194E-01  0.13975969160E+00  0.45558108734E-01 0.  0.
         14    1    1    2    0    0 -0.12780366409E-01 -0.49343956083E-02 -0.38354828105E-03  0.13705222904E-01  0.00000000000E+00 0.  1.
     999901    1    3    3    0    0  0.89078360990E-01 -0.10229544359E+00 -0.11347083913E-01  0.89046508550E+00  0.88000000000E+00 0.  1.
        -11    1    4    4    0    0 -0.18337182811E-01  0.23518834270E-01  0.22514587666E-01  0.37370518028E-01  0.51100000000E-03 0.  1.
         11    1    4    4    0    0 -0.57960811769E-01  0.83711004933E-01 -0.10783955472E-01  0.10238917357E+00  0.51100000000E-03 0. -1.
</event>
<event>
 8    1  0.2123879E+004  0.1043930E+01  0.7957747E-01            NaN
         13   -1    0    0    0    0  0.00000000000E+00  0.00000000000E+00  0.74505805969E-08  0.10566000000E+00  0.10566000000E+00 0. -1.
     999900   -1    0    0    0    0 -0.00000000000E+00 -0.00000000000E+00 -0.74505805969E-08  0.93827000000E+00  0.93827000000E+00 0. -1.
     999902    2    1    2    0    0 -0.55440938593E-02 -0.69821770586E-02 -0.90807740828E-02  0.10312041118E+01  0.10311255849E+01 0.  0.
     999903    2    3    3    0    0  0.10382479213E+00 -0.83327135695E-01  0.10477894290E-01  0.14093861910E+00  0.45065608630E-01 0.  0.
         14    1    1    2    0    0  0.55440938593E-02  0.69821770586E-02  0.90807740828E-02  0.12725888226E-01  0.00000000000E+00 0. -1.
     999901    1    3    3    0    0 -0.10936888599E+00  0.76344958637E-01 -0.19558668373E-01  0.89026549267E+00  0.88000000000E+00 0. -1.
        -11    1    4    4    0    0  0.50473468155E-01 -0.12852107911E-01  0.60171254054E-02  0.52432953230E-01  0.51100000000E-03 0.  1.
         11    1    4    4    0    0  0.53351323978E-01 -0.70475027784E-01  0.44607688849E-02  0.88505665872E-01  0.51100000000E-03 0. -1.
</event>
<event>
 8    1  0.2123879E+004  0.1043930E+01  0.7957747E-01            NaN
         13   -1    0    0    0    0  0.00000000000E+00  0.00000000000E+00  0.74505805969E-08  0.10566000000E+00  0.10566000000E+00 0. -1.
     999900   -1    0    0    0    0 -0.00000000000E+00 -0.00000000000E+00 -0.74505805969E-08  0.93827000000E+00  0.93827000000E+00 0. -1.
     999902    2    1    2    0    0 -0.10847638015E-02  0.12763162408E-01  0.76171742257E-02  0.10290271019E+01  0.10289191806E+01 0.  0.
     999903    2    3    3    0    0  0.34402605112E-01  0.11086717583E+00 -0.64000034300E-01  0.13997548626E+00  0.44967348678E-01 0.  0.
         14    1    1    2    0    0  0.10847638015E-02 -0.12763162408E-01 -0.76171742257E-02  0.14902898052E-01  0.00000000000E+00 0.  1.
     999901    1    3    3    0    0 -0.35487368914E-01 -0.98104013426E-01  0.71617208526E-01  0.88905161569E+00  0.88000000000E+00 0.  1.
        -11    1    4    4    0    0  0.16605319212E-01  0.38181363874E-01 -0.47826784805E-01  0.63413055747E-01  0.51100000000E-03 0.  1.
         11    1    4    4    0    0  0.17797285900E-01  0.72685811960E-01 -0.16173249495E-01  0.76562430512E-01  0.51100000000E-03 0. -1.
</event>
<event>
 8    1  0.2123879E+004  0.1043930E+01  0.7957747E-01            NaN
         13   -1    0    0    0    0  0.00000000000E+00  0.00000000000E+00  0.74505805969E-08  0.10566000000E+00  0.10566000000E+00 0. -1.
     999900   -1    0    0    0    0 -0.00000000000E+00 -0.00000000000E+00 -0.74505805969E-08  0.93827000000E+00  0.93827000000E+00 0. -1.
     999902    2    1    2    0    0 -0.12258734125E-01  0.22408980883E-01 -0.51455393949E-02  0.10178739918E+01  0.10175404403E+01 0.  0.
     999903    2    3    3    0    0  0.10956951927E+00 -0.15998897505E-01  0.43653607236E-01  0.12731313194E+00  0.45183535318E-01 0.  0.
         14    1    1    2    0    0  0.12258734125E-01 -0.22408980883E-01  0.51455393949E-02  0.26056008179E-01  0.00000000000E+00 0. -1.
     999901    1    3    3    0    0 -0.12182825340E+00  0.38407878388E-01 -0.48799146631E-01  0.89056085989E+00  0.88000000000E+00 0. -1.
        -11    1    4    4    0    0  0.42064839495E-01  0.14058513037E-01  0.25719220182E-01  0.51272135886E-01  0.51100000000E-03 0.  1.
         11    1    4    4    0    0  0.67504679777E-01 -0.30057410542E-01  0.17934387054E-01  0.76040996050E-01  0.51100000000E-03 0. -1.
</event>
<event>
 7    1  0.2123879E+004  0.1043930E+01  0.7957747E-01            NaN
         13   -1    0    0    0    0  0.00000000000E+00  0.00000000000E+00  0.74505805969E-08  0.10566000000E+00  0.10566000000E+00 0. -1.
     999900   -1    0    0    0    0 -0.00000000000E+00 -0.00000000000E+00 -0.74505805969E-08  0.93827000000E+00  0.93827000000E+00 0.  1.
     999903    2    1    2    0    0  0.45965924491E-01 -0.96662252273E-01 -0.22108766116E-02  0.11609099655E+00  0.44897374940E-01 0.  0.
         14    1    1    2    0    0 -0.15358752138E-01  0.39316771177E-01 -0.16298160887E-01  0.45247428781E-01  0.00000000000E+00 0. -1.
     999901    1    1    2    0    0 -0.30607172353E-01  0.57345481096E-01  0.18509037498E-01  0.88259157467E+00  0.88000000000E+00 0.  1.
        -11    1    3    3    0    0  0.33200843668E-01 -0.81132543956E-01 -0.19227411322E-01  0.89748204306E-01  0.51100000000E-03 0.  1.
         11    1    3    3    0    0  0.12765080823E-01 -0.15529708317E-01  0.17016534710E-01  0.26342792247E-01  0.51100000000E-03 0. -1.
</event>
<event>
 8    1  0.2123879E+004  0.1043930E+01  0.7957747E-01            NaN
         13   -1    0    0    0    0  0.00000000000E+00  0.00000000000E+00  0.74505805969E-08  0.10566000000E+00  0.10566000000E+00 0. -1.
     999900   -1    0    0    0    0 -0.00000000000E+00 -0.00000000000E+00 -0.74505805969E-08  0.93827000000E+00  0.93827000000E+00 0. -1.
     999902    2    1    2    0    0 -0.28564995694E-02  0.14138771746E-02  0.13590851312E-01  0.10299704199E+01  0.10298758158E+01 0.  0.
     999903    2    3    3    0    0  0.11459369648E+00  0.31082652662E-01  0.59773901975E-01  0.14047187631E+00  0.45404648544E-01 0.  0.
         14    1    1    2    0    0  0.28564995694E-02 -0.14138771746E-02 -0.13590851312E-01  0.13959580146E-01  0.00000000000E+00 0.  1.
     999901    1    3    3    0    0 -0.11745019605E+00 -0.29668775487E-01 -0.46183050663E-01  0.88949854354E+00  0.88000000000E+00 0.  1.
        -11    1    4    4    0    0  0.62154796887E-01  0.28882553631E-01  0.54791423556E-01  0.87748401106E-01  0.51100000000E-03 0.  1.
         11    1    4    4    0    0  0.52438899590E-01  0.22000990302E-02  0.49824784194E-02  0.52723475209E-01  0.51100000000E-03 0. -1.
</event>
<event>
 8    1  0.2123879E+004  0.1043930E+01  0.7957747E-01            NaN
         13   -1    0    0    0    0  0.00000000000E+00  0.00000000000E+00  0.74505805969E-08  0.10566000000E+00  0.10566000000E+00 0.  1.
     999900   -1    0    0    0    0 -0.00000000000E+00 -0.00000000000E+00 -0.74505805969E-08  0.93827000000E+00  0.93827000000E+00 0.  1.
     999902    2    1    2    0    0 -0.66242630167E-02  0.20527306293E-03  0.12461175146E-01  0.10298160394E+01  0.10297193167E+01 0.  0.
     999903    2    3    3    0    0  0.50172554813E-01 -0.82228183955E-01  0.91925291289E-01  0.14058283091E+00  0.45105583620E-01 0.  0.
         14    1    1    2    0    0  0.66242630167E-02 -0.20527306293E-03 -0.12461175146E-01  0.14113960591E-01  0.00000000000E+00 0.  1.
     999901    1    3    3    0    0 -0.56796817830E-01  0.82433457018E-01 -0.79464116143E-01  0.88923320850E+00  0.88000000000E+00 0.  1.
        -11    1    4    4    0    0  0.87040775504E-02 -0.55428286369E-01  0.39860256557E-01  0.68827008286E-01  0.51100000000E-03 0. -1.
         11    1    4    4    0    0  0.41468477263E-01 -0.26799897586E-01  0.52065034732E-01  0.71755822620E-01  0.51100000000E-03 0.  1.
</event>
<event>
 8    1  0.2123879E+004  0.1043930E+01  0.7957747E-01            NaN
         13   -1    0    0    0    0  0.00000000000E+00  0.00000000000E+00  0.74505805969E-08  0.10566000000E+00  0.10566000000E+00 0.  1.
     999900   -1    0    0    0    0 -0.00000000000E+00 -0.00000000000E+00 -0.74505805969E-08  0.93827000000E+00  0.93827000000E+00 0.  1.
     999902    2    1    2    0    0 -0.64906046726E-02  0.11815680479E-01 -0.30003895582E-02  0.10301191133E+01  0.10300265273E+01 0.  0.
     999903    2    3    3    0    0  0.53309519870E-01  0.35028834852E-01  0.11585890193E+00  0.13981442578E+00  0.45341640014E-01 0.  0.
         14    1    1    2    0    0  0.64906046726E-02 -0.11815680479E-01  0.30003895582E-02  0.13810886709E-01  0.00000000000E+00 0.  1.
     999901    1    3    3    0    0 -0.59800124543E-01 -0.23213154373E-01 -0.11885929149E+00  0.89030468751E+00  0.88000000000E+00 0.  1.
        -11    1    4    4    0    0  0.50662146490E-02  0.26174978064E-01  0.58837237061E-01  0.64597814154E-01  0.51100000000E-03 0. -1.
         11    1    4    4    0    0  0.48243305221E-01  0.88538567879E-02  0.57021664872E-01  0.75216611625E-01  0.51100000000E-03 0.  1.
</event>
<event>
 8    1  0.2123879E+004  0.1043930E+01  0.7957747E-01            NaN
         13   -1    0    0    0    0  0.00000000000E+00  0.00000000000E+00  0.74505805969E-08  0.10566000000E+00  0.10566000000E+00 0.  1.
     999900   -1    0    0    0    0 -0.00000000000E+00 -0.00000000000E+00 -0.74505805969E-08  0.93827000000E+00  0.93827000000E+00 0.  1.
     999902    2    1    2    0    0 -0.13643018131E-01  0.10655432687E-02 -0.28368784942E-02  0.10299544783E+01  0.10298596566E+01 0.  0.
     999903    2    3    3    0    0  0.27297559008E-01  0.12135549102E+00 -0.44950359898E-01  0.13983125782E+00  0.45386494454E-01 0.  0.
         14    1    1    2    0    0  0.13643018131E-01 -0.10655432687E-02  0.28368784942E-02  0.13975521663E-01  0.00000000000E+00 0. -1.
     999901    1    3    3    0    0 -0.40940577139E-01 -0.12028994776E+00  0.42113481403E-01  0.89012322052E+00  0.88000000000E+00 0. -1.
        -11    1    4    4    0    0  0.39382039917E-01  0.10008000137E+00 -0.40684959467E-01  0.11498903770E+00  0.51100000000E-03 0.  1.
         11    1    4    4    0    0 -0.12084480908E-01  0.21275489654E-01 -0.42654004305E-02  0.24842220124E-01  0.51100000000E-03 0. -1.
</event>
<event>
 8    1  0.2123879E+004  0.1043930E+01  0.7957747E-01            NaN
         13   -1    0    0    0    0  0.00000000000E+00  0.00000000000E+00  0.74505805969E-08  0.10566000000E+00  0.10566000000E+00 0.  1.
     999900   -1    0    0    0    0 -0.00000000000E+00 -0.00000000000E+00 -0.74505805969E-08  0.93827000000E+00  0.93827000000E+00 0. -1.
     999902    2    1    2    0    0  0.11714263265E-01  0.56961972024E-02  0.43715365266E-02  0.10301902417E+01  0.10300986133E+01 0.  0.
     999903    2    3    3    0    0  0.79145766900E-01 -0.10727840088E+00 -0.21441558403E-03  0.14039740152E+00  0.44030406143E-01 0.  0.
         14    1    1    2    0    0 -0.11714263265E-01 -0.56961972024E-02 -0.43715365266E-02  0.13739758295E-01  0.00000000000E+00 0. -1.
     999901    1    3    3    0    0 -0.67431503635E-01  0.11297459808E+00  0.45859521107E-02  0.88979284019E+00  0.88000000000E+00 0.  1.
        -11    1    4    4    0    0  0.30547123723E-01 -0.30184853937E-01  0.19480006414E-01  0.47159134278E-01  0.51100000000E-03 0. -1.
         11    1    4    4    0    0  0.48598643177E-01 -0.77093546941E-01 -0.19694421998E-01  0.93238267238E-01  0.51100000000E-03 0.  1.
</event>
<event>
 8    1  0.2123879E+004  0.1043930E+01  0.7957747E-01            NaN
         13   -1    0    0    0    0  0.00000000000E+00  0.00000000000E+00  0.74505805969E-08  0.10566000000E+00  0.10566000000E+00 0.  1.
     999900   -1    0    0    0    0 -0.00000000000E+00 -0.00000000000E+00 -0.74505805969E-08  0.93827000000E+00  0.93827000000E+00 0. -1.
     999902    2    1    2    0    0 -0.10087517695E-01 -0.50753953004E-02 -0.83933298392E-02  0.10298599738E+01  0.10297638565E+01 0.  0.
     999903    2    3    3    0    0 -0.31539963450E-01  0.84063854344E-01 -0.98141128497E-01  0.14055649322E+00  0.45419662946E-01 0.  0.
         14    1    1    2    0    0  0.10087517695E-01  0.50753953004E-02  0.83933298392E-02  0.14070026172E-01  0.00000000000E+00 0.  1.
     999901    1    3    3    0    0  0.21452445755E-01 -0.89139249644E-01  0.89747798658E-01  0.88930348061E+00  0.88000000000E+00 0.  1.
        -11    1    4    4    0    0 -0.19401474629E-01  0.76241775957E-02 -0.34683022824E-01  0.40468734784E-01  0.51100000000E-03 0.  1.
         11    1    4    4    0    0 -0.12138488820E-01  0.76439676748E-01 -0.63458105674E-01  0.10008775844E+00  0.51100000000E-03 0. -1.
</event>
<event>
 8    1  0.2123879E+004  0.1043930E+01  0.7957747E-01            NaN
         13   -1    0    0    0    0  0.00000000000E+00  0.00000000000E+00  0.74505805969E-08  0.10566000000E+00  0.10566000000E+00 0. -1.
     999900   -1    0    0    0    0 -0.00000000000E+00 -0.00000000000E+00 -0.74505805969E-08  0.93827000000E+00  0.93827000000E+00 0. -1.
     999902    2    1    2    0    0  0.13034039435E-01 -0.56395793949E-02 -0.80933489371E-03  0.10297051604E+01  0.10296069013E+01 0.  0.
     999903    2    3    3    0    0 -0.18619077892E-02  0.29805571928E-01 -0.12917913468E+00  0.13956076000E+00  0.43567396948E-01 0.  0.
         14    1    1    2    0    0 -0.13034039435E-01  0.56395793949E-02  0.80933489371E-03  0.14224839637E-01  0.00000000000E+00 0. -1.
     999901    1    3    3    0    0  0.14895947224E-01 -0.35445151323E-01  0.12836979979E+00  0.89014440036E+00  0.88000000000E+00 0.  1.
        -11    1    4    4    0    0 -0.15712074582E-01  0.34389002337E-01 -0.84957188780E-01  0.92991708317E-01  0.51100000000E-03 0. -1.
         11    1    4    4    0    0  0.13850166793E-01 -0.45834304091E-02 -0.44221945901E-01  0.46569051684E-01  0.51100000000E-03 0.  1.
</event>
<event>
 8    1  0.2123879E+004  0.1043930E+01  0.7957747E-01            NaN
         13   -1    0    0    0    0  0.00000000000E+00  0.00000000000E+00  0.74505805969E-08  0.10566000000E+00  0.10566000000E+00 0. -1.
     999900   -1    0    0    0    0 -0.00000000000E+00 -0.00000000000E+00 -0.74505805969E-08  0.93827000000E+00  0.93827000000E+00 0. -1.
     999902    2    1    2    0    0  0.89593558894E-02 -0.37291186648E-02  0.95970364042E-02  0.10302815755E+01  0.10301911693E+01 0.  0.
     999903    2    3    3    0    0  0.75873963255E-01  0.24743080521E-01  0.10799415722E+00  0.14181648096E+00  0.45608090772E-01 0.  0.
         14    1    1    2    0    0 -0.89593558894E-02  0.37291186648E-02 -0.95970364042E-02  0.13648424514E-01  0.00000000000E+00 0.  1.
     999901    1    3    3    0    0 -0.66914607366E-01 -0.28472199185E-01 -0.98397120819E-01  0.88846509453E+00  0.88000000000E+00 0. -1.
        -11    1    4    4    0    0  0.98557107882E-02  0.23842964112E-01  0.27597576897E-01  0.37782394635E-01  0.51100000000E-03 0.  1.
         11    1    4    4    0    0  0.66018252467E-01  0.90011640868E-03  0.80396580326E-01  0.10403408633E+00  0.51100000000E-03 0. -1.
</event>
<event>
 8    1  0.2123879E+004  0.1043930E+01  0.7957747E-01            NaN
         13   -1    0    0    0    0  0.00000000000E+00  0.00000000000E+00  0.74505805969E-08  0.10566000000E+00  0.10566000000E+00 0.  1.
     999900   -1    0    0    0    0 -0.00000000000E+00 -0.00000000000E+00 -0.74505805969E-08  0.93827000000E+00  0.93827000000E+00 0. -1.
     999902    2    1    2    0    0  0.10919365954E-02 -0.14188849336E-01  0.16082978934E-02  0.10296086037E+01  0.10295089967E+01 0.  0.
     999903    2    3    3    0    0 -0.11258543036E+00 -0.62150559557E-01 -0.33697506852E-01  0.14030023799E+00  0.44838193855E-01 0.  0.
         14    1    1    2    0    0 -0.10919365954E-02  0.14188849336E-01 -0.16082978934E-02  0.14321396340E-01  0.00000000000E+00 0.  1.
     999901    1    3    3    0    0  0.11367736696E+00  0.47961710221E-01  0.35305804746E-01  0.88930836567E+00  0.88000000000E+00 0. -1.
        -11    1    4    4    0    0 -0.92814588823E-01 -0.65478778949E-01 -0.38023571248E-01  0.11978343576E+00  0.51100000000E-03 0.  1.
         11    1    4    4    0    0 -0.19770841540E-01  0.33282193917E-02  0.43260643954E-02  0.20516802228E-01  0.51100000000E-03 0. -1.
</event>
<event>
 8    1  0.2123879E+004  0.1043930E+01  0.7957747E-01            NaN
         13   -1    0    0    0    0  0.00000000000E+00  0.00000000000E+00  0.74505805969E-08  0.10566000000E+00  0.10566000000E+00 0. -1.
     999900   -1    0    0    0    0 -0.00000000000E+00 -0.00000000000E+00 -0.74505805969E-08  0.93827000000E+00  0.93827000000E+00 0. -1.
     999902    2    1    2    0    0  0.25417006444E-02  0.82322349586E-02 -0.11243082106E-01  0.10297653669E+01  0.10296679436E+01 0.  0.
     999903    2    3    3    0    0 -0.13335311463E-01 -0.10288698290E+00  0.79451440175E-01  0.13801144546E+00  0.44396688524E-01 0.  0.
         14    1    1    2    0    0 -0.25417006444E-02 -0.82322349586E-02  0.11243082106E-01  0.14164633064E-01  0.00000000000E+00 0. -1.
     999901    1    3    3    0    0  0.15877012108E-01  0.11111921785E+00 -0.90694522281E-01  0.89175392147E+00  0.88000000000E+00 0. -1.
        -11    1    4    4    0    0  0.15220162119E-02 -0.86336170880E-01  0.46004170532E-01  0.97841176214E-01  0.51100000000E-03 0.  1.
         11    1    4    4    0    0 -0.14857327675E-01 -0.16550812015E-01  0.33447269643E-01  0.40170269250E-01  0.51100000000E-03 0. -1.
</event>
<event>
 8    1  0.2123879E+004  0.1043930E+01  0.7957747E-01            NaN
         13   -1    0    0    0    0  0.00000000000E+00  0.00000000000E+00  0.74505805969E-08  0.10566000000E+00  0.10566000000E+00 0. -1.
     999900   -1    0    0    0    0 -0.00000000000E+00 -0.00000000000E+00 -0.74505805969E-08  0.93827000000E+00  0.93827000000E+00 0. -1.
     999902    2    1    2    0    0 -0.13659139742E-02  0.17859289767E-01  0.83158419943E-03  0.10259992587E+01  0.10258425646E+01 0.  0.
     999903    2    3    3    0    0  0.82230735643E-01 -0.18257619057E-01 -0.98683146031E-01  0.13572064360E+00  0.39830832930E-01 0.  0.
         14    1    1    2    0    0  0.13659139742E-02 -0.17859289767E-01 -0.83158419943E-03  0.17930741319E-01  0.00000000000E+00 0. -1.
     999901    1    3    3    0    0 -0.83596649617E-01  0.36116908824E-01  0.99514730230E-01  0.89027861508E+00  0.88000000000E+00 0. -1.
        -11    1    4    4    0    0  0.30553521361E-01 -0.12348419945E-01 -0.67386917127E-01  0.75015057579E-01  0.51100000000E-03 0. -1.
         11    1    4    4    0    0  0.51677214282E-01 -0.59091991115E-02 -0.31296228904E-01  0.60705586026E-01  0.51100000000E-03 0.  1.
</event>
<event>
 8    1  0.2123879E+004  0.1043930E+01  0.7957747E-01            NaN
         13   -1    0    0    0    0  0.00000000000E+00  0.00000000000E+00  0.74505805969E-08  0.10566000000E+00  0.10566000000E+00 0.  1.
     999900   -1    0    0    0    0 -0.00000000000E+00 -0.00000000000E+00 -0.74505805969E-08  0.93827000000E+00  0.93827000000E+00 0. -1.
     999902    2    1    2    0    0 -0.71982599896E-02 -0.75761080935E-02  0.73405935915E-02  0.10311590691E+01  0.10310799820E+01 0.  0.
     999903    2    3    3    0    0 -0.65749859126E-01  0.90945000772E-02 -0.11508274751E+00  0.14060100063E+00  0.46030953682E-01 0.  0.
         14    1    1    2    0    0  0.71982599896E-02  0.75761080935E-02 -0.73405935915E-02  0.12770930859E-01  0.00000000000E+00 0. -1.
     999901    1    3    3    0    0  0.58551599136E-01 -0.16670608171E-01  0.12242334111E+00  0.89055806851E+00  0.88000000000E+00 0.  1.
        -11    1    4    4    0    0 -0.46942754857E-01  0.14734117982E-01 -0.41270337991E-01  0.64220077742E-01  0.51100000000E-03 0. -1.
         11    1    4    4    0    0 -0.18807104268E-01 -0.56396179047E-02 -0.73812409523E-01  0.76380922890E-01  0.51100000000E-03 0.  1.
</event>
<event>
 8    1  0.2123879E+004  0.1043930E+01  0.7957747E-01            NaN
         13   -1    0    0    0    0  0.00000000000E+00  0.00000000000E+00  0.74505805969E-08  0.10566000000E+00  0.10566000000E+00 0.  1.
     999900   -1    0    0    0    0 -0.00000000000E+00 -0.00000000000E+00 -0.74505805969E-08  0.93827000000E+00  0.93827000000E+00 0. -1.
     999902    2    1    2    0    0 -0.15582321606E-01  0.12529117279E-02  0.16650495200E-02  0.10282089655E+01  0.10280887734E+01 0.  0.
     999903    2    3    3    0    0 -0.90630147147E-01 -0.66385178928E-01  0.69223680089E-01  0.13985585107E+00  0.46334928957E-01 0.  0.
         14    1    1    2    0    0  0.15582321606E-01 -0.12529117279E-02 -0.16650495200E-02  0.15721034455E-01  0.00000000000E+00 0. -1.
     999901    1    3    3    0    0  0.75047825541E-01  0.67638090656E-01 -0.67558630569E-01  0.88835311447E+00  0.88000000000E+00 0. -1.
        -11    1    4    4    0    0 -0.37773141908E-01 -0.35648490625E-01  0.66471874635E-02  0.52364791183E-01  0.51100000000E-03 0.  1.
         11    1    4    4    0    0 -0.52857005238E-01 -0.30736688304E-01  0.62576492625E-01  0.87491059891E-01  0.51100000000E-03 0. -1.
</event>
<event>
 8    1  0.2123879E+004  0.1043930E+01  0.7957747E-01            NaN
         13   -1    0    0    0    0  0.00000000000E+00  0.00000000000E+00  0.74505805969E-08  0.10566000000E+00  0.10566000000E+00 0. -1.
     999900   -1    0    0    0    0 -0.00000000000E+00 -0.00000000000E+00 -0.74505805969E-08  0.93827000000E+00  0.93827000000E+00 0. -1.
     999902    2    1    2    0    0 -0.29320739536E-02 -0.85723807021E-02 -0.94769113508E-03  0.10348206154E+01  0.10347805203E+01 0.  0.
     999903    2    3    3    0    0 -0.83121050039E-01 -0.80922648283E-01  0.76492798775E-01  0.14484204121E+00  0.40871563145E-01 0.  0.
         14    1    1    2    0    0  0.29320739536E-02  0.85723807021E-02  0.94769113508E-03  0.91093845598E-02  0.00000000000E+00 0.  1.
     999901    1    3    3    0    0  0.80188976085E-01  0.72350267581E-01 -0.77440489910E-01  0.88997857423E+00  0.88000000000E+00 0. -1.
        -11    1    4    4    0    0 -0.54629559677E-01 -0.27136185621E-01  0.48069253293E-01  0.77663862856E-01  0.51100000000E-03 0. -1.
         11    1    4    4    0    0 -0.28491490362E-01 -0.53786462662E-01  0.28423545482E-01  0.67178178358E-01  0.51100000000E-03 0.  1.
</event>
<event>
 8    1  0.2123879E+004  0.1043930E+01  0.7957747E-01            NaN
         13   -1    0    0    0    0  0.00000000000E+00  0.00000000000E+00  0.74505805969E-08  0.10566000000E+00  0.10566000000E+00 0.  1.
     999900   -1    0    0    0    0 -0.00000000000E+00 -0.00000000000E+00 -0.74505805969E-08  0.93827000000E+00  0.93827000000E+00 0. -1.
     999902    2    1    2    0    0  0.82750705859E-03  0.80679996798E-02  0.10618592250E-01  0.10305684175E+01  0.10304817956E+01 0.  0.
     999903    2    3    3    0    0 -0.59682758924E-01 -0.10447111744E+00 -0.54301885094E-01  0.13897365886E+00  0.43459602410E-01 0.  0.
         14    1    1    2    0    0 -0.82750705859E-03 -0.80679996798E-02 -0.10618592250E-01  0.13361582546E-01  0.00000000000E+00 0. -1.
     999901    1    3    3    0    0  0.60510265983E-01  0.11253911712E+00  0.64920477344E-01  0.89159475859E+00  0.88000000000E+00 0.  1.
        -11    1    4    4    0    0 -0.29181950770E-01 -0.88900060704E-01 -0.42257339980E-01  0.10266815936E+00  0.51100000000E-03 0. -1.
         11    1    4    4    0    0 -0.30500808154E-01 -0.15571056731E-01 -0.12044545114E-01  0.36305499497E-01  0.51100000000E-03 0.  1.
</event>
<event>
 8    1  0.2123879E+004  0.1043930E+01  0.7957747E-01            NaN
         13   -1    0    0    0    0  0.00000000000E+00  0.00000000000E+00  0.74505805969E-08  0.10566000000E+00  0.10566000000E+00 0. -1.
     999900   -1    0    0    0    0 -0.00000000000E+00 -0.00000000000E+00 -0.74505805969E-08  0.93827000000E+00  0.93827000000E+00 0. -1.
     999902    2    1    2    0    0  0.98583922230E-02  0.54947389169E-02 -0.68553371523E-02  0.10307248608E+01  0.10306402685E+01 0.  0.
     999903    2    3    3    0    0 -0.50795996567E-01  0.55747451228E-01  0.10806065639E+00  0.13976471832E+00  0.46573162245E-01 0.  0.
         14    1    1    2    0    0 -0.98583922230E-02 -0.54947389169E-02  0.68553371523E-02  0.13205139169E-01  0.00000000000E+00 0. -1.
     999901    1    3    3    0    0  0.60654388790E-01 -0.50252712311E-01 -0.11491599354E+00  0.89096014251E+00  0.88000000000E+00 0. -1.
        -11    1    4    4    0    0 -0.36945090838E-01  0.56931358550E-01  0.10576071842E+00  0.12566507074E+00  0.51100000000E-03 0. -1.
         11    1    4    4    0    0 -0.13850905729E-01 -0.11839073216E-02  0.22999379703E-02  0.14099647575E-01  0.51100000000E-03 0.  1.
</event>
<event>
 8    1  0.2123879E+004  0.1043930E+01  0.7957747E-01            NaN
         13   -1    0    0    0    0  0.00000000000E+00  0.00000000000E+00  0.74505805969E-08  0.10566000000E+00  0.10566000000E+00 0.  1.
     999900   -1    0    0    0    0 -0.00000000000E+00 -0.00000000000E+00 -0.74505805969E-08  0.93827000000E+00  0.93827000000E+00 0. -1.
     999902    2    1    2    0    0  0.37897873482E-02 -0.56596438410E-02 -0.11323227740E-01  0.10307160096E+01  0.10306313031E+01 0.  0.
     999903    2    3    3    0    0  0.39884877455E-01 -0.12772372013E+00  0.94161028261E-02  0.14131586673E+00  0.44467505708E-01 0.  0.
         14    1    1    2    0    0 -0.37897873482E-02  0.56596438410E-02  0.11323227740E-01  0.13213990427E-01  0.00000000000E+00 0.  1.
     999901    1    3    3    0    0 -0.36095090107E-01  0.12206407629E+00 -0.20739330566E-01  0.88940014284E+00  0.88000000000E+00 0. -1.
        -11    1    4    4    0    0  0.24851625405E-01 -0.11477639735E+00 -0.37535369113E-02  0.11749712692E+00  0.51100000000E-03 0. -1.
         11    1    4    4    0    0  0.15033252050E-01 -0.12947322779E-01  0.13169639737E-01  0.23818739810E-01  0.51100000000E-03 0.  1.
</event>
<event>
 7    1  0.2123879E+004  0.1043930E+01  0.7957747E-01            NaN
         13   -1    0    0    0    0  0.00000000000E+00  0.00000000000E+00  0.74505805969E-08  0.10566000000E+00  0.10566000000E+00 0.  1.
     999900   -1    0    0    0    0 -0.00000000000E+00 -0.00000000000E+00 -0.74505805969E-08  0.93827000000E+00  0.93827000000E+00 0. -1.
     999903    2    1    2    0    0  0.48198986257E-01  0.99677911609E-01 -0.29366367591E-01  0.12299617154E+00  0.44797838449E-01 0.  0.
         14    1    1    2    0    0  0.91312092483E-02  0.20494088058E-01 -0.19290514760E-01  0.29589028158E-01  0.00000000000E+00 0.  1.
     999901    1    1    2    0    0 -0.57330195505E-01 -0.12017199967E+00  0.48656882351E-01  0.89134480030E+00  0.88000000000E+00 0. -1.
        -11    1    3    3    0    0  0.55134846382E-01  0.83684939924E-01 -0.32339420880E-01  0.10530488934E+00  0.51100000000E-03 0.  1.
         11    1    3    3    0    0 -0.69358601255E-02  0.15992971685E-01  0.29730532894E-02  0.17691282199E-01  0.51100000000E-03 0. -1.
</event>
<event>
 8    1  0.2123879E+004  0.1043930E+01  0.7957747E-01            NaN
         13   -1    0    0    0    0  0.00000000000E+00  0.00000000000E+00  0.74505805969E-08  0.10566000000E+00  0.10566000000E+00 0. -1.
     999900   -1    0    0    0    0 -0.00000000000E+00 -0.00000000000E+00 -0.74505805969E-08  0.93827000000E+00  0.93827000000E+00 0.  1.
     999902    2    1    2    0    0 -0.78070940690E-02 -0.73163450325E-02 -0.88293041994E-02  0.10300578612E+01  0.10299644466E+01 0.  0.
     999903    2    3    3    0    0  0.82118543569E-01 -0.77175946771E-01 -0.73448098646E-01  0.14037107763E+00  0.40122740199E-01 0.  0.
         14    1    1    2    0    0  0.78070940690E-02  0.73163450325E-02  0.88293041994E-02  0.13872138807E-01  0.00000000000E+00 0. -1.
     999901    1    3    3    0    0 -0.89925637637E-01  0.69859601738E-01  0.64618794447E-01  0.88968678357E+00  0.88000000000E+00 0. -1.
        -11    1    4    4    0    0  0.54145775617E-01 -0.23825361043E-01 -0.32112842403E-01  0.67312024291E-01  0.51100000000E-03 0. -1.
         11    1    4    4    0    0  0.27972767952E-01 -0.53350585728E-01 -0.41335256244E-01  0.73059053334E-01  0.51100000000E-03 0.  1.
</event>
<event>
 8    1  0.2123879E+004  0.1043930E+01  0.7957747E-01            NaN
         13   -1    0    0    0    0  0.00000000000E+00  0.00000000000E+00  0.74505805969E-08  0.10566000000E+00  0.10566000000E+00 0.  1.
     999900   -1    0    0    0    0 -0.00000000000E+00 -0.00000000000E+00 -0.74505805969E-08  0.93827000000E+00  0.93827000000E+00 0. -1.
     999902    2    1    2    0    0  0.73612872627E-02  0.57181586016E-02  0.11648288036E-02  0.10345362407E+01  0.10344935914E+01 0.  0.
     999903    2    3    3    0    0  0.10071465710E-01  0.83603042764E-01  0.10860969543E+00  0.14458242187E+00  0.44912220962E-01 0.  0.
         14    1    1    2    0    0 -0.73612872627E-02 -0.57181586016E-02 -0.11648288036E-02  0.93937593166E-02  0.00000000000E+00 0.  1.
     999901    1    3    3    0    0 -0.27101784470E-02 -0.77884884163E-01 -0.10744486663E+00  0.88995381881E+00  0.88000000000E+00 0. -1.
        -11    1    4    4    0    0 -0.65840068081E-02  0.30203023955E-01  0.12437506061E-01  0.33324532701E-01  0.51100000000E-03 0.  1.
         11    1    4    4    0    0  0.16655472518E-01  0.53400018809E-01  0.96172189372E-01  0.11125788917E+00  0.51100000000E-03 0. -1.
</event>
<event>
 7    1  0.2123879E+004  0.1043930E+01  0.7957747E-01            NaN
         13   -1    0    0    0    0  0.00000000000E+00  0.00000000000E+00  0.74505805969E-08  0.10566000000E+00  0.10566000000E+00 0. -1.
     999900   -1    0    0    0    0 -0.00000000000E+00 -0.00000000000E+00 -0.74505805969E-08  0.93827000000E+00  0.93827000000E+00 0. -1.
     999903    2    1    2    0    0 -0.39877296815E-01 -0.91607475305E-01 -0.34471372536E-02  0.10953641179E+00  0.44768453402E-01 0.  0.
         14    1    1    2    0    0  0.28882838778E-01  0.35950396076E-01  0.24693584602E-01  0.52310825594E-01  0.00000000000E+00 0. -1.
     999901    1    1    2    0    0  0.10994458038E-01  0.55657079229E-01 -0.21246447348E-01  0.88208276261E+00  0.88000000000E+00 0. -1.
        -11    1    3    3    0    0 -0.40819613109E-02 -0.53876294235E-01 -0.15368129810E-01  0.56176133932E-01  0.51100000000E-03 0.  1.
         11    1    3    3    0    0 -0.35795335504E-01 -0.37731181069E-01  0.11920992556E-01  0.53360277860E-01  0.51100000000E-03 0. -1.
</event>
<event>
 8    1  0.2123879E+004  0.1043930E+01  0.7957747E-01            NaN
         13   -1    0    0    0    0  0.00000000000E+00  0.00000000000E+00  0.74505805969E-08  0.10566000000E+00  0.10566000000E+00 0.  1.
     999900   -1    0    0    0    0 -0.00000000000E+00 -0.00000000000E+00 -0.74505805969E-08  0.93827000000E+00  0.93827000000E+00 0.  1.
     999902    2    1    2    0    0 -0.45111177182E-03  0.11028021254E-01  0.74710293347E-02  0.10306019456E+01  0.10305157608E+01 0.  0.
     999903    2    3    3    0    0  0.11250950840E+00 -0.21443749684E-03 -0.69898922900E-01  0.13994342288E+00  0.45164883738E-01 0.  0.
         14    1    1    2    0    0  0.45111177182E-03 -0.11028021254E-01 -0.74710293347E-02  0.13328054394E-01  0.00000000000E+00 0. -1.
     999901    1    3    3    0    0 -0.11296062017E+00  0.11242458750E-01  0.77369952235E-01  0.89065852272E+00  0.88000000000E+00 0. -1.
        -11    1    4    4    0    0  0.60284849789E-01 -0.20369149837E-01 -0.25747627771E-01  0.68646681173E-01  0.51100000000E-03 0.  1.
         11    1    4    4    0    0  0.52224658607E-01  0.20154712341E-01 -0.44151295129E-01  0.71296741712E-01  0.51100000000E-03 0. -1.
</event>
<event>
 8    1  0.2123879E+004  0.1043930E+01  0.7957747E-01            NaN
         13   -1    0    0    0    0  0.00000000000E+00  0.00000000000E+00  0.74505805969E-08  0.10566000000E+00  0.10566000000E+00 0. -1.
     999900   -1    0    0    0    0 -0.00000000000E+00 -0.00000000000E+00 -0.74505805969E-08  0.93827000000E+00  0.93827000000E+00 0. -1.
     999902    2    1    2    0    0  0.84035768885E-02 -0.10616241535E-01  0.25263922467E-02  0.10301565710E+01  0.10300644899E+01 0.  0.
     999903    2    3    3    0    0  0.10481178962E+00 -0.53007489277E-01 -0.65188742890E-01  0.14129387018E+00  0.43807309758E-01 0.  0.
         14    1    1    2    0    0 -0.84035768885E-02  0.10616241535E-01 -0.25263922467E-02  0.13773429008E-01  0.00000000000E+00 0. -1.
     999901    1    3    3    0    0 -0.96408212732E-01  0.42391247743E-01  0.67715135136E-01  0.88886270081E+00  0.88000000000E+00 0.  1.
        -11    1    4    4    0    0  0.37838786985E-01 -0.41900683929E-01 -0.20744114012E-01  0.60149983386E-01  0.51100000000E-03 0. -1.
         11    1    4    4    0    0  0.66973002636E-01 -0.11106805348E-01 -0.44444628878E-01  0.81143886795E-01  0.51100000000E-03 0.  1.
</event>
<event>
 8    1  0.2123879E+004  0.1043930E+01  0.7957747E-01            NaN
         13   -1    0    0    0    0  0.00000000000E+00  0.00000000000E+00  0.74505805969E-08  0.10566000000E+00  0.10566000000E+00 0.  1.
     999900   -1    0    0    0    0 -0.00000000000E+00 -0.00000000000E+00 -0.74505805969E-08  0.93827000000E+00  0.93827000000E+00 0.  1.
     999902    2    1    2    0    0  0.13450554786E-01 -0.26637233721E-02  0.28491705251E-02  0.10299253358E+01  0.10298301155E+01 0.  0.
     999903    2    3    3    0    0  0.99196039544E-01 -0.87331731267E-01  0.21585144620E-01  0.14151552247E+00  0.45760671818E-01 0.  0.
         14    1    1    2    0    0 -0.13450554786E-01  0.26637233721E-02 -0.28491705251E-02  0.14004664185E-01  0.00000000000E+00 0. -1.
     999901    1    3    3    0    0 -0.85745484758E-01  0.84668007895E-01 -0.18735974095E-01  0.88840981334E+00  0.88000000000E+00 0. -1.
        -11    1    4    4    0    0  0.41604513140E-01 -0.11095934198E-01  0.15536323942E-01  0.45778747820E-01  0.51100000000E-03 0.  1.
         11    1    4    4    0    0  0.57591526404E-01 -0.76235797070E-01  0.60488206774E-02  0.95736774653E-01  0.51100000000E-03 0. -1.
</event>
<event>
 8    1  0.2123879E+004  0.1043930E+01  0.7957747E-01            NaN
         13   -1    0    0    0    0  0.00000000000E+00  0.00000000000E+00  0.74505805969E-08  0.10566000000E+00  0.10566000000E+00 0. -1.
     999900   -1    0    0    0    0 -0.00000000000E+00 -0.00000000000E+00 -0.74505805969E-08  0.93827000000E+00  0.93827000000E+00 0.  1.
     999902    2    1    2    0    0  0.25808460005E-02  0.45252512564E-02  0.13029280293E-01  0.10298978651E+01  0.10298022683E+01 0.  0.
     999903    2    3    3    0    0  0.10081329417E+00 -0.77501855622E-01  0.37654449014E-01  0.14029994521E+00  0.45786015200E-01 0.  0.
         14    1    1    2    0    0 -0.25808460005E-02 -0.45252512564E-02 -0.13029280293E-01  0.14032134904E-01  0.00000000000E+00 0.  1.
     999901    1    3    3    0    0 -0.98232448171E-01  0.82027106878E-01 -0.24625168722E-01  0.88959791989E+00  0.88000000000E+00 0. -1.
        -11    1    4    4    0    0  0.89019516642E-01 -0.81415878943E-01  0.26323724440E-01  0.12347558170E+00  0.51100000000E-03 0.  1.
         11    1    4    4    0    0  0.11793777530E-01  0.39140233211E-02  0.11330724574E-01  0.16824363505E-01  0.51100000000E-03 0. -1.
</event>
<event>
 8    1  0.2123879E+004  0.1043930E+01  0.7957747E-01            NaN
         13   -1    0    0    0    0  0.00000000000E+00  0.00000000000E+00  0.74505805969E-08  0.10566000000E+00  0.10566000000E+00 0. -1.
     999900   -1    0    0    0    0 -0.00000000000E+00 -0.00000000000E+00 -0.74505805969E-08  0.93827000000E+00  0.93827000000E+00 0.  1.
     999902    2    1    2    0    0  0.90617220572E-02 -0.81821848101E-02  0.76157217634E-02  0.10295403449E+01  0.10294397795E+01 0.  0.
     999903    2    3    3    0    0  0.35822720333E-01 -0.39039550833E-01  0.12306560237E+00  0.14106018027E+00  0.44107574752E-01 0.  0.
         14    1    1    2    0    0 -0.90617220572E-02  0.81821848101E-02 -0.76157217634E-02  0.14389655065E-01  0.00000000000E+00 0. -1.
     999901    1    3    3    0    0 -0.26760998275E-01  0.30857366022E-01 -0.11544988061E+00  0.88848016466E+00  0.88000000000E+00 0.  1.
        -11    1    4    4    0    0  0.26944927172E-01 -0.43703181982E-01  0.68654869814E-01  0.85730679957E-01  0.51100000000E-03 0. -1.
         11    1    4    4    0    0  0.88777931608E-02  0.46636311494E-02  0.54410732556E-01  0.55329500316E-01  0.51100000000E-03 0.  1.
</event>
<event>
 8    1  0.2123879E+004  0.1043930E+01  0.7957747E-01            NaN
         13   -1    0    0    0    0  0.00000000000E+00  0.00000000000E+00  0.74505805969E-08  0.10566000000E+00  0.10566000000E+00 0.  1.
     999900   -1    0    0    0    0 -0.00000000000E+00 -0.00000000000E+00 -0.74505805969E-08  0.93827000000E+00  0.93827000000E+00 0. -1.
     999902    2    1    2    0    0  0.27231164166E-03  0.30442814498E-02  0.14110309931E-01  0.10294924569E+01  0.10293912163E+01 0.  0.
     999903    2    3    3    0    0 -0.54727163335E-01  0.50886434805E-01  0.11098634036E+00  0.14118013621E+00  0.45048545602E-01 0.  0.
         14    1    1    2    0    0 -0.27231164166E-03 -0.30442814498E-02 -0.14110309931E-01  0.14437543057E-01  0.00000000000E+00 0. -1.
     999901    1    3    3    0    0  0.54999474977E-01 -0.47842153355E-01 -0.96876030431E-01  0.88831232073E+00  0.88000000000E+00 0. -1.
        -11    1    4    4    0    0 -0.18197990816E-01  0.47139392065E-01  0.64481294943E-01  0.81923059468E-01  0.51100000000E-03 0.  1.
         11    1    4    4    0    0 -0.36529172520E-01  0.37470427402E-02  0.46505045418E-01  0.59257076747E-01  0.51100000000E-03 0. -1.
</event>
<event>
 8    1  0.2123879E+004  0.1043930E+01  0.7957747E-01            NaN
         13   -1    0    0    0    0  0.00000000000E+00  0.00000000000E+00  0.74505805969E-08  0.10566000000E+00  0.10566000000E+00 0. -1.
     999900   -1    0    0    0    0 -0.00000000000E+00 -0.00000000000E+00 -0.74505805969E-08  0.93827000000E+00  0.93827000000E+00 0. -1.
     999902    2    1    2    0    0  0.12470733033E-02  0.32463140416E-03 -0.13844151257E-01  0.10300260041E+01  0.10299321570E+01 0.  0.
     999903    2    3    3    0    0  0.10502104514E+00 -0.13575522454E-01 -0.82118286406E-01  0.14119328137E+00  0.44479377337E-01 0.  0.
         14    1    1    2    0    0 -0.12470733033E-02 -0.32463140416E-03  0.13844151257E-01  0.13903995879E-01  0.00000000000E+00 0. -1.
     999901    1    3    3    0    0 -0.10377397184E+00  0.13900153858E-01  0.68274135148E-01  0.88883272275E+00  0.88000000000E+00 0.  1.
        -11    1    4    4    0    0  0.47584915827E-01  0.15659938184E-01 -0.30813704382E-01  0.58815842908E-01  0.51100000000E-03 0.  1.
         11    1    4    4    0    0  0.57436129315E-01 -0.29235460638E-01 -0.51304582024E-01  0.82377438459E-01  0.51100000000E-03 0. -1.
</event>
<event>
 8    1  0.2123879E+004  0.1043930E+01  0.7957747E-01            NaN
         13   -1    0    0    0    0  0.00000000000E+00  0.00000000000E+00  0.74505805969E-08  0.10566000000E+00  0.10566000000E+00 0.  1.
     999900   -1    0    0    0    0 -0.00000000000E+00 -0.00000000000E+00 -0.74505805969E-08  0.93827000000E+00  0.93827000000E+00 0.  1.
     999902    2    1    2    0    0 -0.56394339324E-02  0.13143740352E-01 -0.83483931954E-02  0.10273692997E+01  0.10272358158E+01 0.  0.
     999903    2    3    3    0    0  0.12382625578E+00 -0.29810899461E-01 -0.20184771994E-01  0.13678153549E+00  0.45608465032E-01 0.  0.
         14    1    1    2    0    0  0.56394339324E-02 -0.13143740352E-01  0.83483931954E-02  0.16560700301E-01  0.00000000000E+00 0.  1.
     999901    1    3    3    0    0 -0.12946568972E+00  0.42954639813E-01  0.11836378799E-01  0.89058776421E+00  0.88000000000E+00 0. -1.
        -11    1    4    4    0    0  0.87019346274E-01 -0.38314907979E-01 -0.25960242557E-01  0.98562640560E-01  0.51100000000E-03 0.  1.
         11    1    4    4    0    0  0.36806909510E-01  0.85040085180E-02  0.57754705628E-02  0.38218894931E-01  0.51100000000E-03 0. -1.
</event>
<event>
 8    1  0.2123879E+004  0.1043930E+01  0.7957747E-01            NaN
         13   -1    0    0    0    0  0.00000000000E+00  0.00000000000E+00  0.74505805969E-08  0.10566000000E+00  0.10566000000E+00 0.  1.
     999900   -1    0    0    0    0 -0.00000000000E+00 -0.00000000000E+00 -0.74505805969E-08  0.93827000000E+00  0.93827000000E+00 0. -1.
     999902    2    1    2    0    0  0.67906752168E-02  0.77818122610E-02  0.93662864126E-02  0.10299873606E+01  0.10298929876E+01 0.  0.
     999903    2    3    3    0    0 -0.13085073348E+00  0.93476775582E-02 -0.10289401759E-01  0.13906988104E+00  0.45002960988E-01 0.  0.
         14    1    1    2    0    0 -0.67906752168E-02 -0.77818122610E-02 -0.93662864126E-02  0.13942639389E-01  0.00000000000E+00 0. -1.
     999901    1    3    3    0    0  0.13764140869E+00 -0.15658652972E-02  0.19655688172E-01  0.89091747957E+00  0.88000000000E+00 0. -1.
        -11    1    4    4    0    0 -0.10122723782E+00 -0.60474194729E-02 -0.21849914688E-01  0.10373622729E+00  0.51100000000E-03 0.  1.
         11    1    4    4    0    0 -0.29623495656E-01  0.15395097031E-01  0.11560512929E-01  0.35333653754E-01  0.51100000000E-03 0. -1.
</event>
<event>
 8    1  0.2123879E+004  0.1043930E+01  0.7957747E-01            NaN
         13   -1    0    0    0    0  0.00000000000E+00  0.00000000000E+00  0.74505805969E-08  0.10566000000E+00  0.10566000000E+00 0.  1.
     999900   -1    0    0    0    0 -0.00000000000E+00 -0.00000000000E+00 -0.74505805969E-08  0.93827000000E+00  0.93827000000E+00 0. -1.
     999902    2    1    2    0    0  0.21147077930E-02 -0.56022132026E-02 -0.11387716763E-01  0.10310638866E+01  0.10309836087E+01 0.  0.
     999903    2    3    3    0    0  0.31562124268E-01  0.61711845019E-01  0.11121769884E+00  0.13953126198E+00  0.47906962219E-01 0.  0.
         14    1    1    2    0    0 -0.21147077930E-02  0.56022132026E-02  0.11387716763E-01  0.12866113433E-01  0.00000000000E+00 0. -1.
     999901    1    3    3    0    0 -0.29447416475E-01 -0.67314058221E-01 -0.12260541561E+00  0.89153262459E+00  0.88000000000E+00 0. -1.
        -11    1    4    4    0    0 -0.63709806422E-02  0.18999047091E-01  0.58340180586E-01  0.61687851126E-01  0.51100000000E-03 0. -1.
         11    1    4    4    0    0  0.37933104910E-01  0.42712797928E-01  0.52877518257E-01  0.77843410851E-01  0.51100000000E-03 0.  1.
</event>
<event>
 8    1  0.2123879E+004  0.1043930E+01  0.7957747E-01            NaN
         13   -1    0    0    0    0  0.00000000000E+00  0.00000000000E+00  0.74505805969E-08  0.10566000000E+00  0.10566000000E+00 0. -1.
     999900   -1    0    0    0    0 -0.00000000000E+00 -0.00000000000E+00 -0.74505805969E-08  0.93827000000E+00  0.93827000000E+00 0. -1.
     999902    2    1    2    0    0  0.30491701562E-02  0.12416742407E-01 -0.43238197216E-02  0.10304330245E+01  0.10303446266E+01 0.  0.
     999903    2    3    3    0    0 -0.22911840023E-01 -0.12708745597E+00 -0.19431607802E-01  0.13893785308E+00  0.47433803944E-01 0.  0.
         14    1    1    2    0    0 -0.30491701562E-02 -0.12416742407E-01  0.43238197216E-02  0.13496975499E-01  0.00000000000E+00 0. -1.
     999901    1    3    3    0    0  0.25961010179E-01  0.13950419838E+00  0.15107788081E-01  0.89149517143E+00  0.88000000000E+00 0.  1.
        -11    1    4    4    0    0  0.13494295933E-01 -0.33070488104E-01  0.23222343454E-02  0.35796747052E-01  0.51100000000E-03 0. -1.
         11    1    4    4    0    0 -0.36406135956E-01 -0.94016967869E-01 -0.21753842148E-01  0.10314110602E+00  0.51100000000E-03 0.  1.
</event>
<event>
 8    1  0.2123879E+004  0.1043930E+01  0.7957747E-01            NaN
         13   -1    0    0    0    0  0.00000000000E+00  0.00000000000E+00  0.74505805969E-08  0.10566000000E+00  0.10566000000E+00 0.  1.
     999900   -1    0    0    0    0 -0.00000000000E+00 -0.00000000000E+00 -0.74505805969E-08  0.93827000000E+00  0.93827000000E+00 0.  1.
     999902    2    1    2    0    0  0.10569145659E-01  0.45144607622E-02  0.10230188606E-02  0.10323916395E+01  0.10323271591E+01 0.  0.
     999903    2    3    3    0    0 -0.48695057811E-01  0.84629342252E-01 -0.92381567852E-01  0.14185525231E+00  0.45334581772E-01 0.  0.
         14    1    1    2    0    0 -0.10569145659E-01 -0.45144607622E-02 -0.10230188606E-02  0.11538360521E-01  0.00000000000E+00 0. -1.
     999901    1    3    3    0    0  0.59264203469E-01 -0.80114881490E-01  0.93404586713E-01  0.89053638717E+00  0.88000000000E+00 0. -1.
        -11    1    4    4    0    0 -0.92091759020E-02  0.19643176909E-03  0.17415473195E-02  0.93883765530E-02  0.51100000000E-03 0. -1.
         11    1    4    4    0    0 -0.39485881909E-01  0.84432910483E-01 -0.94123115172E-01  0.13246687576E+00  0.51100000000E-03 0.  1.
</event>
<event>
 8    1  0.2123879E+004  0.1043930E+01  0.7957747E-01            NaN
         13   -1    0    0    0    0  0.00000000000E+00  0.00000000000E+00  0.74505805969E-08  0.10566000000E+00  0.10566000000E+00 0.  1.
     999900   -1    0    0    0    0 -0.00000000000E+00 -0.00000000000E+00 -0.74505805969E-08  0.93827000000E+00  0.93827000000E+00 0. -1.
     999902    2    1    2    0    0 -0.15790496722E-02 -0.92156450653E-02  0.10036438489E-01  0.10302131633E+01  0.10301218424E+01 0.  0.
     999903    2    3    3    0    0  0.13113464453E+00 -0.18715685135E-01 -0.61283147131E-02  0.14006459443E+00  0.45099473467E-01 0.  0.
         14    1    1    2    0    0  0.15790496722E-02  0.92156450653E-02 -0.10036438489E-01  0.13716836712E-01  0.00000000000E+00 0. -1.
     999901    1    3    3    0    0 -0.13271369420E+00  0.95000400697E-02  0.16164753202E-01  0.89014856886E+00  0.88000000000E+00 0.  1.
        -11    1    4    4    0    0  0.36605421062E-01  0.63984605080E-02 -0.18432514007E-01  0.41483922688E-01  0.51100000000E-03 0.  1.
         11    1    4    4    0    0  0.94529223466E-01 -0.25114145643E-01  0.12304199294E-01  0.98580671745E-01  0.51100000000E-03 0. -1.
</event>
<event>
 8    1  0.2123879E+004  0.1043930E+01  0.7957747E-01            NaN
         13   -1    0    0    0    0  0.00000000000E+00  0.00000000000E+00  0.74505805969E-08  0.10566000000E+00  0.10566000000E+00 0. -1.
     999900   -1    0    0    0    0 -0.00000000000E+00 -0.00000000000E+00 -0.74505805969E-08  0.93827000000E+00  0.93827000000E+00 0. -1.
     999902    2    1    2    0    0  0.72787814202E-02  0.94067049940E-02  0.70738498085E-02  0.10300914268E+01  0.10299984667E+01 0.  0.
     999903    2    3    3    0    0  0.21885363348E-01  0.52277257764E-01  0.12111331769E+00  0.14157792842E+00  0.46518741211E-01 0.  0.
         14    1    1    2    0    0 -0.72787814202E-02 -0.94067049940E-02 -0.70738498085E-02  0.13838573226E-01  0.00000000000E+00 0.  1.
     999901    1    3    3    0    0 -0.14606581928E-01 -0.42870552770E-01 -0.11403946788E+00  0.88851349836E+00  0.88000000000E+00 0. -1.
        -11    1    4    4    0    0 -0.11519629882E-01  0.24448132272E-02  0.32442503208E-01  0.34517475570E-01  0.51100000000E-03 0. -1.
         11    1    4    4    0    0  0.33404993230E-01  0.49832444537E-01  0.88670814484E-01  0.10706045285E+00  0.51100000000E-03 0.  1.
</event>
<event>
 8    1  0.2123879E+004  0.1043930E+01  0.7957747E-01            NaN
         13   -1    0    0    0    0  0.00000000000E+00  0.00000000000E+00  0.74505805969E-08  0.10566000000E+00  0.10566000000E+00 0. -1.
     999900   -1    0    0    0    0 -0.00000000000E+00 -0.00000000000E+00 -0.74505805969E-08  0.93827000000E+00  0.93827000000E+00 0. -1.
     999902    2    1    2    0    0 -0.73019103621E-02  0.11952923454E-01  0.55724581827E-02  0.10288554332E+01  0.10287449926E+01 0.  0.
     999903    2    3    3    0    0 -0.17576918777E-01 -0.11376506492E+00 -0.59943512642E-01  0.13745040133E+00  0.45254282098E-01 0.  0.
         14    1    1    2    0    0  0.73019103621E-02 -0.11952923454E-01 -0.55724581827E-02  0.15074566801E-01  0.00000000000E+00 0.  1.
     999901    1    3    3    0    0  0.10275008415E-01  0.12571798838E+00  0.65515970825E-01  0.89140503186E+00  0.88000000000E+00 0. -1.
        -11    1    4    4    0    0 -0.21988960446E-01 -0.79626728666E-01 -0.20534962366E-01  0.85122712010E-01  0.51100000000E-03 0.  1.
         11    1    4    4    0    0  0.44120416690E-02 -0.34138336258E-01 -0.39408550277E-01  0.52327689325E-01  0.51100000000E-03 0. -1.
</event>
<event>
 8    1  0.2123879E+004  0.1043930E+01  0.7957747E-01            NaN
         13   -1    0    0    0    0  0.00000000000E+00  0.00000000000E+00  0.74505805969E-08  0.10566000000E+00  0.10566000000E+00 0. -1.
     999900   -1    0    0    0    0 -0.00000000000E+00 -0.00000000000E+00 -0.74505805969E-08  0.93827000000E+00  0.93827000000E+00 0. -1.
     999902    2    1    2    0    0  0.10155706137E-01 -0.63400663260E-02  0.65994884168E-02  0.10302592994E+01  0.10301685959E+01 0.  0.
     999903    2    3    3    0    0 -0.11625422591E+00 -0.56808542249E-01 -0.29229797552E-01  0.13907453979E+00  0.41774286824E-01 0.  0.
         14    1    1    2    0    0 -0.10155706137E-01  0.63400663260E-02 -0.65994884168E-02  0.13670700623E-01  0.00000000000E+00 0.  1.
     999901    1    3    3    0    0  0.12640993205E+00  0.50468475923E-01  0.35829285969E-01  0.89118475958E+00  0.88000000000E+00 0. -1.
        -11    1    4    4    0    0 -0.85053784747E-01 -0.60593686084E-01 -0.24738646012E-01  0.10732195871E+00  0.51100000000E-03 0. -1.
         11    1    4    4    0    0 -0.31200441161E-01  0.37851438349E-02 -0.44911515403E-02  0.31752581087E-01  0.51100000000E-03 0.  1.
</event>
<event>
 8    1  0.2123879E+004  0.1043930E+01  0.7957747E-01            NaN
         13   -1    0    0    0    0  0.00000000000E+00  0.00000000000E+00  0.74505805969E-08  0.10566000000E+00  0.10566000000E+00 0.  1.
     999900   -1    0    0    0    0 -0.00000000000E+00 -0.00000000000E+00 -0.74505805969E-08  0.93827000000E+00  0.93827000000E+00 0. -1.
     999902    2    1    2    0    0 -0.10408748130E-01 -0.88067341392E-02 -0.45977895987E-02  0.10295411059E+01  0.10294405512E+01 0.  0.
     999903    2    3    3    0    0  0.20546593702E-01  0.10010957020E+00  0.81318671714E-01  0.13813624118E+00  0.44997846618E-01 0.  0.
         14    1    1    2    0    0  0.10408748130E-01  0.88067341392E-02  0.45977895987E-02  0.14388894086E-01  0.00000000000E+00 0. -1.
     999901    1    3    3    0    0 -0.30955341832E-01 -0.10891630434E+00 -0.85916461313E-01  0.89140486473E+00  0.88000000000E+00 0.  1.
        -11    1    4    4    0    0  0.29492402063E-01  0.47814320196E-01  0.27458182583E-01  0.62531783175E-01  0.51100000000E-03 0.  1.
         11    1    4    4    0    0 -0.89458083606E-02  0.52295250007E-01  0.53860489131E-01  0.75604458009E-01  0.51100000000E-03 0. -1.
</event>
<event>
 8    1  0.2123879E+004  0.1043930E+01  0.7957747E-01            NaN
         13   -1    0    0    0    0  0.00000000000E+00  0.00000000000E+00  0.74505805969E-08  0.10566000000E+00  0.10566000000E+00 0. -1.
     999900   -1    0    0    0    0 -0.00000000000E+00 -0.00000000000E+00 -0.74505805969E-08  0.93827000000E+00  0.93827000000E+00 0. -1.
     999902    2    1    2    0    0  0.10569331091E-01 -0.46990168062E-02 -0.44786642609E-02  0.10315263734E+01  0.10314517968E+01 0.  0.
     999903    2    3    3    0    0  0.40137363316E-01  0.28581613603E-01 -0.12596163123E+00  0.14206587394E+00  0.43456454364E-01 0.  0.
         14    1    1    2    0    0 -0.10569331091E-01  0.46990168062E-02  0.44786642609E-02  0.12403626575E-01  0.00000000000E+00 0. -1.
     999901    1    3    3    0    0 -0.29568032225E-01 -0.33280630409E-01  0.12148296696E+00  0.88946049949E+00  0.88000000000E+00 0.  1.
        -11    1    4    4    0    0  0.14016886371E-01  0.35374729436E-01 -0.63645595783E-01  0.74154349635E-01  0.51100000000E-03 0. -1.
         11    1    4    4    0    0  0.26120476945E-01 -0.67931158328E-02 -0.62316035442E-01  0.67911524300E-01  0.51100000000E-03 0.  1.
</event>
<event>
 8    1  0.2123879E+004  0.1043930E+01  0.7957747E-01            NaN
         13   -1    0    0    0    0  0.00000000000E+00  0.00000000000E+00  0.74505805969E-08  0.10566000000E+00  0.10566000000E+00 0. -1.
     999900   -1    0    0    0    0 -0.00000000000E+00 -0.00000000000E+00 -0.74505805969E-08  0.93827000000E+00  0.93827000000E+00 0.  1.
     999902    2    1    2    0    0 -0.33136657250E-02  0.13606013153E-01 -0.14905205100E-02  0.10298471869E+01  0.10297508935E+01 0.  0.
     999903    2    3    3    0    0 -0.11074732859E+00  0.24933500602E-01 -0.68547484462E-01  0.14070887349E+00  0.47048689792E-01 0.  0.
         14    1    1    2    0    0  0.33136657250E-02 -0.13606013153E-01  0.14905205100E-02  0.14082813137E-01  0.00000000000E+00 0.  1.
     999901    1    3    3    0    0  0.10743366287E+00 -0.11327487448E-01  0.67056963952E-01  0.88913831337E+00  0.88000000000E+00 0. -1.
        -11    1    4    4    0    0 -0.87580059823E-01  0.10004979550E-01 -0.29589037734E-01  0.92984615768E-01  0.51100000000E-03 0. -1.
         11    1    4    4    0    0 -0.23167268768E-01  0.14928521052E-01 -0.38958446727E-01  0.47724257725E-01  0.51100000000E-03 0.  1.
</event>
<event>
 8    1  0.2123879E+004  0.1043930E+01  0.7957747E-01            NaN
         13   -1    0    0    0    0  0.00000000000E+00  0.00000000000E+00  0.74505805969E-08  0.10566000000E+00  0.10566000000E+00 0.  1.
     999900   -1    0    0    0    0 -0.00000000000E+00 -0.00000000000E+00 -0.74505805969E-08  0.93827000000E+00  0.93827000000E+00 0. -1.
     999902    2    1    2    0    0  0.10111891178E-04  0.25129062813E-02 -0.22868842393E-01  0.10209235063E+01  0.10206642479E+01 0.  0.
     999903    2    3    3    0    0 -0.29929002060E-02  0.11960847812E+00 -0.38123640192E-01  0.13303100161E+00  0.43916852756E-01 0.  0.
         14    1    1    2    0    0 -0.10111891178E-04 -0.25129062813E-02  0.22868842393E-01  0.23006493705E-01  0.00000000000E+00 0.  1.
     999901    1    3    3    0    0  0.30030120972E-02 -0.11709557184E+00  0.15254797800E-01  0.88789250469E+00  0.88000000000E+00 0.  1.
        -11    1    4    4    0    0  0.17055120504E-01  0.55454730986E-01 -0.30027131613E-01  0.65329886561E-01  0.51100000000E-03 0.  1.
         11    1    4    4    0    0 -0.20048020709E-01  0.64153747137E-01 -0.80965085796E-02  0.67701115045E-01  0.51100000000E-03 0. -1.
</event>
<event>
 8    1  0.2123879E+004  0.1043930E+01  0.7957747E-01            NaN
         13   -1    0    0    0    0  0.00000000000E+00  0.00000000000E+00  0.74505805969E-08  0.10566000000E+00  0.10566000000E+00 0.  1.
     999900   -1    0    0    0    0 -0.00000000000E+00 -0.00000000000E+00 -0.74505805969E-08  0.93827000000E+00  0.93827000000E+00 0. -1.
     999902    2    1    2    0    0  0.12678741691E-01 -0.42414595659E-02  0.34423887361E-02  0.10301245478E+01  0.10300320352E+01 0.  0.
     999903    2    3    3    0    0  0.31826147526E-01  0.12893496091E+00  0.16096516373E-01  0.13980847524E+00  0.40622458061E-01 0.  0.
         14    1    1    2    0    0 -0.12678741691E-01  0.42414595659E-02 -0.34423887361E-02  0.13805452196E-01  0.00000000000E+00 0. -1.
     999901    1    3    3    0    0 -0.19147405835E-01 -0.13317642047E+00 -0.12654127637E-01  0.89031607256E+00  0.88000000000E+00 0. -1.
        -11    1    4    4    0    0  0.34872271310E-02  0.92913071975E-01  0.87995978508E-02  0.93395362520E-01  0.51100000000E-03 0.  1.
         11    1    4    4    0    0  0.28338920395E-01  0.36021888933E-01  0.72969185221E-02  0.46413112720E-01  0.51100000000E-03 0. -1.
</event>
<event>
 8    1  0.2123879E+004  0.1043930E+01  0.7957747E-01            NaN
         13   -1    0    0    0    0  0.00000000000E+00  0.00000000000E+00  0.74505805969E-08  0.10566000000E+00  0.10566000000E+00 0.  1.
     999900   -1    0    0    0    0 -0.00000000000E+00 -0.00000000000E+00 -0.74505805969E-08  0.93827000000E+00  0.93827000000E+00 0.  1.
     999902    2    1    2    0    0  0.13413493558E-01  0.65817421895E-02 -0.84591325409E-02  0.10267603156E+01  0.10266167482E+01 0.  0.
     999903    2    3    3    0    0 -0.12262603402E-01  0.82322862316E-02 -0.12981856103E+00  0.13805896128E+00  0.44601300705E-01 0.  0.
         14    1    1    2    0    0 -0.13413493558E-01 -0.65817421895E-02  0.84591325409E-02  0.17169684418E-01  0.00000000000E+00 0. -1.
     999901    1    3    3    0    0  0.25676096960E-01 -0.16505440422E-02  0.12135942849E+00  0.88870135430E+00  0.88000000000E+00 0. -1.
        -11    1    4    4    0    0  0.18526969395E-02  0.10197860657E-01 -0.12067142040E+00  0.12111681003E+00  0.51100000000E-03 0. -1.
         11    1    4    4    0    0 -0.14115300342E-01 -0.19655744257E-02 -0.91471406221E-02  0.16942151254E-01  0.51100000000E-03 0.  1.
</event>
<event>
 8    1  0.2123879E+004  0.1043930E+01  0.7957747E-01            NaN
         13   -1    0    0    0    0  0.00000000000E+00  0.00000000000E+00  0.74505805969E-08  0.10566000000E+00  0.10566000000E+00 0. -1.
     999900   -1    0    0    0    0 -0.00000000000E+00 -0.00000000000E+00 -0.74505805969E-08  0.93827000000E+00  0.93827000000E+00 0.  1.
     999902    2    1    2    0    0 -0.13502558763E-01  0.60677405248E-02 -0.24280396110E-02  0.10289289352E+01  0.10288195769E+01 0.  0.
     999903    2    3    3    0    0 -0.13308304776E+00  0.59401932653E-02 -0.71507655877E-02  0.14082882050E+00  0.45113631390E-01 0.  0.
         14    1    1    2    0    0  0.13502558763E-01 -0.60677405248E-02  0.24280396110E-02  0.15001064781E-01  0.00000000000E+00 0.  1.
     999901    1    3    3    0    0  0.11958048900E+00  0.12754725956E-03  0.47227259767E-02  0.88810011472E+00  0.88000000000E+00 0.  1.
        -11    1    4    4    0    0 -0.99572966179E-01  0.23777543924E-01 -0.93500167142E-02  0.10279995682E+00  0.51100000000E-03 0.  1.
         11    1    4    4    0    0 -0.33510081586E-01 -0.17837350659E-01  0.21992511265E-02  0.38028863682E-01  0.51100000000E-03 0. -1.
</event>
<event>
 8    1  0.2123879E+004  0.1043930E+01  0.7957747E-01            NaN
         13   -1    0    0    0    0  0.00000000000E+00  0.00000000000E+00  0.74505805969E-08  0.10566000000E+00  0.10566000000E+00 0.  1.
     999900   -1    0    0    0    0 -0.00000000000E+00 -0.00000000000E+00 -0.74505805969E-08  0.93827000000E+00  0.93827000000E+00 0. -1.
     999902    2    1    2    0    0 -0.92668080412E-02 -0.90088038727E-02 -0.57866133325E-02  0.10297695914E+01  0.10296722266E+01 0.  0.
     999903    2    3    3    0    0 -0.13862957981E-01  0.11322521986E+00 -0.66583504690E-01  0.13923124681E+00  0.44043671230E-01 0.  0.
         14    1    1    2    0    0  0.92668080412E-02  0.90088038727E-02  0.57866133325E-02  0.14160408622E-01  0.00000000000E+00 0.  1.
     999901    1    3    3    0    0  0.45961499401E-02 -0.12223402373E+00  0.60796891358E-01  0.89053834457E+00  0.88000000000E+00 0. -1.
        -11    1    4    4    0    0  0.15873524827E-01  0.48802858447E-01 -0.27815528211E-01  0.58375101830E-01  0.51100000000E-03 0. -1.
         11    1    4    4    0    0 -0.29736482809E-01  0.64422361409E-01 -0.38767976479E-01  0.80856144977E-01  0.51100000000E-03 0.  1.
</event>
<event>
 8    1  0.2123879E+004  0.1043930E+01  0.7957747E-01            NaN
         13   -1    0    0    0    0  0.00000000000E+00  0.00000000000E+00  0.74505805969E-08  0.10566000000E+00  0.10566000000E+00 0.  1.
     999900   -1    0    0    0    0 -0.00000000000E+00 -0.00000000000E+00 -0.74505805969E-08  0.93827000000E+00  0.93827000000E+00 0.  1.
     999902    2    1    2    0    0  0.38707697390E-02  0.70018864009E-02  0.10383107736E-01  0.10308220559E+01  0.10307387122E+01 0.  0.
     999903    2    3    3    0    0  0.12262549708E+00  0.53469519612E-01 -0.10527859172E-01  0.14138448378E+00  0.44527905557E-01 0.  0.
         14    1    1    2    0    0 -0.38707697390E-02 -0.70018864009E-02 -0.10383107736E-01  0.13107944072E-01  0.00000000000E+00 0. -1.
     999901    1    3    3    0    0 -0.11875472735E+00 -0.46467633211E-01  0.20910966908E-01  0.88943757214E+00  0.88000000000E+00 0.  1.
        -11    1    4    4    0    0  0.10024706854E+00  0.58451764518E-01 -0.17633806623E-01  0.11737672590E+00  0.51100000000E-03 0. -1.
         11    1    4    4    0    0  0.22378428543E-01 -0.49822449055E-02  0.71059474509E-02  0.24007757883E-01  0.51100000000E-03 0.  1.
</event>
<event>
 8    1  0.2123879E+004  0.1043930E+01  0.7957747E-01            NaN
         13   -1    0    0    0    0  0.00000000000E+00  0.00000000000E+00  0.74505805969E-08  0.10566000000E+00  0.10566000000E+00 0.  1.
     999900   -1    0    0    0    0 -0.00000000000E+00 -0.00000000000E+00 -0.74505805969E-08  0.93827000000E+00  0.93827000000E+00 0.  1.
     999902    2    1    2    0    0  0.11979250021E-01  0.60075763929E-03 -0.57850000662E-02  0.10306134852E+01  0.10305274505E+01 0.  0.
     999903    2    3    3    0    0 -0.90044409874E-01  0.63864634823E-01 -0.72982850871E-01  0.13992459648E+00  0.45450069824E-01 0.  0.
         14    1    1    2    0    0 -0.11979250021E-01 -0.60075763929E-03  0.57850000662E-02  0.13316514806E-01  0.00000000000E+00 0.  1.
     999901    1    3    3    0    0  0.10202365989E+00 -0.63263877184E-01  0.67197850805E-01  0.89068888872E+00  0.88000000000E+00 0. -1.
        -11    1    4    4    0    0 -0.38491778219E-01  0.16729985660E-01 -0.46917425168E-02  0.42234855031E-01  0.51100000000E-03 0.  1.
         11    1    4    4    0    0 -0.51552631655E-01  0.47134649163E-01 -0.68291108354E-01  0.97689741444E-01  0.51100000000E-03 0. -1.
</event>
<event>
 8    1  0.2779906E+004  0.1043930E+01  0.7957747E-01            NaN
         13   -1    0    0    0    0  0.00000000000E+00  0.00000000000E+00  0.74505805969E-08  0.10566000000E+00  0.10566000000E+00 0.  1.
     999900   -1    0    0    0    0 -0.00000000000E+00 -0.00000000000E+00 -0.74505805969E-08  0.93827000000E+00  0.93827000000E+00 0. -1.
     999902    2    1    2    0    0 -0.42178848580E-02  0.29352306873E-02 -0.13117737996E-01  0.10298416650E+01  0.10297452956E+01 0.  0.
     999903    2    3    3    0    0  0.85277480085E-01  0.73021757324E-01  0.68465286761E-01  0.13878760860E+00  0.44385573761E-01 0.  0.
         14    1    1    2    0    0  0.42178848580E-02 -0.29352306873E-02  0.13117737996E-01  0.14088334961E-01  0.00000000000E+00 0.  1.
     999901    1    3    3    0    0 -0.89495364943E-01 -0.70086526637E-01 -0.81583024756E-01  0.89105405644E+00  0.88000000000E+00 0.  1.
        -11    1    4    4    0    0  0.45959818533E-01  0.26159403590E-01  0.54698060936E-01  0.76083889931E-01  0.51100000000E-03 0. -1.
         11    1    4    4    0    0  0.39317661552E-01  0.46862353734E-01  0.13767225824E-01  0.62703718672E-01  0.51100000000E-03 0.  1.
</event>
<event>
 8    1  0.2123879E+004  0.1043930E+01  0.7957747E-01            NaN
         13   -1    0    0    0    0  0.00000000000E+00  0.00000000000E+00  0.74505805969E-08  0.10566000000E+00  0.10566000000E+00 0. -1.
     999900   -1    0    0    0    0 -0.00000000000E+00 -0.00000000000E+00 -0.74505805969E-08  0.93827000000E+00  0.93827000000E+00 0.  1.
     999902    2    1    2    0    0  0.11122823102E-02 -0.12359890130E-01 -0.54372947898E-02  0.10303812646E+01  0.10302921829E+01 0.  0.
     999903    2    3    3    0    0  0.11618282485E+00  0.14857532801E-01  0.62562291872E-01  0.13987244284E+00  0.43943882732E-01 0.  0.
         14    1    1    2    0    0 -0.11122823102E-02  0.12359890130E-01  0.54372947898E-02  0.13548735387E-01  0.00000000000E+00 0. -1.
     999901    1    3    3    0    0 -0.11507054254E+00 -0.27217422930E-01 -0.67999586662E-01  0.89050882177E+00  0.88000000000E+00 0.  1.
        -11    1    4    4    0    0  0.29582521195E-01  0.17606940552E-01  0.34638155631E-01  0.48838436322E-01  0.51100000000E-03 0.  1.
         11    1    4    4    0    0  0.86600303658E-01 -0.27494077519E-02  0.27924136241E-01  0.91034006516E-01  0.51100000000E-03 0. -1.
</event>
<event>
 8    1  0.2123879E+004  0.1043930E+01  0.7957747E-01            NaN
         13   -1    0    0    0    0  0.00000000000E+00  0.00000000000E+00  0.74505805969E-08  0.10566000000E+00  0.10566000000E+00 0. -1.
     999900   -1    0    0    0    0 -0.00000000000E+00 -0.00000000000E+00 -0.74505805969E-08  0.93827000000E+00  0.93827000000E+00 0. -1.
     999902    2    1    2    0    0  0.60836428081E-02 -0.83849561689E-02 -0.97947902248E-02  0.10296732081E+01  0.10295745040E+01 0.  0.
     999903    2    3    3    0    0 -0.11581896899E+00  0.26175912924E-01 -0.56967574817E-01  0.13934744073E+00  0.45532325458E-01 0.  0.
         14    1    1    2    0    0 -0.60836428081E-02  0.83849561689E-02  0.97947902248E-02  0.14256791901E-01  0.00000000000E+00 0. -1.
     999901    1    3    3    0    0  0.12190261180E+00 -0.34560869093E-01  0.47172784592E-01  0.89032576737E+00  0.88000000000E+00 0. -1.
        -11    1    4    4    0    0 -0.35280997387E-01  0.29853520056E-01 -0.25610411718E-01  0.52840663752E-01  0.51100000000E-03 0.  1.
         11    1    4    4    0    0 -0.80537971605E-01 -0.36776071326E-02 -0.31357163099E-01  0.86506776977E-01  0.51100000000E-03 0. -1.
</event>
<event>
 8    1  0.2123879E+004  0.1043930E+01  0.7957747E-01            NaN
         13   -1    0    0    0    0  0.00000000000E+00  0.00000000000E+00  0.74505805969E-08  0.10566000000E+00  0.10566000000E+00 0. -1.
     999900   -1    0    0    0    0 -0.00000000000E+00 -0.00000000000E+00 -0.74505805969E-08  0.93827000000E+00  0.93827000000E+00 0.  1.
     999902    2    1    2    0    0 -0.20612631674E-02 -0.26204920262E-02 -0.10251793591E-01  0.10331496913E+01  0.10330934467E+01 0.  0.
     999903    2    3    3    0    0  0.11422521658E+00 -0.12636659060E-01 -0.72283189773E-01  0.14327848538E+00  0.45790605965E-01 0.  0.
         14    1    1    2    0    0  0.20612631674E-02  0.26204920262E-02  0.10251793591E-01  0.10780308721E-01  0.00000000000E+00 0. -1.
     999901    1    3    3    0    0 -0.11628647975E+00  0.10016167034E-01  0.62031396182E-01  0.88987120590E+00  0.88000000000E+00 0.  1.
        -11    1    4    4    0    0  0.40947057709E-01 -0.25023730920E-02 -0.52636508999E-01  0.66736696103E-01  0.51100000000E-03 0. -1.
         11    1    4    4    0    0  0.73278158870E-01 -0.10134285968E-01 -0.19646680773E-01  0.76541789278E-01  0.51100000000E-03 0.  1.
</event>
<event>
 8    1  0.2123879E+004  0.1043930E+01  0.7957747E-01            NaN
         13   -1    0    0    0    0  0.00000000000E+00  0.00000000000E+00  0.74505805969E-08  0.10566000000E+00  0.10566000000E+00 0. -1.
     999900   -1    0    0    0    0 -0.00000000000E+00 -0.00000000000E+00 -0.74505805969E-08  0.93827000000E+00  0.93827000000E+00 0.  1.
     999902    2    1    2    0    0 -0.74707389111E-02  0.52995748211E-02  0.10844268503E-01  0.10297350857E+01  0.10296372425E+01 0.  0.
     999903    2    3    3    0    0  0.56221919097E-02 -0.90327867669E-01  0.96659125822E-01  0.14030817900E+00  0.46396829305E-01 0.  0.
         14    1    1    2    0    0  0.74707389111E-02 -0.52995748211E-02 -0.10844268503E-01  0.14194914319E-01  0.00000000000E+00 0.  1.
     999901    1    3    3    0    0 -0.13092930821E-01  0.95627442490E-01 -0.85814857320E-01  0.88942690668E+00  0.88000000000E+00 0.  1.
        -11    1    4    4    0    0 -0.10045205400E-01 -0.62926417681E-01  0.85900063584E-01  0.10695663719E+00  0.51100000000E-03 0.  1.
         11    1    4    4    0    0  0.15667397310E-01 -0.27401449988E-01  0.10759062238E-01  0.33351541810E-01  0.51100000000E-03 0. -1.
</event>
<event>
 8    1  0.2123879E+004  0.1043930E+01  0.7957747E-01            NaN
         13   -1    0    0    0    0  0.00000000000E+00  0.00000000000E+00  0.74505805969E-08  0.10566000000E+00  0.10566000000E+00 0. -1.
     999900   -1    0    0    0    0 -0.00000000000E+00 -0.00000000000E+00 -0.74505805969E-08  0.93827000000E+00  0.93827000000E+00 0.  1.
     999902    2    1    2    0    0 -0.40739044450E-02 -0.49440434469E-02 -0.13159576663E-01  0.10292939240E+01  0.10291898597E+01 0.  0.
     999903    2    3    3    0    0  0.16183700075E-01 -0.17157694527E-01 -0.13132681766E+00  0.14108052584E+00  0.45833209613E-01 0.  0.
         14    1    1    2    0    0  0.40739044450E-02  0.49440434469E-02  0.13159576663E-01  0.14636076011E-01  0.00000000000E+00 0. -1.
     999901    1    3    3    0    0 -0.20257604520E-01  0.12213651081E-01  0.11816724100E+00  0.88821339815E+00  0.88000000000E+00 0. -1.
        -11    1    4    4    0    0  0.32275901091E-01 -0.13371720218E-01 -0.92420264535E-01  0.98804367872E-01  0.51100000000E-03 0. -1.
         11    1    4    4    0    0 -0.16092201016E-01 -0.37859743094E-02 -0.38906553127E-01  0.42276157964E-01  0.51100000000E-03 0.  1.
</event>
<event>
 8    1  0.2123879E+004  0.1043930E+01  0.7957747E-01            NaN
         13   -1    0    0    0    0  0.00000000000E+00  0.00000000000E+00  0.74505805969E-08  0.10566000000E+00  0.10566000000E+00 0.  1.
     999900   -1    0    0    0    0 -0.00000000000E+00 -0.00000000000E+00 -0.74505805969E-08  0.93827000000E+00  0.93827000000E+00 0. -1.
     999902    2    1    2    0    0 -0.40840653772E-02  0.11239671857E-01 -0.14980038319E-02  0.10318778704E+01  0.10318074847E+01 0.  0.
     999903    2    3    3    0    0  0.13033333608E+00  0.31510268137E-01  0.10102338805E-01  0.14136481440E+00  0.43615112159E-01 0.  0.
         14    1    1    2    0    0  0.40840653772E-02 -0.11239671857E-01  0.14980038319E-02  0.12052129643E-01  0.00000000000E+00 0. -1.
     999901    1    3    3    0    0 -0.13441740145E+00 -0.20270596280E-01 -0.11600342637E-01  0.89051305596E+00  0.88000000000E+00 0. -1.
        -11    1    4    4    0    0  0.80794983188E-01  0.15198464552E-01 -0.14853385037E-01  0.83544639572E-01  0.51100000000E-03 0. -1.
         11    1    4    4    0    0  0.49538352889E-01  0.16311803585E-01  0.24955723843E-01  0.57820174824E-01  0.51100000000E-03 0.  1.
</event>
<event>
 8    1  0.2123879E+004  0.1043930E+01  0.7957747E-01            NaN
         13   -1    0    0    0    0  0.00000000000E+00  0.00000000000E+00  0.74505805969E-08  0.10566000000E+00  0.10566000000E+00 0. -1.
     999900   -1    0    0    0    0 -0.00000000000E+00 -0.00000000000E+00 -0.74505805969E-08  0.93827000000E+00  0.93827000000E+00 0. -1.
     999902    2    1    2    0    0 -0.11688633044E-01  0.61449771002E-02 -0.50889437952E-02  0.10297778894E+01  0.10296806394E+01 0.  0.
     999903    2    3    3    0    0 -0.13139074413E+00  0.26283314162E-01  0.11483185573E-02  0.14142376435E+00  0.45221922132E-01 0.  0.
         14    1    1    2    0    0  0.11688633044E-01 -0.61449771002E-02  0.50889437952E-02  0.14152110618E-01  0.00000000000E+00 0. -1.
     999901    1    3    3    0    0  0.11970211109E+00 -0.20138337062E-01 -0.62372623525E-02  0.88835412503E+00  0.88000000000E+00 0. -1.
        -11    1    4    4    0    0 -0.51962629705E-01  0.30582110479E-01 -0.99351697741E-02  0.61109320784E-01  0.51100000000E-03 0. -1.
         11    1    4    4    0    0 -0.79428114424E-01 -0.42987963177E-02  0.11083488331E-01  0.80314443566E-01  0.51100000000E-03 0.  1.
</event>
<event>
 8    1  0.2123879E+004  0.1043930E+01  0.7957747E-01            NaN
         13   -1    0    0    0    0  0.00000000000E+00  0.00000000000E+00  0.74505805969E-08  0.10566000000E+00  0.10566000000E+00 0. -1.
     999900   -1    0    0    0    0 -0.00000000000E+00 -0.00000000000E+00 -0.74505805969E-08  0.93827000000E+00  0.93827000000E+00 0.  1.
     999902    2    1    2    0    0 -0.55052893140E-03  0.15232152664E-01 -0.15603991378E-02  0.10286082376E+01  0.10284941177E+01 0.  0.
     999903    2    3    3    0    0 -0.24976683748E-01  0.51702261405E-01  0.11872627424E+00  0.13934135436E+00  0.44979176014E-01 0.  0.
         14    1    1    2    0    0  0.55052893140E-03 -0.15232152664E-01  0.15603991378E-02  0.15321762378E-01  0.00000000000E+00 0. -1.
     999901    1    3    3    0    0  0.24426154817E-01 -0.36470108740E-01 -0.12028667338E+00  0.88926688326E+00  0.88000000000E+00 0.  1.
        -11    1    4    4    0    0 -0.33139756976E-01  0.34345225578E-01  0.10618458992E+00  0.11641849626E+00  0.51100000000E-03 0. -1.
         11    1    4    4    0    0  0.81630732278E-02  0.17357035826E-01  0.12541684317E-01  0.22922858105E-01  0.51100000000E-03 0.  1.
</event>
<event>
 8    1  0.2123879E+004  0.1043930E+01  0.7957747E-01            NaN
         13   -1    0    0    0    0  0.00000000000E+00  0.00000000000E+00  0.74505805969E-08  0.10566000000E+00  0.10566000000E+00 0. -1.
     999900   -1    0    0    0    0 -0.00000000000E+00 -0.00000000000E+00 -0.74505805969E-08  0.93827000000E+00  0.93827000000E+00 0.  1.
     999902    2    1    2    0    0 -0.13248103358E-01 -0.59465341845E-02 -0.12255648493E-01  0.10249280414E+01  0.10247518800E+01 0.  0.
     999903    2    3    3    0    0  0.86928105573E-01  0.22561945698E-01  0.87199340379E-01  0.13322220363E+00  0.45594886184E-01 0.  0.
         14    1    1    2    0    0  0.13248103358E-01  0.59465341845E-02  0.12255648493E-01  0.19001958619E-01  0.00000000000E+00 0. -1.
     999901    1    3    3    0    0 -0.10017620893E+00 -0.28508479883E-01 -0.99454988872E-01  0.89170583775E+00  0.88000000000E+00 0.  1.
        -11    1    4    4    0    0  0.47344231603E-01  0.65366424651E-02  0.16385635711E-01  0.50526766564E-01  0.51100000000E-03 0.  1.
         11    1    4    4    0    0  0.39583873970E-01  0.16025303233E-01  0.70813704668E-01  0.82695437069E-01  0.51100000000E-03 0. -1.
</event>
<event>
 8    1  0.2123879E+004  0.1043930E+01  0.7957747E-01            NaN
         13   -1    0    0    0    0  0.00000000000E+00  0.00000000000E+00  0.74505805969E-08  0.10566000000E+00  0.10566000000E+00 0.  1.
     999900   -1    0    0    0    0 -0.00000000000E+00 -0.00000000000E+00 -0.74505805969E-08  0.93827000000E+00  0.93827000000E+00 0.  1.
     999902    2    1    2    0    0 -0.58087966027E-02 -0.68756414236E-02 -0.10091769775E-01  0.10304074122E+01  0.10303186763E+01 0.  0.
     999903    2    3    3    0    0  0.11480412692E+00 -0.67636566170E-01 -0.17621069448E-02  0.14006548320E+00  0.43133999592E-01 0.  0.
         14    1    1    2    0    0  0.58087966027E-02  0.68756414236E-02  0.10091769775E-01  0.13522587776E-01  0.00000000000E+00 0.  1.
     999901    1    3    3    0    0 -0.12061292353E+00  0.60760924746E-01 -0.83296628302E-02  0.89034192903E+00  0.88000000000E+00 0.  1.
        -11    1    4    4    0    0  0.58226134578E-01 -0.38992988214E-01  0.20234764817E-01  0.72941364849E-01  0.51100000000E-03 0.  1.
         11    1    4    4    0    0  0.56577992346E-01 -0.28643577956E-01 -0.21996871762E-01  0.67124118350E-01  0.51100000000E-03 0. -1.
</event>
<event>
 7    1  0.2123879E+004  0.1043930E+01  0.7957747E-01            NaN
         13   -1    0    0    0    0  0.00000000000E+00  0.00000000000E+00  0.74505805969E-08  0.10566000000E+00  0.10566000000E+00 0. -1.
     999900   -1    0    0    0    0 -0.00000000000E+00 -0.00000000000E+00 -0.74505805969E-08  0.93827000000E+00  0.93827000000E+00 0. -1.
     999902    2    1    2    0    0  0.11595007859E-01  0.16086886915E-02 -0.68390807477E-02  0.10303725256E+01  0.10302833282E+01 0.  0.
         14    1    1    2    0    0 -0.11595007859E-01 -0.16086886915E-02  0.68390807477E-02  0.13557474397E-01  0.00000000000E+00 0. -1.
     999901    1    3    3    0    0  0.26265208749E-01  0.11464960025E+00 -0.83395388513E-01  0.89173380717E+00  0.88000000000E+00 0.  1.
        -11    1    3    3    0    0  0.24081423748E-02 -0.52513765312E-01  0.31708230098E-01  0.61393547494E-01  0.51100000000E-03 0.  1.
         11    1    3    3    0    0 -0.17078343265E-01 -0.60527146248E-01  0.44848077667E-01  0.77245170937E-01  0.51100000000E-03 0. -1.
</event>
<event>
 7    1  0.2123879E+004  0.1043930E+01  0.7957747E-01            NaN
         13   -1    0    0    0    0  0.00000000000E+00  0.00000000000E+00  0.74505805969E-08  0.10566000000E+00  0.10566000000E+00 0.  1.
     999900   -1    0    0    0    0 -0.00000000000E+00 -0.00000000000E+00 -0.74505805969E-08  0.93827000000E+00  0.93827000000E+00 0.  1.
     999903    2    1    2    0    0 -0.96115997890E-01  0.14471593576E-02 -0.14096267494E-01  0.10698860987E+00  0.44804894413E-01 0.  0.
         14    1    1    2    0    0 -0.18690134669E-01 -0.29297455124E-01  0.34285643203E-01  0.48817694954E-01  0.00000000000E+00 0.  1.
     999901    1    1    2    0    0  0.11480613256E+00  0.27850295767E-01 -0.20189375709E-01  0.88812369518E+00  0.88000000000E+00 0.  1.
        -11    1    3    3    0    0 -0.87425648883E-01 -0.80260345313E-02  0.14711322672E-03  0.87794897780E-01  0.51100000000E-03 0. -1.
         11    1    3    3    0    0 -0.86903490077E-02  0.94731938889E-02 -0.14243380721E-01  0.19193712087E-01  0.51100000000E-03 0.  1.
</event>
<event>
 8    1  0.2123879E+004  0.1043930E+01  0.7957747E-01            NaN
         13   -1    0    0    0    0  0.00000000000E+00  0.00000000000E+00  0.74505805969E-08  0.10566000000E+00  0.10566000000E+00 0.  1.
     999900   -1    0    0    0    0 -0.00000000000E+00 -0.00000000000E+00 -0.74505805969E-08  0.93827000000E+00  0.93827000000E+00 0.  1.
     999902    2    1    2    0    0  0.12648087107E-01 -0.32622714020E-02  0.23749440106E-02  0.10306538228E+01  0.10305683119E+01 0.  0.
     999903    2    3    3    0    0 -0.11775607368E+00 -0.34855786322E-01  0.46750580882E-01  0.13937799989E+00  0.46467099244E-01 0.  0.
         14    1    1    2    0    0 -0.12648087107E-01  0.32622714020E-02 -0.23749440106E-02  0.13276177207E-01  0.00000000000E+00 0.  1.
     999901    1    3    3    0    0  0.13040416079E+00  0.31593514920E-01 -0.44375636871E-01  0.89127582290E+00  0.88000000000E+00 0.  1.
        -11    1    4    4    0    0 -0.59059217645E-01 -0.18885916838E-01  0.48184819879E-01  0.78528383604E-01  0.51100000000E-03 0.  1.
         11    1    4    4    0    0 -0.58696856039E-01 -0.15969869485E-01 -0.14342389971E-02  0.60849616290E-01  0.51100000000E-03 0. -1.
</event>
<event>
 8    1  0.2123879E+004  0.1043930E+01  0.7957747E-01            NaN
         13   -1    0    0    0    0  0.00000000000E+00  0.00000000000E+00  0.74505805969E-08  0.10566000000E+00  0.10566000000E+00 0. -1.
     999900   -1    0    0    0    0 -0.00000000000E+00 -0.00000000000E+00 -0.74505805969E-08  0.93827000000E+00  0.93827000000E+00 0. -1.
     999902    2    1    2    0    0 -0.12091052628E-01  0.43879051885E-02 -0.46130819559E-02  0.10302651623E+01  0.10301745370E+01 0.  0.
     999903    2    3    3    0    0  0.10085906639E-01 -0.12979542314E+00 -0.21763624947E-01  0.13965238205E+00  0.45613101879E-01 0.  0.
         14    1    1    2    0    0  0.12091052628E-01 -0.43879051885E-02  0.46130819559E-02  0.13664837750E-01  0.00000000000E+00 0. -1.
     999901    1    3    3    0    0 -0.22176959267E-01  0.13418332832E+00  0.17150542991E-01  0.89061278020E+00  0.88000000000E+00 0. -1.
        -11    1    4    4    0    0 -0.10819235537E-01 -0.10478434071E+00 -0.16282235190E-01  0.10659355618E+00  0.51100000000E-03 0.  1.
         11    1    4    4    0    0  0.20905142176E-01 -0.25011082430E-01 -0.54813897572E-02  0.33058825877E-01  0.51100000000E-03 0. -1.
</event>
<event>
 8    1  0.2123879E+004  0.1043930E+01  0.7957747E-01            NaN
         13   -1    0    0    0    0  0.00000000000E+00  0.00000000000E+00  0.74505805969E-08  0.10566000000E+00  0.10566000000E+00 0.  1.
     999900   -1    0    0    0    0 -0.00000000000E+00 -0.00000000000E+00 -0.74505805969E-08  0.93827000000E+00  0.93827000000E+00 0.  1.
     999902    2    1    2    0    0  0.79472700167E-03 -0.12580496497E-01  0.49145448753E-02  0.10304002833E+01  0.10303114532E+01 0.  0.
     999903    2    3    3    0    0 -0.43675164839E-01 -0.22957870975E-01  0.12791175863E+00  0.14067359729E+00  0.31512840468E-01 0.  0.
         14    1    1    2    0    0 -0.79472700167E-03  0.12580496497E-01 -0.49145448753E-02  0.13529716717E-01  0.00000000000E+00 0.  1.
     999901    1    3    3    0    0  0.44469891841E-01  0.10377374478E-01 -0.12299721376E+00  0.88972668600E+00  0.88000000000E+00 0.  1.
        -11    1    4    4    0    0 -0.29658142873E-01 -0.29678947469E-01  0.80561147939E-01  0.90833942113E-01  0.51100000000E-03 0. -1.
         11    1    4    4    0    0 -0.14017021966E-01  0.67210764936E-02  0.47350610692E-01  0.49839655175E-01  0.51100000000E-03 0.  1.
</event>
<event>
 8    1  0.2123879E+004  0.1043930E+01  0.7957747E-01            NaN
         13   -1    0    0    0    0  0.00000000000E+00  0.00000000000E+00  0.74505805969E-08  0.10566000000E+00  0.10566000000E+00 0. -1.
     999900   -1    0    0    0    0 -0.00000000000E+00 -0.00000000000E+00 -0.74505805969E-08  0.93827000000E+00  0.93827000000E+00 0. -1.
     999902    2    1    2    0    0 -0.42022696979E-02  0.32189705189E-02 -0.12531523544E-01  0.10303263268E+01  0.10302365164E+01 0.  0.
     999903    2    3    3    0    0 -0.12210320046E+00  0.43836100902E-01 -0.33023122937E-01  0.14129860711E+00  0.45210335305E-01 0.  0.
         14    1    1    2    0    0  0.42022696979E-02 -0.32189705189E-02  0.12531523544E-01  0.13603673186E-01  0.00000000000E+00 0. -1.
     999901    1    3    3    0    0  0.11790093076E+00 -0.40617130383E-01  0.20491599393E-01  0.88902771970E+00  0.88000000000E+00 0. -1.
        -11    1    4    4    0    0 -0.46965912187E-01  0.31023895307E-01  0.42497074026E-02  0.56449978933E-01  0.51100000000E-03 0. -1.
         11    1    4    4    0    0 -0.75137288272E-01  0.12812205594E-01 -0.37272830340E-01  0.84848628178E-01  0.51100000000E-03 0.  1.
</event>
<event>
 7    1  0.2123879E+004  0.1043930E+01  0.7957747E-01            NaN
         13   -1    0    0    0    0  0.00000000000E+00  0.00000000000E+00  0.74505805969E-08  0.10566000000E+00  0.10566000000E+00 0. -1.
     999900   -1    0    0    0    0 -0.00000000000E+00 -0.00000000000E+00 -0.74505805969E-08  0.93827000000E+00  0.93827000000E+00 0.  1.
     999903    2    1    2    0    0 -0.12807383637E-01  0.12698232677E-01  0.10223638568E+00  0.11305404439E+00  0.44762307875E-01 0.  0.
         14    1    1    2    0    0  0.39152582868E-01 -0.21014714299E-01  0.73066742840E-03  0.44441836564E-01  0.00000000000E+00 0. -1.
     999901    1    1    2    0    0 -0.26345199231E-01  0.83164816218E-02 -0.10296705311E+00  0.88643411905E+00  0.88000000000E+00 0.  1.
        -11    1    3    3    0    0  0.95707915743E-02  0.78539769839E-02  0.80602774207E-01  0.81549698569E-01  0.51100000000E-03 0.  1.
         11    1    3    3    0    0 -0.22378175211E-01  0.48442556935E-02  0.21633611474E-01  0.31504345817E-01  0.51100000000E-03 0. -1.
</event>
<event>
 8    1  0.2123879E+004  0.1043930E+01  0.7957747E-01            NaN
         13   -1    0    0    0    0  0.00000000000E+00  0.00000000000E+00  0.74505805969E-08  0.10566000000E+00  0.10566000000E+00 0.  1.
     999900   -1    0    0    0    0 -0.00000000000E+00 -0.00000000000E+00 -0.74505805969E-08  0.93827000000E+00  0.93827000000E+00 0. -1.
     999902    2    1    2    0    0 -0.65993596097E-02 -0.95121644265E-02 -0.62759998029E-02  0.10307610595E+01  0.10306769333E+01 0.  0.
     999903    2    3    3    0    0 -0.12175076572E+00 -0.53251824522E-01 -0.20226025205E-01  0.14207235847E+00  0.46004969054E-01 0.  0.
         14    1    1    2    0    0  0.65993596097E-02  0.95121644265E-02  0.62759998029E-02  0.13168940461E-01  0.00000000000E+00 0.  1.
     999901    1    3    3    0    0  0.11515140611E+00  0.43739660096E-01  0.13950025402E-01  0.88868870107E+00  0.88000000000E+00 0. -1.
        -11    1    4    4    0    0 -0.60574589641E-01 -0.17665844728E-01 -0.31298856833E-01  0.70436088337E-01  0.51100000000E-03 0. -1.
         11    1    4    4    0    0 -0.61176176080E-01 -0.35585979794E-01  0.11072831628E-01  0.71636270136E-01  0.51100000000E-03 0.  1.
</event>
<event>
 8    1  0.2627825E+004  0.1043930E+01  0.7957747E-01            NaN
         13   -1    0    0    0    0  0.00000000000E+00  0.00000000000E+00  0.74505805969E-08  0.10566000000E+00  0.10566000000E+00 0. -1.
     999900   -1    0    0    0    0 -0.00000000000E+00 -0.00000000000E+00 -0.74505805969E-08  0.93827000000E+00  0.93827000000E+00 0. -1.
     999902    2    1    2    0    0 -0.11848216483E-01  0.13534974644E-01 -0.34109148636E-02  0.10256212558E+01  0.10254578247E+01 0.  0.
     999903    2    3    3    0    0 -0.51753438457E-01  0.61649208360E-01 -0.10241640111E+00  0.13786594466E+00  0.45153695275E-01 0.  0.
         14    1    1    2    0    0  0.11848216483E-01 -0.13534974644E-01  0.34109148636E-02  0.18308744158E-01  0.00000000000E+00 0. -1.
     999901    1    3    3    0    0  0.39905221974E-01 -0.48114233716E-01  0.99005486246E-01  0.88775531118E+00  0.88000000000E+00 0.  1.
        -11    1    4    4    0    0 -0.46658852336E-01  0.35883539376E-01 -0.42985777066E-01  0.72888373905E-01  0.51100000000E-03 0.  1.
         11    1    4    4    0    0 -0.50945861201E-02  0.25765668984E-01 -0.59430624043E-01  0.64977570754E-01  0.51100000000E-03 0. -1.
</event>
<event>
 8    1  0.2123879E+004  0.1043930E+01  0.7957747E-01            NaN
         13   -1    0    0    0    0  0.00000000000E+00  0.00000000000E+00  0.74505805969E-08  0.10566000000E+00  0.10566000000E+00 0. -1.
     999900   -1    0    0    0    0 -0.00000000000E+00 -0.00000000000E+00 -0.74505805969E-08  0.93827000000E+00  0.93827000000E+00 0.  1.
     999902    2    1    2    0    0  0.55489036547E-02 -0.12157810344E-01  0.35234993146E-02  0.10301090835E+01  0.10300163621E+01 0.  0.
     999903    2    3    3    0    0  0.10038120898E+00 -0.87948050358E-01  0.16745918072E-01  0.14167666689E+00  0.44503994099E-01 0.  0.
         14    1    1    2    0    0 -0.55489036547E-02  0.12157810344E-01 -0.35234993146E-02  0.13820916452E-01  0.00000000000E+00 0. -1.
     999901    1    3    3    0    0 -0.94832305324E-01  0.75790240014E-01 -0.13222418758E-01  0.88843241666E+00  0.88000000000E+00 0. -1.
        -11    1    4    4    0    0  0.24723339674E-01 -0.15766689534E-01  0.22479079514E-01  0.36951348559E-01  0.51100000000E-03 0.  1.
         11    1    4    4    0    0  0.75657869304E-01 -0.72181360825E-01 -0.57331614421E-02  0.10472531833E+00  0.51100000000E-03 0. -1.
</event>
<event>
 8    1  0.2123879E+004  0.1043930E+01  0.7957747E-01            NaN
         13   -1    0    0    0    0  0.00000000000E+00  0.00000000000E+00  0.74505805969E-08  0.10566000000E+00  0.10566000000E+00 0. -1.
     999900   -1    0    0    0    0 -0.00000000000E+00 -0.00000000000E+00 -0.74505805969E-08  0.93827000000E+00  0.93827000000E+00 0.  1.
     999902    2    1    2    0    0  0.21101367315E-02 -0.10707630367E-01 -0.92451661210E-02  0.10296268842E+01  0.10295275332E+01 0.  0.
     999903    2    3    3    0    0  0.28695385771E-01 -0.12460583966E+00 -0.40324612547E-01  0.14134454758E+00  0.44745573115E-01 0.  0.
         14    1    1    2    0    0 -0.21101367315E-02  0.10707630367E-01  0.92451661210E-02  0.14303115804E-01  0.00000000000E+00 0. -1.
     999901    1    3    3    0    0 -0.26585249040E-01  0.11389820929E+00  0.31079446426E-01  0.88828233661E+00  0.88000000000E+00 0.  1.
        -11    1    4    4    0    0  0.22821037192E-01 -0.42703346437E-01  0.29760001468E-02  0.48512815145E-01  0.51100000000E-03 0. -1.
         11    1    4    4    0    0  0.58743485787E-02 -0.81902493221E-01 -0.43300612693E-01  0.92831732439E-01  0.51100000000E-03 0.  1.
</event>
<event>
 8    1  0.2123879E+004  0.1043930E+01  0.7957747E-01            NaN
         13   -1    0    0    0    0  0.00000000000E+00  0.00000000000E+00  0.74505805969E-08  0.10566000000E+00  0.10566000000E+00 0. -1.
     999900   -1    0    0    0    0 -0.00000000000E+00 -0.00000000000E+00 -0.74505805969E-08  0.93827000000E+00  0.93827000000E+00 0. -1.
     999902    2    1    2    0    0 -0.49907688416E-02 -0.12533066184E-01  0.28143241884E-02  0.10301493635E+01  0.10300571854E+01 0.  0.
     999903    2    3    3    0    0 -0.45752786842E-01  0.43266623892E-02  0.12602466114E+00  0.14047156807E+00  0.41689431605E-01 0.  0.
         14    1    1    2    0    0  0.49907688416E-02  0.12533066184E-01 -0.28143241884E-02  0.13780636496E-01  0.00000000000E+00 0. -1.
     999901    1    3    3    0    0  0.40762018001E-01 -0.16859728573E-01 -0.12321033696E+00  0.88967779544E+00  0.88000000000E+00 0. -1.
        -11    1    4    4    0    0 -0.22818325108E-01  0.15764614215E-01  0.10065141652E+00  0.10440386866E+00  0.51100000000E-03 0.  1.
         11    1    4    4    0    0 -0.22934461734E-01 -0.11437951826E-01  0.25373244625E-01  0.36067699412E-01  0.51100000000E-03 0. -1.
</event>
<event>
 8    1  0.2123879E+004  0.1043930E+01  0.7957747E-01            NaN
         13   -1    0    0    0    0  0.00000000000E+00  0.00000000000E+00  0.74505805969E-08  0.10566000000E+00  0.10566000000E+00 0.  1.
     999900   -1    0    0    0    0 -0.00000000000E+00 -0.00000000000E+00 -0.74505805969E-08  0.93827000000E+00  0.93827000000E+00 0.  1.
     999902    2    1    2    0    0  0.11174448927E-01 -0.75360907670E-02  0.15576860024E-02  0.10303621203E+01  0.10302727851E+01 0.  0.
     999903    2    3    3    0    0 -0.61070611558E-01 -0.71269479309E-01  0.94320792578E-01  0.14025747058E+00  0.44348482090E-01 0.  0.
         14    1    1    2    0    0 -0.11174448927E-01  0.75360907670E-02 -0.15576860024E-02  0.13567879663E-01  0.00000000000E+00 0. -1.
     999901    1    3    3    0    0  0.72245060484E-01  0.63733388542E-01 -0.92763106576E-01  0.89010464976E+00  0.88000000000E+00 0.  1.
        -11    1    4    4    0    0 -0.21998970999E-01 -0.43520071623E-02  0.39193530419E-01  0.45158483578E-01  0.51100000000E-03 0. -1.
         11    1    4    4    0    0 -0.39071640558E-01 -0.66917472147E-01  0.55127262159E-01  0.95098987001E-01  0.51100000000E-03 0.  1.
</event>
<event>
 8    1  0.2123879E+004  0.1043930E+01  0.7957747E-01            NaN
         13   -1    0    0    0    0  0.00000000000E+00  0.00000000000E+00  0.74505805969E-08  0.10566000000E+00  0.10566000000E+00 0.  1.
     999900   -1    0    0    0    0 -0.00000000000E+00 -0.00000000000E+00 -0.74505805969E-08  0.93827000000E+00  0.93827000000E+00 0.  1.
     999902    2    1    2    0    0 -0.92877777028E-02 -0.12952911359E-01  0.17794109760E-03  0.10279903516E+01  0.10278667670E+01 0.  0.
     999903    2    3    3    0    0 -0.10761957627E+00  0.44203021817E-01  0.60561149995E-01  0.13861862101E+00  0.44850739862E-01 0.  0.
         14    1    1    2    0    0  0.92877777028E-02  0.12952911359E-01 -0.17794109760E-03  0.15939648376E-01  0.00000000000E+00 0.  1.
     999901    1    3    3    0    0  0.98331798568E-01 -0.57155933176E-01 -0.60383208898E-01  0.88937173062E+00  0.88000000000E+00 0.  1.
        -11    1    4    4    0    0 -0.84113482320E-01  0.48941506064E-01  0.60583786396E-01  0.11463422359E+00  0.51100000000E-03 0.  1.
         11    1    4    4    0    0 -0.23506093950E-01 -0.47384842474E-02 -0.22636401017E-04  0.23984397411E-01  0.51100000000E-03 0. -1.
</event>
<event>
 8    1  0.2123879E+004  0.1043930E+01  0.7957747E-01            NaN
         13   -1    0    0    0    0  0.00000000000E+00  0.00000000000E+00  0.74505805969E-08  0.10566000000E+00  0.10566000000E+00 0.  1.
     999900   -1    0    0    0    0 -0.00000000000E+00 -0.00000000000E+00 -0.74505805969E-08  0.93827000000E+00  0.93827000000E+00 0.  1.
     999902    2    1    2    0    0  0.12040133996E-02 -0.42675184545E-03 -0.14185380752E-01  0.10296872196E+01  0.10295887108E+01 0.  0.
     999903    2    3    3    0    0 -0.78023103980E-01  0.18975707698E-01 -0.10809764273E+00  0.14093927758E+00  0.41606458182E-01 0.  0.
         14    1    1    2    0    0 -0.12040133996E-02  0.42675184545E-03  0.14185380752E-01  0.14242780364E-01  0.00000000000E+00 0.  1.
     999901    1    3    3    0    0  0.79227117380E-01 -0.19402459543E-01  0.93912261980E-01  0.88874794206E+00  0.88000000000E+00 0. -1.
        -11    1    4    4    0    0 -0.26515048168E-01 -0.23300777130E-02 -0.65749390331E-01  0.70934621247E-01  0.51100000000E-03 0. -1.
         11    1    4    4    0    0 -0.51508055812E-01  0.21305785411E-01 -0.42348252401E-01  0.70004656330E-01  0.51100000000E-03 0.  1.
</event>
<event>
 8    1  0.2123879E+004  0.1043930E+01  0.7957747E-01            NaN
         13   -1    0    0    0    0  0.00000000000E+00  0.00000000000E+00  0.74505805969E-08  0.10566000000E+00  0.10566000000E+00 0. -1.
     999900   -1    0    0    0    0 -0.00000000000E+00 -0.00000000000E+00 -0.74505805969E-08  0.93827000000E+00  0.93827000000E+00 0. -1.
     999902    2    1    2    0    0 -0.94862916713E-02  0.74378738738E-02  0.83167449683E-02  0.10292848662E+01  0.10291806721E+01 0.  0.
     999903    2    3    3    0    0  0.11098268231E+00 -0.14856622855E-01 -0.66303498420E-01  0.13766947882E+00  0.44931686800E-01 0.  0.
         14    1    1    2    0    0  0.94862916713E-02 -0.74378738738E-02 -0.83167449683E-02  0.14645133810E-01  0.00000000000E+00 0.  1.
     999901    1    3    3    0    0 -0.12046897399E+00  0.22294496729E-01  0.74620243388E-01  0.89161538737E+00  0.88000000000E+00 0.  1.
        -11    1    4    4    0    0  0.56716859362E-01  0.12489242619E-01 -0.20565362038E-01  0.61611513160E-01  0.51100000000E-03 0.  1.
         11    1    4    4    0    0  0.54265822952E-01 -0.27345865474E-01 -0.45738136382E-01  0.76057965657E-01  0.51100000000E-03 0. -1.
</event>
<event>
 8    1  0.2123879E+004  0.1043930E+01  0.7957747E-01            NaN
         13   -1    0    0    0    0  0.00000000000E+00  0.00000000000E+00  0.74505805969E-08  0.10566000000E+00  0.10566000000E+00 0.  1.
     999900   -1    0    0    0    0 -0.00000000000E+00 -0.00000000000E+00 -0.74505805969E-08  0.93827000000E+00  0.93827000000E+00 0.  1.
     999902    2    1    2    0    0 -0.11659470779E-02 -0.26274079429E-02 -0.12899009328E-01  0.10307145868E+01  0.10306298619E+01 0.  0.
     999903    2    3    3    0    0  0.37826545622E-02  0.55383984194E-02  0.13097689562E+00  0.13897951116E+00  0.45993206078E-01 0.  0.
         14    1    1    2    0    0  0.11659470779E-02  0.26274079429E-02  0.12899009328E-01  0.13215413226E-01  0.00000000000E+00 0.  1.
     999901    1    3    3    0    0 -0.49486016402E-02 -0.81658063623E-02 -0.14387590494E+00  0.89173507561E+00  0.88000000000E+00 0.  1.
        -11    1    4    4    0    0  0.17381801185E-01  0.83381182736E-03  0.17828641334E-01  0.24918744499E-01  0.51100000000E-03 0.  1.
         11    1    4    4    0    0 -0.13599146623E-01  0.47045865921E-02  0.11314825428E+00  0.11406076666E+00  0.51100000000E-03 0. -1.
</event>
<event>
 8    1  0.2123879E+004  0.1043930E+01  0.7957747E-01            NaN
         13   -1    0    0    0    0  0.00000000000E+00  0.00000000000E+00  0.74505805969E-08  0.10566000000E+00  0.10566000000E+00 0.  1.
     999900   -1    0    0    0    0 -0.00000000000E+00 -0.00000000000E+00 -0.74505805969E-08  0.93827000000E+00  0.93827000000E+00 0.  1.
     999902    2    1    2    0    0 -0.13158580274E-01  0.45229989501E-04 -0.81205137376E-03  0.10307463090E+01  0.10306619930E+01 0.  0.
     999903    2    3    3    0    0  0.83994431361E-01  0.43428289351E-01 -0.92872058931E-01  0.13956964723E+00  0.43742271126E-01 0.  0.
         14    1    1    2    0    0  0.13158580274E-01 -0.45229989501E-04  0.81205137376E-03  0.13183690986E-01  0.00000000000E+00 0. -1.
     999901    1    3    3    0    0 -0.97153011636E-01 -0.43383059362E-01  0.92060007557E-01  0.89117666178E+00  0.88000000000E+00 0. -1.
        -11    1    4    4    0    0  0.17765407668E-01 -0.21909291567E-02 -0.38591177729E-01  0.42543507139E-01  0.51100000000E-03 0.  1.
         11    1    4    4    0    0  0.66229023693E-01  0.45619218508E-01 -0.54280881201E-01  0.97026140095E-01  0.51100000000E-03 0. -1.
</event>
<event>
 7    1  0.2123879E+004  0.1043930E+01  0.7957747E-01            NaN
         13   -1    0    0    0    0  0.00000000000E+00  0.00000000000E+00  0.74505805969E-08  0.10566000000E+00  0.10566000000E+00 0. -1.
     999900   -1    0    0    0    0 -0.00000000000E+00 -0.00000000000E+00 -0.74505805969E-08  0.93827000000E+00  0.93827000000E+00 0.  1.
     999903    2    1    2    0    0  0.65538375723E-01  0.33488800210E-01 -0.84458540579E-01  0.12091789409E+00  0.45509489142E-01 0.  0.
         14    1    1    2    0    0 -0.30649820809E-01 -0.13364544369E-01  0.21693721010E-01  0.39857748219E-01  0.00000000000E+00 0. -1.
     999901    1    1    2    0    0 -0.34888554914E-01 -0.20124255841E-01  0.62764819570E-01  0.88315435769E+00  0.88000000000E+00 0. -1.
        -11    1    3    3    0    0  0.21060034116E-02  0.18571821963E-01 -0.76805351104E-02  0.20213845798E-01  0.51100000000E-03 0. -1.
         11    1    3    3    0    0  0.63432372312E-01  0.14916978247E-01 -0.76778005469E-01  0.10070404829E+00  0.51100000000E-03 0.  1.
</event>
<event>
 8    1  0.2123879E+004  0.1043930E+01  0.7957747E-01            NaN
         13   -1    0    0    0    0  0.00000000000E+00  0.00000000000E+00  0.74505805969E-08  0.10566000000E+00  0.10566000000E+00 0.  1.
     999900   -1    0    0    0    0 -0.00000000000E+00 -0.00000000000E+00 -0.74505805969E-08  0.93827000000E+00  0.93827000000E+00 0.  1.
     999902    2    1    2    0    0 -0.26647459785E-02 -0.24558568767E-02  0.14146649306E-01  0.10293265829E+01  0.10292229858E+01 0.  0.
     999903    2    3    3    0    0 -0.56833863963E-02 -0.12037042994E+00  0.56596513461E-01  0.14044247927E+00  0.44716701159E-01 0.  0.
         14    1    1    2    0    0  0.26647459785E-02  0.24558568767E-02 -0.14146649306E-01  0.14603417090E-01  0.00000000000E+00 0. -1.
     999901    1    3    3    0    0  0.30186404178E-02  0.11791457307E+00 -0.42449864155E-01  0.88888410364E+00  0.88000000000E+00 0.  1.
        -11    1    4    4    0    0  0.80324238706E-02 -0.57734566634E-01  0.56899474522E-02  0.58569929492E-01  0.51100000000E-03 0.  1.
         11    1    4    4    0    0 -0.13715810267E-01 -0.62635863310E-01  0.50906566009E-01  0.81872549781E-01  0.51100000000E-03 0. -1.
</event>
<event>
 8    1  0.2123879E+004  0.1043930E+01  0.7957747E-01            NaN
         13   -1    0    0    0    0  0.00000000000E+00  0.00000000000E+00  0.74505805969E-08  0.10566000000E+00  0.10566000000E+00 0. -1.
     999900   -1    0    0    0    0 -0.00000000000E+00 -0.00000000000E+00 -0.74505805969E-08  0.93827000000E+00  0.93827000000E+00 0. -1.
     999902    2    1    2    0    0 -0.11897275765E-01 -0.14357615897E-01  0.13371019730E-01  0.10209850556E+01  0.10207271983E+01 0.  0.
     999903    2    3    3    0    0 -0.12058528360E+00  0.32042858763E-01  0.11998853325E-02  0.13300182174E+00  0.46048772448E-01 0.  0.
         14    1    1    2    0    0  0.11897275765E-01  0.14357615897E-01 -0.13371019730E-01  0.22944944400E-01  0.00000000000E+00 0.  1.
     999901    1    3    3    0    0  0.10868800783E+00 -0.46400474661E-01  0.12171134397E-01  0.88798323386E+00  0.88000000000E+00 0. -1.
        -11    1    4    4    0    0 -0.44265579597E-01  0.94049804542E-02 -0.21665434817E-01  0.50175166977E-01  0.51100000000E-03 0. -1.
         11    1    4    4    0    0 -0.76319704003E-01  0.22637878309E-01  0.22865320149E-01  0.82826654768E-01  0.51100000000E-03 0.  1.
</event>
<event>
 8    1  0.2123879E+004  0.1043930E+01  0.7957747E-01            NaN
         13   -1    0    0    0    0  0.00000000000E+00  0.00000000000E+00  0.74505805969E-08  0.10566000000E+00  0.10566000000E+00 0.  1.
     999900   -1    0    0    0    0 -0.00000000000E+00 -0.00000000000E+00 -0.74505805969E-08  0.93827000000E+00  0.93827000000E+00 0. -1.
     999902    2    1    2    0    0 -0.12817240029E-01  0.43936521131E-02  0.50340735413E-02  0.10294756679E+01  0.10293741900E+01 0.  0.
     999903    2    3    3    0    0  0.33687935894E-01  0.12670786860E+00 -0.17924277594E-01  0.13950342964E+00  0.44160685734E-01 0.  0.
         14    1    1    2    0    0  0.12817240029E-01 -0.43936521131E-02 -0.50340735413E-02  0.14454332128E-01  0.00000000000E+00 0. -1.
     999901    1    3    3    0    0 -0.46505175923E-01 -0.12231421648E+00  0.22958351135E-01  0.88997223823E+00  0.88000000000E+00 0.  1.
        -11    1    4    4    0    0  0.32441169457E-01  0.11971582930E+00 -0.42747686990E-02  0.12410819485E+00  0.51100000000E-03 0. -1.
         11    1    4    4    0    0  0.12467664368E-02  0.69920392960E-02 -0.13649508895E-01  0.15395234787E-01  0.51100000000E-03 0.  1.
</event>
<event>
 7    1  0.2123879E+004  0.1043930E+01  0.7957747E-01            NaN
         13   -1    0    0    0    0  0.00000000000E+00  0.00000000000E+00  0.74505805969E-08  0.10566000000E+00  0.10566000000E+00 0.  1.
     999900   -1    0    0    0    0 -0.00000000000E+00 -0.00000000000E+00 -0.74505805969E-08  0.93827000000E+00  0.93827000000E+00 0.  1.
     999903    2    1    2    0    0  0.77961893583E-01  0.56497977410E-02 -0.92757435681E-01  0.12936831637E+00  0.44969348898E-01 0.  0.
         14    1    1    2    0    0 -0.23960100759E-01 -0.12525575757E-01  0.10672060288E-01  0.29066636325E-01  0.00000000000E+00 0.  1.
     999901    1    1    2    0    0 -0.54001792824E-01  0.68757780159E-02  0.82085375393E-01  0.88549504731E+00  0.88000000000E+00 0. -1.
        -11    1    3    3    0    0  0.37169177687E-01 -0.16425001008E-01 -0.60449263535E-01  0.72840256802E-01  0.51100000000E-03 0. -1.
         11    1    3    3    0    0  0.40792715896E-01  0.22074798749E-01 -0.32308172147E-01  0.56528059567E-01  0.51100000000E-03 0.  1.
</event>
<event>
 8    1  0.2123879E+004  0.1043930E+01  0.7957747E-01            NaN
         13   -1    0    0    0    0  0.00000000000E+00  0.00000000000E+00  0.74505805969E-08  0.10566000000E+00  0.10566000000E+00 0.  1.
     999900   -1    0    0    0    0 -0.00000000000E+00 -0.00000000000E+00 -0.74505805969E-08  0.93827000000E+00  0.93827000000E+00 0. -1.
     999902    2    1    2    0    0  0.19399308008E-02 -0.13672061790E-01  0.59287983430E-02  0.10289020509E+01  0.10287922973E+01 0.  0.
     999903    2    3    3    0    0  0.61025097168E-01  0.11277401810E+00  0.22537170841E-01  0.13774802039E+00  0.44995015396E-01 0.  0.
         14    1    1    2    0    0 -0.19399308008E-02  0.13672061790E-01 -0.59287983430E-02  0.15027949125E-01  0.00000000000E+00 0. -1.
     999901    1    3    3    0    0 -0.59085166368E-01 -0.12644607989E+00 -0.16608372498E-01  0.89115403048E+00  0.88000000000E+00 0. -1.
        -11    1    4    4    0    0  0.21054627574E-01  0.44484958778E-01  0.31001259898E-01  0.58168274308E-01  0.51100000000E-03 0.  1.
         11    1    4    4    0    0  0.39970469594E-01  0.68289059322E-01 -0.84640890568E-02  0.79579746086E-01  0.51100000000E-03 0. -1.
</event>
<event>
 8    1  0.2123879E+004  0.1043930E+01  0.7957747E-01            NaN
         13   -1    0    0    0    0  0.00000000000E+00  0.00000000000E+00  0.74505805969E-08  0.10566000000E+00  0.10566000000E+00 0.  1.
     999900   -1    0    0    0    0 -0.00000000000E+00 -0.00000000000E+00 -0.74505805969E-08  0.93827000000E+00  0.93827000000E+00 0.  1.
     999902    2    1    2    0    0  0.65160527597E-02 -0.85878381194E-02  0.10676479776E-01  0.10287577514E+01  0.10286458642E+01 0.  0.
     999903    2    3    3    0    0  0.51849626416E-02 -0.19949494796E-01  0.13137732753E+00  0.14044499471E+00  0.45165563983E-01 0.  0.
         14    1    1    2    0    0 -0.65160527597E-02  0.85878381194E-02 -0.10676479776E-01  0.15172248599E-01  0.00000000000E+00 0. -1.
     999901    1    3    3    0    0  0.13310901181E-02  0.11361656677E-01 -0.12070084776E+00  0.88831275669E+00  0.88000000000E+00 0.  1.
        -11    1    4    4    0    0  0.22058277239E-01 -0.16361146458E-01  0.10768630221E+00  0.11113440292E+00  0.51100000000E-03 0. -1.
         11    1    4    4    0    0 -0.16873314597E-01 -0.35883483380E-02  0.23691025326E-01  0.29310591794E-01  0.51100000000E-03 0.  1.
</event>
<event>
 8    1  0.2123879E+004  0.1043930E+01  0.7957747E-01            NaN
         13   -1    0    0    0    0  0.00000000000E+00  0.00000000000E+00  0.74505805969E-08  0.10566000000E+00  0.10566000000E+00 0.  1.
     999900   -1    0    0    0    0 -0.00000000000E+00 -0.00000000000E+00 -0.74505805969E-08  0.93827000000E+00  0.93827000000E+00 0. -1.
     999902    2    1    2    0    0  0.20124621302E-01 -0.55373389781E-02 -0.12956813512E-03  0.10230570679E+01  0.10228441157E+01 0.  0.
     999903    2    3    3    0    0  0.90711799980E-01  0.87991237969E-01  0.16679016086E-01  0.13513101639E+00  0.44845438974E-01 0.  0.
         14    1    1    2    0    0 -0.20124621302E-01  0.55373389781E-02  0.12956813512E-03  0.20872932075E-01  0.00000000000E+00 0. -1.
     999901    1    3    3    0    0 -0.70587178678E-01 -0.93528576947E-01 -0.16808584221E-01  0.88792605154E+00  0.88000000000E+00 0.  1.
        -11    1    4    4    0    0  0.85786257974E-03  0.22289994207E-01  0.70611529950E-02  0.23403007768E-01  0.51100000000E-03 0. -1.
         11    1    4    4    0    0  0.89853937400E-01  0.65701243762E-01  0.96178630908E-02  0.11172800862E+00  0.51100000000E-03 0.  1.
</event>
<event>
 8    1  0.2123879E+004  0.1043930E+01  0.7957747E-01            NaN
         13   -1    0    0    0    0  0.00000000000E+00  0.00000000000E+00  0.74505805969E-08  0.10566000000E+00  0.10566000000E+00 0. -1.
     999900   -1    0    0    0    0 -0.00000000000E+00 -0.00000000000E+00 -0.74505805969E-08  0.93827000000E+00  0.93827000000E+00 0.  1.
     999902    2    1    2    0    0 -0.26020552713E-03  0.38335634875E-02 -0.12486556554E-01  0.10308656205E+01  0.10307828334E+01 0.  0.
     999903    2    3    3    0    0 -0.73082083732E-01  0.97070895697E-01  0.56611422495E-01  0.14026427495E+00  0.41297262830E-01 0.  0.
         14    1    1    2    0    0  0.26020552713E-03 -0.38335634875E-02  0.12486556554E-01  0.13064379454E-01  0.00000000000E+00 0. -1.
     999901    1    3    3    0    0  0.72821878205E-01 -0.93237332210E-01 -0.69097979049E-01  0.89060134559E+00  0.88000000000E+00 0.  1.
        -11    1    4    4    0    0 -0.61913681031E-01  0.83512270187E-01  0.63006235396E-01  0.12156335793E+00  0.51100000000E-03 0. -1.
         11    1    4    4    0    0 -0.11168402700E-01  0.13558625510E-01 -0.63948129010E-02  0.18700917026E-01  0.51100000000E-03 0.  1.
</event>
<event>
 8    1  0.2123879E+004  0.1043930E+01  0.7957747E-01            NaN
         13   -1    0    0    0    0  0.00000000000E+00  0.00000000000E+00  0.74505805969E-08  0.10566000000E+00  0.10566000000E+00 0. -1.
     999900   -1    0    0    0    0 -0.00000000000E+00 -0.00000000000E+00 -0.74505805969E-08  0.93827000000E+00  0.93827000000E+00 0.  1.
     999902    2    1    2    0    0  0.23110094900E-02  0.75746927157E-02  0.12520848567E-01  0.10291148597E+01  0.10290082147E+01 0.  0.
     999903    2    3    3    0    0 -0.31605390694E-01 -0.88839406373E-01 -0.89578553723E-01  0.13733557718E+00  0.44106718611E-01 0.  0.
         14    1    1    2    0    0 -0.23110094900E-02 -0.75746927157E-02 -0.12520848567E-01  0.14815140345E-01  0.00000000000E+00 0.  1.
     999901    1    3    3    0    0  0.33916400184E-01  0.96414099088E-01  0.10209940229E+00  0.89177928248E+00  0.88000000000E+00 0.  1.
        -11    1    4    4    0    0 -0.11836593937E-01 -0.24412328374E-01 -0.25378298701E-02  0.27253778346E-01  0.51100000000E-03 0. -1.
         11    1    4    4    0    0 -0.19768796757E-01 -0.64427077999E-01 -0.87040723853E-01  0.11008179883E+00  0.51100000000E-03 0.  1.
</event>
<event>
 8    1  0.2123879E+004  0.1043930E+01  0.7957747E-01            NaN
         13   -1    0    0    0    0  0.00000000000E+00  0.00000000000E+00  0.74505805969E-08  0.10566000000E+00  0.10566000000E+00 0. -1.
     999900   -1    0    0    0    0 -0.00000000000E+00 -0.00000000000E+00 -0.74505805969E-08  0.93827000000E+00  0.93827000000E+00 0.  1.
     999902    2    1    2    0    0 -0.14025117309E-01  0.29195753033E-02 -0.23658791384E-03  0.10296022713E+01  0.10295025757E+01 0.  0.
     999903    2    3    3    0    0 -0.49436485081E-01 -0.89798440135E-01  0.84324831837E-01  0.13999492587E+00  0.44499169627E-01 0.  0.
         14    1    1    2    0    0  0.14025117309E-01 -0.29195753033E-02  0.23658791384E-03  0.14327728686E-01  0.00000000000E+00 0. -1.
     999901    1    3    3    0    0  0.35411367773E-01  0.92718015438E-01 -0.84561419751E-01  0.88960734544E+00  0.88000000000E+00 0.  1.
        -11    1    4    4    0    0 -0.20404404543E-01 -0.77131631091E-01  0.55768967699E-01  0.97345092936E-01  0.51100000000E-03 0. -1.
         11    1    4    4    0    0 -0.29032080538E-01 -0.12666809044E-01  0.28555864137E-01  0.42649832935E-01  0.51100000000E-03 0.  1.
</event>
<event>
 8    1  0.2123879E+004  0.1043930E+01  0.7957747E-01            NaN
         13   -1    0    0    0    0  0.00000000000E+00  0.00000000000E+00  0.74505805969E-08  0.10566000000E+00  0.10566000000E+00 0.  1.
     999900   -1    0    0    0    0 -0.00000000000E+00 -0.00000000000E+00 -0.74505805969E-08  0.93827000000E+00  0.93827000000E+00 0. -1.
     999902    2    1    2    0    0  0.10615174941E-01  0.66250672025E-03 -0.90886038211E-02  0.10299398759E+01  0.10298448545E+01 0.  0.
     999903    2    3    3    0    0  0.80449839225E-01  0.91330685184E-01 -0.55993846440E-01  0.14129050703E+00  0.44880127575E-01 0.  0.
         14    1    1    2    0    0 -0.10615174941E-01 -0.66250672025E-03  0.90886038211E-02  0.13990124145E-01  0.00000000000E+00 0. -1.
     999901    1    3    3    0    0 -0.69834664285E-01 -0.90668178464E-01  0.46905242618E-01  0.88864936882E+00  0.88000000000E+00 0.  1.
        -11    1    4    4    0    0  0.60262409346E-01  0.66217203111E-01 -0.61467039471E-01  0.10860356362E+00  0.51100000000E-03 0. -1.
         11    1    4    4    0    0  0.20187429880E-01  0.25113482073E-01  0.54731930312E-02  0.32686943417E-01  0.51100000000E-03 0.  1.
</event>
<event>
 8    1  0.2123879E+004  0.1043930E+01  0.7957747E-01            NaN
         13   -1    0    0    0    0  0.00000000000E+00  0.00000000000E+00  0.74505805969E-08  0.10566000000E+00  0.10566000000E+00 0. -1.
     999900   -1    0    0    0    0 -0.00000000000E+00 -0.00000000000E+00 -0.74505805969E-08  0.93827000000E+00  0.93827000000E+00 0. -1.
     999902    2    1    2    0    0  0.11086503598E-01  0.73805665123E-02 -0.48183716523E-02  0.10297666660E+01  0.10296692607E+01 0.  0.
     999903    2    3    3    0    0  0.44223215866E-01 -0.11889263488E+00 -0.36853197010E-01  0.13955927831E+00  0.45027575820E-01 0.  0.
         14    1    1    2    0    0 -0.11086503598E-01 -0.73805665123E-02  0.48183716523E-02  0.14163333981E-01  0.00000000000E+00 0.  1.
     999901    1    3    3    0    0 -0.33136712268E-01  0.12627320139E+00  0.32034825358E-01  0.89020738771E+00  0.88000000000E+00 0.  1.
        -11    1    4    4    0    0  0.63777131361E-03 -0.38551379793E-01 -0.28149958836E-01  0.47741982988E-01  0.51100000000E-03 0. -1.
         11    1    4    4    0    0  0.43585444552E-01 -0.80341255084E-01 -0.87032381745E-02  0.91817295326E-01  0.51100000000E-03 0.  1.
</event>
<event>
 8    1  0.2123879E+004  0.1043930E+01  0.7957747E-01            NaN
         13   -1    0    0    0    0  0.00000000000E+00  0.00000000000E+00  0.74505805969E-08  0.10566000000E+00  0.10566000000E+00 0.  1.
     999900   -1    0    0    0    0 -0.00000000000E+00 -0.00000000000E+00 -0.74505805969E-08  0.93827000000E+00  0.93827000000E+00 0. -1.
     999902    2    1    2    0    0  0.15236856349E-02  0.13886436359E-01  0.15923855630E-02  0.10298697573E+01  0.10297737745E+01 0.  0.
     999903    2    3    3    0    0  0.71569934332E-01 -0.94743403564E-01  0.55450453431E-01  0.13879871045E+00  0.45735776130E-01 0.  0.
         14    1    1    2    0    0 -0.15236856349E-02 -0.13886436359E-01 -0.15923855630E-02  0.14060242688E-01  0.00000000000E+00 0. -1.
     999901    1    3    3    0    0 -0.70046248697E-01  0.10862983992E+00 -0.53858067868E-01  0.89107104686E+00  0.88000000000E+00 0. -1.
        -11    1    4    4    0    0  0.95572458419E-02 -0.49614654348E-01  0.20987923784E-01  0.54714796352E-01  0.51100000000E-03 0.  1.
         11    1    4    4    0    0  0.62012688490E-01 -0.45128749216E-01  0.34462529647E-01  0.84083914099E-01  0.51100000000E-03 0. -1.
</event>
<event>
 8    1  0.2123879E+004  0.1043930E+01  0.7957747E-01            NaN
         13   -1    0    0    0    0  0.00000000000E+00  0.00000000000E+00  0.74505805969E-08  0.10566000000E+00  0.10566000000E+00 0. -1.
     999900   -1    0    0    0    0 -0.00000000000E+00 -0.00000000000E+00 -0.74505805969E-08  0.93827000000E+00  0.93827000000E+00 0. -1.
     999902    2    1    2    0    0 -0.10190374854E-01 -0.68003633586E-02  0.68170070311E-02  0.10299100048E+01  0.10298145744E+01 0.  0.
     999903    2    3    3    0    0 -0.20063265596E-01 -0.13027130152E+00 -0.21371560553E-01  0.14078844846E+00  0.44626191782E-01 0.  0.
         14    1    1    2    0    0  0.10190374854E-01  0.68003633586E-02 -0.68170070311E-02  0.14019995233E-01  0.00000000000E+00 0.  1.
     999901    1    3    3    0    0  0.98728907420E-02  0.12347093817E+00  0.28188567584E-01  0.88912155630E+00  0.88000000000E+00 0.  1.
        -11    1    4    4    0    0  0.10988394882E-01 -0.74496023746E-01 -0.12583704354E-01  0.76347973859E-01  0.51100000000E-03 0. -1.
         11    1    4    4    0    0 -0.31051660478E-01 -0.55775277777E-01 -0.87878561985E-02  0.64440474603E-01  0.51100000000E-03 0.  1.
</event>
<event>
 8    1  0.2123879E+004  0.1043930E+01  0.7957747E-01            NaN
         13   -1    0    0    0    0  0.00000000000E+00  0.00000000000E+00  0.74505805969E-08  0.10566000000E+00  0.10566000000E+00 0.  1.
     999900   -1    0    0    0    0 -0.00000000000E+00 -0.00000000000E+00 -0.74505805969E-08  0.93827000000E+00  0.93827000000E+00 0. -1.
     999902    2    1    2    0    0 -0.87375804819E-02  0.14585503418E-02 -0.10365061972E-01  0.10302952213E+01  0.10302049970E+01 0.  0.
     999903    2    3    3    0    0  0.89089151212E-01  0.80046518177E-02  0.95624781313E-01  0.13852912650E+00  0.45224647843E-01 0.  0.
         14    1    1    2    0    0  0.87375804819E-02 -0.14585503418E-02  0.10365061972E-01  0.13634778746E-01  0.00000000000E+00 0. -1.
     999901    1    3    3    0    0 -0.97826731694E-01 -0.65461014759E-02 -0.10598984328E+00  0.89176609476E+00  0.88000000000E+00 0. -1.
        -11    1    4    4    0    0  0.81145537498E-01  0.20588940644E-01  0.89135241776E-01  0.12228595659E+00  0.51100000000E-03 0. -1.
         11    1    4    4    0    0  0.79436137141E-02 -0.12584288826E-01  0.64895395366E-02  0.16243169903E-01  0.51100000000E-03 0.  1.
</event>
<event>
 8    1  0.2123879E+004  0.1043930E+01  0.7957747E-01            NaN
         13   -1    0    0    0    0  0.00000000000E+00  0.00000000000E+00  0.74505805969E-08  0.10566000000E+00  0.10566000000E+00 0. -1.
     999900   -1    0    0    0    0 -0.00000000000E+00 -0.00000000000E+00 -0.74505805969E-08  0.93827000000E+00  0.93827000000E+00 0.  1.
     999902    2    1    2    0    0 -0.78403005501E-02  0.92259503706E-02  0.29887535642E-02  0.10314591892E+01  0.10313837976E+01 0.  0.
     999903    2    3    3    0    0  0.12135656416E+00  0.30337018371E-01 -0.45445894790E-01  0.14045782999E+00  0.44892341262E-01 0.  0.
         14    1    1    2    0    0  0.78403005501E-02 -0.92259503706E-02 -0.29887535642E-02  0.12470810753E-01  0.00000000000E+00 0.  1.
     999901    1    3    3    0    0 -0.12919686471E+00 -0.21111068001E-01  0.48434648354E-01  0.89100135926E+00  0.88000000000E+00 0. -1.
        -11    1    4    4    0    0  0.71523461069E-01  0.94722182456E-02 -0.38128859547E-02  0.72250450670E-01  0.51100000000E-03 0.  1.
         11    1    4    4    0    0  0.49833103087E-01  0.20864800126E-01 -0.41633008835E-01  0.68207379317E-01  0.51100000000E-03 0. -1.
</event>
<event>
 8    1  0.2123879E+004  0.1043930E+01  0.7957747E-01            NaN
         13   -1    0    0    0    0  0.00000000000E+00  0.00000000000E+00  0.74505805969E-08  0.10566000000E+00  0.10566000000E+00 0. -1.
     999900   -1    0    0    0    0 -0.00000000000E+00 -0.00000000000E+00 -0.74505805969E-08  0.93827000000E+00  0.93827000000E+00 0. -1.
     999902    2    1    2    0    0 -0.13131695908E-01  0.28202263526E-02 -0.36659697983E-02  0.10300075559E+01  0.10299134579E+01 0.  0.
     999903    2    3    3    0    0 -0.96182630573E-01  0.85053025335E-01  0.35515962436E-01  0.14141602166E+00  0.47455158327E-01 0.  0.
         14    1    1    2    0    0  0.13131695908E-01 -0.28202263526E-02  0.36659697983E-02  0.13922444062E-01  0.00000000000E+00 0. -1.
     999901    1    3    3    0    0  0.83050934665E-01 -0.82232798982E-01 -0.39181932235E-01  0.88859153428E+00  0.88000000000E+00 0.  1.
        -11    1    4    4    0    0 -0.20855097071E-01  0.17516761660E-01  0.29370470109E-01  0.40058178295E-01  0.51100000000E-03 0.  1.
         11    1    4    4    0    0 -0.75327533502E-01  0.67536263675E-01  0.61454923274E-02  0.10135784337E+00  0.51100000000E-03 0. -1.
</event>
<event>
 8    1  0.2123879E+004  0.1043930E+01  0.7957747E-01            NaN
         13   -1    0    0    0    0  0.00000000000E+00  0.00000000000E+00  0.74505805969E-08  0.10566000000E+00  0.10566000000E+00 0.  1.
     999900   -1    0    0    0    0 -0.00000000000E+00 -0.00000000000E+00 -0.74505805969E-08  0.93827000000E+00  0.93827000000E+00 0. -1.
     999902    2    1    2    0    0  0.17120303321E-02  0.97443494816E-02  0.95694101576E-02  0.10301656618E+01  0.10300737031E+01 0.  0.
     999903    2    3    3    0    0  0.71617989813E-01  0.91674898419E-01  0.67713964159E-01  0.14169492669E+00  0.44258873051E-01 0.  0.
         14    1    1    2    0    0 -0.17120303321E-02 -0.97443494816E-02 -0.95694101576E-02  0.13764338177E-01  0.00000000000E+00 0. -1.
     999901    1    3    3    0    0 -0.69905959481E-01 -0.81930548938E-01 -0.58144554001E-01  0.88847073513E+00  0.88000000000E+00 0. -1.
        -11    1    4    4    0    0  0.44698239563E-01  0.30858992500E-01  0.47564950668E-01  0.72200385672E-01  0.51100000000E-03 0. -1.
         11    1    4    4    0    0  0.26919750250E-01  0.60815905919E-01  0.20149013492E-01  0.69494541023E-01  0.51100000000E-03 0.  1.
</event>
<event>
 7    1  0.2123879E+004  0.1043930E+01  0.7957747E-01            NaN
         13   -1    0    0    0    0  0.00000000000E+00  0.00000000000E+00  0.74505805969E-08  0.10566000000E+00  0.10566000000E+00 0.  1.
     999900   -1    0    0    0    0 -0.00000000000E+00 -0.00000000000E+00 -0.74505805969E-08  0.93827000000E+00  0.93827000000E+00 0. -1.
     999902    2    1    2    0    0 -0.76444063557E-02 -0.36508040181E-02 -0.51974627011E-02  0.10339912407E+01  0.10339434737E+01 0.  0.
         14    1    1    2    0    0  0.76444063557E-02  0.36508040181E-02  0.51974627011E-02  0.99387593310E-02  0.00000000000E+00 0. -1.
     999901    1    3    3    0    0  0.11610476719E+00  0.58463051980E-01 -0.30727954284E-01  0.89008002594E+00  0.88000000000E+00 0. -1.
        -11    1    3    3    0    0 -0.70344517930E-01 -0.25245244559E-01  0.25637994876E-01  0.79014185295E-01  0.51100000000E-03 0. -1.
         11    1    3    3    0    0 -0.53404655615E-01 -0.36868611439E-01 -0.10750329326E-03  0.64897029430E-01  0.51100000000E-03 0.  1.
</event>
<event>
 8    1  0.2271540E+004  0.1043930E+01  0.7957747E-01            NaN
         13   -1    0    0    0    0  0.00000000000E+00  0.00000000000E+00  0.74505805969E-08  0.10566000000E+00  0.10566000000E+00 0.  1.
     999900   -1    0    0    0    0 -0.00000000000E+00 -0.00000000000E+00 -0.74505805969E-08  0.93827000000E+00  0.93827000000E+00 0.  1.
     999902    2    1    2    0    0 -0.21044250367E-03 -0.18179520696E-01  0.15753301475E-01  0.10198736959E+01  0.10195899420E+01 0.  0.
     999903    2    3    3    0    0  0.33429537949E-01 -0.49405294568E-01 -0.10961011584E+00  0.12980477519E+00  0.35727930667E-01 0.  0.
         14    1    1    2    0    0  0.21044250367E-03  0.18179520696E-01 -0.15753301475E-01  0.24056304083E-01  0.00000000000E+00 0. -1.
     999901    1    3    3    0    0 -0.33639980453E-01  0.31225773872E-01  0.12536341731E+00  0.89006892072E+00  0.88000000000E+00 0. -1.
        -11    1    4    4    0    0  0.34523459293E-01 -0.19619285264E-01 -0.61468401084E-01  0.73180674011E-01  0.51100000000E-03 0.  1.
         11    1    4    4    0    0 -0.10939213432E-02 -0.29786009304E-01 -0.48141714754E-01  0.56624101182E-01  0.51100000000E-03 0. -1.
</event>
<event>
 8    1  0.2123879E+004  0.1043930E+01  0.7957747E-01            NaN
         13   -1    0    0    0    0  0.00000000000E+00  0.00000000000E+00  0.74505805969E-08  0.10566000000E+00  0.10566000000E+00 0.  1.
     999900   -1    0    0    0    0 -0.00000000000E+00 -0.00000000000E+00 -0.74505805969E-08  0.93827000000E+00  0.93827000000E+00 0. -1.
     999902    2    1    2    0    0  0.72826800353E-02  0.11771852707E-01 -0.43151673990E-02  0.10294305306E+01  0.10293284134E+01 0.  0.
     999903    2    3    3    0    0  0.10969873861E+00 -0.34115496872E-01  0.65403499495E-01  0.13956796227E+00  0.44765142316E-01 0.  0.
         14    1    1    2    0    0 -0.72826800353E-02 -0.11771852707E-01  0.43151673990E-02  0.14499469450E-01  0.00000000000E+00 0.  1.
     999901    1    3    3    0    0 -0.10241605858E+00  0.45887349579E-01 -0.69718666894E-01  0.88986256828E+00  0.88000000000E+00 0. -1.
        -11    1    4    4    0    0  0.47694260707E-01 -0.24067778875E-01  0.71555478236E-02  0.53902351248E-01  0.51100000000E-03 0.  1.
         11    1    4    4    0    0  0.62004477908E-01 -0.10047717997E-01  0.58247951671E-01  0.85665611026E-01  0.51100000000E-03 0. -1.
</event>
<event>
 8    1  0.2123879E+004  0.1043930E+01  0.7957747E-01            NaN
         13   -1    0    0    0    0  0.00000000000E+00  0.00000000000E+00  0.74505805969E-08  0.10566000000E+00  0.10566000000E+00 0.  1.
     999900   -1    0    0    0    0 -0.00000000000E+00 -0.00000000000E+00 -0.74505805969E-08  0.93827000000E+00  0.93827000000E+00 0.  1.
     999902    2    1    2    0    0  0.11287092135E-01 -0.48138647505E-02  0.88287936000E-02  0.10288131439E+01  0.10287020782E+01 0.  0.
     999903    2    3    3    0    0  0.12062253564E+00 -0.62592818488E-02 -0.54276658072E-01  0.13980323028E+00  0.44833167094E-01 0.  0.
         14    1    1    2    0    0 -0.11287092135E-01  0.48138647505E-02 -0.88287936000E-02  0.15116856126E-01  0.00000000000E+00 0. -1.
     999901    1    3    3    0    0 -0.10933544351E+00  0.14454170983E-02  0.63105451672E-01  0.88900991359E+00  0.88000000000E+00 0.  1.
        -11    1    4    4    0    0  0.50857661554E-01 -0.24766852262E-01 -0.21299081660E-01  0.60446759304E-01  0.51100000000E-03 0.  1.
         11    1    4    4    0    0  0.69764874086E-01  0.18507570413E-01 -0.32977576412E-01  0.79356470977E-01  0.51100000000E-03 0. -1.
</event>
<event>
 8    1  0.2123879E+004  0.1043930E+01  0.7957747E-01            NaN
         13   -1    0    0    0    0  0.00000000000E+00  0.00000000000E+00  0.74505805969E-08  0.10566000000E+00  0.10566000000E+00 0. -1.
     999900   -1    0    0    0    0 -0.00000000000E+00 -0.00000000000E+00 -0.74505805969E-08  0.93827000000E+00  0.93827000000E+00 0. -1.
     999902    2    1    2    0    0 -0.11209646163E-01 -0.69862824413E-02 -0.65092964126E-03  0.10307054766E+01  0.10306206341E+01 0.  0.
     999903    2    3    3    0    0 -0.73680145845E-01  0.74786465456E-01 -0.82769845711E-01  0.14091175782E+00  0.44536466238E-01 0.  0.
         14    1    1    2    0    0  0.11209646163E-01  0.69862824413E-02  0.65092964126E-03  0.13224523388E-01  0.00000000000E+00 0.  1.
     999901    1    3    3    0    0  0.62470499682E-01 -0.81772747897E-01  0.82118916070E-01  0.88979371879E+00  0.88000000000E+00 0.  1.
        -11    1    4    4    0    0 -0.61975042460E-01  0.34276759566E-01 -0.60905610953E-01  0.93410688365E-01  0.51100000000E-03 0.  1.
         11    1    4    4    0    0 -0.11705103385E-01  0.40509705890E-01 -0.21864234758E-01  0.47501069452E-01  0.51100000000E-03 0. -1.
</event>
<event>
 7    1  0.2123879E+004  0.1043930E+01  0.7957747E-01            NaN
         13   -1    0    0    0    0  0.00000000000E+00  0.00000000000E+00  0.74505805969E-08  0.10566000000E+00  0.10566000000E+00 0.  1.
     999900   -1    0    0    0    0 -0.00000000000E+00 -0.00000000000E+00 -0.74505805969E-08  0.93827000000E+00  0.93827000000E+00 0.  1.
     999903    2    1    2    0    0  0.22326951601E-01  0.91621838723E-01  0.67906349854E-01  0.12358528182E+00  0.42059427393E-01 0.  0.
         14    1    1    2    0    0 -0.18882963689E-01 -0.29770139828E-01 -0.79030841155E-02  0.36128745918E-01  0.00000000000E+00 0. -1.
     999901    1    1    2    0    0 -0.34439879121E-02 -0.61851698895E-01 -0.60003265738E-01  0.88421597226E+00  0.88000000000E+00 0.  1.
        -11    1    3    3    0    0  0.16215040269E-01  0.67084139158E-01  0.24292653253E-01  0.73168322248E-01  0.51100000000E-03 0.  1.
         11    1    3    3    0    0  0.61119113321E-02  0.24537699565E-01  0.43613696601E-01  0.50416959570E-01  0.51100000000E-03 0. -1.
</event>
<event>
 8    1  0.2123879E+004  0.1043930E+01  0.7957747E-01            NaN
         13   -1    0    0    0    0  0.00000000000E+00  0.00000000000E+00  0.74505805969E-08  0.10566000000E+00  0.10566000000E+00 0. -1.
     999900   -1    0    0    0    0 -0.00000000000E+00 -0.00000000000E+00 -0.74505805969E-08  0.93827000000E+00  0.93827000000E+00 0. -1.
     999902    2    1    2    0    0 -0.34150571364E-02 -0.27923898938E-02 -0.13230399236E-01  0.10299835481E+01  0.10298891231E+01 0.  0.
     999903    2    3    3    0    0  0.13037509906E+00 -0.18354713900E-01 -0.24663571805E-02  0.13967020078E+00  0.46552337108E-01 0.  0.
         14    1    1    2    0    0  0.34150571364E-02  0.27923898938E-02  0.13230399236E-01  0.13946451897E-01  0.00000000000E+00 0. -1.
     999901    1    3    3    0    0 -0.13379015620E+00  0.15562324007E-01 -0.10764042056E-01  0.89031334733E+00  0.88000000000E+00 0.  1.
        -11    1    4    4    0    0  0.53366211272E-01 -0.29632465484E-01  0.61989030899E-02  0.61357338898E-01  0.51100000000E-03 0.  1.
         11    1    4    4    0    0  0.77008887789E-01  0.11277751583E-01 -0.86652602704E-02  0.78312861880E-01  0.51100000000E-03 0. -1.
</event>
<event>
 8    1  0.2123879E+004  0.1043930E+01  0.7957747E-01            NaN
         13   -1    0    0    0    0  0.00000000000E+00  0.00000000000E+00  0.74505805969E-08  0.10566000000E+00  0.10566000000E+00 0.  1.
     999900   -1    0    0    0    0 -0.00000000000E+00 -0.00000000000E+00 -0.74505805969E-08  0.93827000000E+00  0.93827000000E+00 0. -1.
     999902    2    1    2    0    0  0.90202919713E-02  0.11673821535E-01  0.47519296461E-02  0.10284308190E+01  0.10283140205E+01 0.  0.
     999903    2    3    3    0    0  0.50293313877E-01 -0.84608858447E-01 -0.84838522683E-01  0.13770063204E+00  0.45561088497E-01 0.  0.
         14    1    1    2    0    0 -0.90202919713E-02 -0.11673821535E-01 -0.47519296461E-02  0.15499181006E-01  0.00000000000E+00 0. -1.
     999901    1    3    3    0    0 -0.41273021905E-01  0.96282679982E-01  0.89590452329E-01  0.89073018695E+00  0.88000000000E+00 0.  1.
        -11    1    4    4    0    0  0.53190608294E-01 -0.71909091248E-01 -0.54653476227E-01  0.10482090345E+00  0.51100000000E-03 0. -1.
         11    1    4    4    0    0 -0.28972944172E-02 -0.12699767199E-01 -0.30185046456E-01  0.32879728594E-01  0.51100000000E-03 0.  1.
</event>
<event>
 8    1  0.2123879E+004  0.1043930E+01  0.7957747E-01            NaN
         13   -1    0    0    0    0  0.00000000000E+00  0.00000000000E+00  0.74505805969E-08  0.10566000000E+00  0.10566000000E+00 0.  1.
     999900   -1    0    0    0    0 -0.00000000000E+00 -0.00000000000E+00 -0.74505805969E-08  0.93827000000E+00  0.93827000000E+00 0. -1.
     999902    2    1    2    0    0  0.93618135061E-02  0.12464474338E-01 -0.40859474584E-02  0.10278147389E+01  0.10276883944E+01 0.  0.
     999903    2    3    3    0    0  0.20627625647E-01 -0.12349071720E+00  0.30535045450E-01  0.13663050109E+00  0.45387758854E-01 0.  0.
         14    1    1    2    0    0 -0.93618135061E-02 -0.12464474338E-01  0.40859474584E-02  0.16115261067E-01  0.00000000000E+00 0.  1.
     999901    1    3    3    0    0 -0.11265812140E-01  0.13595519154E+00 -0.34620992908E-01  0.89118423784E+00  0.88000000000E+00 0. -1.
        -11    1    4    4    0    0  0.58537563400E-02 -0.49306992502E-01 -0.10236273105E-01  0.50699984033E-01  0.51100000000E-03 0. -1.
         11    1    4    4    0    0  0.14773869307E-01 -0.74183724696E-01  0.40771318555E-01  0.85930517057E-01  0.51100000000E-03 0.  1.
</event>
<event>
 8    1  0.2123879E+004  0.1043930E+01  0.7957747E-01            NaN
         13   -1    0    0    0    0  0.00000000000E+00  0.00000000000E+00  0.74505805969E-08  0.10566000000E+00  0.10566000000E+00 0. -1.
     999900   -1    0    0    0    0 -0.00000000000E+00 -0.00000000000E+00 -0.74505805969E-08  0.93827000000E+00  0.93827000000E+00 0. -1.
     999902    2    1    2    0    0 -0.15177948954E-01 -0.80774851722E-03  0.38117535603E-02  0.10282598993E+01  0.10281404906E+01 0.  0.
     999903    2    3    3    0    0 -0.67897280148E-01  0.98597336741E-01 -0.55657648336E-01  0.13910450866E+00  0.43827104038E-01 0.  0.
         14    1    1    2    0    0  0.15177948954E-01  0.80774851722E-03 -0.38117535603E-02  0.15670100744E-01  0.00000000000E+00 0.  1.
     999901    1    3    3    0    0  0.52719331193E-01 -0.99405085259E-01  0.59469401897E-01  0.88915539059E+00  0.88000000000E+00 0.  1.
        -11    1    4    4    0    0 -0.52552991962E-01  0.47044338704E-01 -0.46646471867E-01  0.84564420574E-01  0.51100000000E-03 0. -1.
         11    1    4    4    0    0 -0.15344288185E-01  0.51552998037E-01 -0.90111764693E-02  0.54540088090E-01  0.51100000000E-03 0.  1.
</event>
<event>
 8    1  0.2123879E+004  0.1043930E+01  0.7957747E-01            NaN
         13   -1    0    0    0    0  0.00000000000E+00  0.00000000000E+00  0.74505805969E-08  0.10566000000E+00  0.10566000000E+00 0. -1.
     999900   -1    0    0    0    0 -0.00000000000E+00 -0.00000000000E+00 -0.74505805969E-08  0.93827000000E+00  0.93827000000E+00 0.  1.
     999902    2    1    2    0    0 -0.27167431631E-02 -0.96807213295E-02  0.68601855835E-02  0.10317579334E+01  0.10316861315E+01 0.  0.
     999903    2    3    3    0    0 -0.50943936753E-01 -0.47820252141E-01  0.11648316484E+00  0.14282729292E+00  0.44150274123E-01 0.  0.
         14    1    1    2    0    0  0.27167431631E-02  0.96807213295E-02 -0.68601855835E-02  0.12172066592E-01  0.00000000000E+00 0.  1.
     999901    1    3    3    0    0  0.48227193590E-01  0.38139530811E-01 -0.10962297926E+00  0.88893064049E+00  0.88000000000E+00 0.  1.
        -11    1    4    4    0    0 -0.20745524119E-01 -0.45569600211E-01  0.88016189973E-01  0.10126241184E+00  0.51100000000E-03 0. -1.
         11    1    4    4    0    0 -0.30198412635E-01 -0.22506519292E-02  0.28466974870E-01  0.41564881078E-01  0.51100000000E-03 0.  1.
</event>
<event>
 8    1  0.2249252E+004  0.1043930E+01  0.7957747E-01            NaN
         13   -1    0    0    0    0  0.00000000000E+00  0.00000000000E+00  0.74505805969E-08  0.10566000000E+00  0.10566000000E+00 0.  1.
     999900   -1    0    0    0    0 -0.00000000000E+00 -0.00000000000E+00 -0.74505805969E-08  0.93827000000E+00  0.93827000000E+00 0. -1.
     999902    2    1    2    0    0 -0.14288367920E-01  0.14857549837E-01 -0.13331037357E-01  0.10193816640E+01  0.10190860396E+01 0.  0.
     999903    2    3    3    0    0  0.10855470350E+00 -0.16494396653E-01 -0.51853106035E-01  0.12946182796E+00  0.44893557666E-01 0.  0.
         14    1    1    2    0    0  0.14288367920E-01 -0.14857549837E-01  0.13331037357E-01  0.24548336033E-01  0.00000000000E+00 0.  1.
     999901    1    3    3    0    0 -0.12284307142E+00  0.31351946490E-01  0.38522068678E-01  0.88991983601E+00  0.88000000000E+00 0. -1.
        -11    1    4    4    0    0  0.65055255667E-01 -0.30624777060E-01 -0.23502960930E-01  0.75648618979E-01  0.51100000000E-03 0. -1.
         11    1    4    4    0    0  0.43499447834E-01  0.14130380407E-01 -0.28350145105E-01  0.53813208980E-01  0.51100000000E-03 0.  1.
</event>
<event>
 8    1  0.2123879E+004  0.1043930E+01  0.7957747E-01            NaN
         13   -1    0    0    0    0  0.00000000000E+00  0.00000000000E+00  0.74505805969E-08  0.10566000000E+00  0.10566000000E+00 0.  1.
     999900   -1    0    0    0    0 -0.00000000000E+00 -0.00000000000E+00 -0.74505805969E-08  0.93827000000E+00  0.93827000000E+00 0. -1.
     999902    2    1    2    0    0  0.21164289235E-02  0.13992069867E-01  0.55758039134E-02  0.10287199086E+01  0.10286074584E+01 0.  0.
     999903    2    3    3    0    0 -0.10787888468E+00  0.33673228744E-01  0.68384144624E-01  0.13943300064E+00  0.44647848085E-01 0.  0.
         14    1    1    2    0    0 -0.21164289235E-02 -0.13992069867E-01 -0.55758039134E-02  0.15210091382E-01  0.00000000000E+00 0.  1.
     999901    1    3    3    0    0  0.10999531361E+00 -0.19681158876E-01 -0.62808340711E-01  0.88928690797E+00  0.88000000000E+00 0. -1.
        -11    1    4    4    0    0 -0.71263609577E-01  0.21732524822E-01  0.68064743360E-01  0.10091518763E+00  0.51100000000E-03 0.  1.
         11    1    4    4    0    0 -0.36615275105E-01  0.11940703922E-01  0.31940126404E-03  0.38517813013E-01  0.51100000000E-03 0. -1.
</event>
<event>
 8    1  0.2123879E+004  0.1043930E+01  0.7957747E-01            NaN
         13   -1    0    0    0    0  0.00000000000E+00  0.00000000000E+00  0.74505805969E-08  0.10566000000E+00  0.10566000000E+00 0.  1.
     999900   -1    0    0    0    0 -0.00000000000E+00 -0.00000000000E+00 -0.74505805969E-08  0.93827000000E+00  0.93827000000E+00 0. -1.
     999902    2    1    2    0    0 -0.93272087158E-03  0.13313163347E-01 -0.57425617501E-03  0.10305718543E+01  0.10304852773E+01 0.  0.
     999903    2    3    3    0    0  0.70987186668E-01 -0.19154217245E-01 -0.11034972737E+00  0.14024761112E+00  0.45675654194E-01 0.  0.
         14    1    1    2    0    0  0.93272087158E-03 -0.13313163347E-01  0.57425617501E-03  0.13358145705E-01  0.00000000000E+00 0. -1.
     999901    1    3    3    0    0 -0.71919907540E-01  0.32467380593E-01  0.10977547119E+00  0.89032424317E+00  0.88000000000E+00 0.  1.
        -11    1    4    4    0    0  0.22946202367E-01 -0.29533474830E-01 -0.47131472344E-01  0.60169686262E-01  0.51100000000E-03 0.  1.
         11    1    4    4    0    0  0.48040984301E-01  0.10379257584E-01 -0.63218255025E-01  0.80077924861E-01  0.51100000000E-03 0. -1.
</event>
<event>
 8    1  0.2123879E+004  0.1043930E+01  0.7957747E-01            NaN
         13   -1    0    0    0    0  0.00000000000E+00  0.00000000000E+00  0.74505805969E-08  0.10566000000E+00  0.10566000000E+00 0. -1.
     999900   -1    0    0    0    0 -0.00000000000E+00 -0.00000000000E+00 -0.74505805969E-08  0.93827000000E+00  0.93827000000E+00 0. -1.
     999902    2    1    2    0    0 -0.48647765760E-02 -0.59621944652E-02  0.13224047105E-01  0.10286300250E+01  0.10285162318E+01 0.  0.
     999903    2    3    3    0    0 -0.10724174950E+00  0.32000715851E-01  0.71236175245E-01  0.13998632013E+00  0.44684880097E-01 0.  0.
         14    1    1    2    0    0  0.48647765760E-02  0.59621944652E-02 -0.13224047105E-01  0.15299975026E-01  0.00000000000E+00 0.  1.
     999901    1    3    3    0    0  0.10237697293E+00 -0.37962910317E-01 -0.58012128140E-01  0.88864370484E+00  0.88000000000E+00 0. -1.
        -11    1    4    4    0    0 -0.37356954853E-01  0.32918123430E-01  0.21684463560E-01  0.54310422636E-01  0.51100000000E-03 0. -1.
         11    1    4    4    0    0 -0.69884794648E-01 -0.91740757856E-03  0.49551711685E-01  0.85675897495E-01  0.51100000000E-03 0.  1.
</event>
<event>
 8    1  0.2123879E+004  0.1043930E+01  0.7957747E-01            NaN
         13   -1    0    0    0    0  0.00000000000E+00  0.00000000000E+00  0.74505805969E-08  0.10566000000E+00  0.10566000000E+00 0.  1.
     999900   -1    0    0    0    0 -0.00000000000E+00 -0.00000000000E+00 -0.74505805969E-08  0.93827000000E+00  0.93827000000E+00 0. -1.
     999902    2    1    2    0    0 -0.20595414637E-02  0.55366968390E-02 -0.13579871131E-01  0.10291208939E+01  0.10290143365E+01 0.  0.
     999903    2    3    3    0    0 -0.33709348226E-02  0.81765414917E-01 -0.10582198350E+00  0.14102115599E+00  0.44628779578E-01 0.  0.
         14    1    1    2    0    0  0.20595414637E-02 -0.55366968390E-02  0.13579871131E-01  0.14809106079E-01  0.00000000000E+00 0.  1.
     999901    1    3    3    0    0  0.13113933589E-02 -0.76228718078E-01  0.92242112374E-01  0.88809973793E+00  0.88000000000E+00 0.  1.
        -11    1    4    4    0    0 -0.10096259795E-02  0.37709999169E-01 -0.83384430663E-01  0.91522061712E-01  0.51100000000E-03 0.  1.
         11    1    4    4    0    0 -0.23613088430E-02  0.44055415748E-01 -0.22437552842E-01  0.49499094282E-01  0.51100000000E-03 0. -1.
</event>
<event>
 8    1  0.2123879E+004  0.1043930E+01  0.7957747E-01            NaN
         13   -1    0    0    0    0  0.00000000000E+00  0.00000000000E+00  0.74505805969E-08  0.10566000000E+00  0.10566000000E+00 0.  1.
     999900   -1    0    0    0    0 -0.00000000000E+00 -0.00000000000E+00 -0.74505805969E-08  0.93827000000E+00  0.93827000000E+00 0. -1.
     999902    2    1    2    0    0  0.93199447310E-02  0.57473754912E-02  0.86526351331E-02  0.10299742919E+01  0.10298797406E+01 0.  0.
     999903    2    3    3    0    0  0.23011505068E-01 -0.98064240796E-01 -0.84491843077E-01  0.13888495610E+00  0.44766447198E-01 0.  0.
         14    1    1    2    0    0 -0.93199447310E-02 -0.57473754912E-02 -0.86526351331E-02  0.13955708136E-01  0.00000000000E+00 0. -1.
     999901    1    3    3    0    0 -0.13691560337E-01  0.10381161629E+00  0.93144478210E-01  0.89108933577E+00  0.88000000000E+00 0.  1.
        -11    1    4    4    0    0  0.19418929383E-02 -0.85319302200E-01 -0.61520012129E-01  0.10520516760E+00  0.51100000000E-03 0.  1.
         11    1    4    4    0    0  0.21069612129E-01 -0.12744938596E-01 -0.22971830948E-01  0.33679788497E-01  0.51100000000E-03 0. -1.
</event>
<event>
 8    1  0.2123879E+004  0.1043930E+01  0.7957747E-01            NaN
         13   -1    0    0    0    0  0.00000000000E+00  0.00000000000E+00  0.74505805969E-08  0.10566000000E+00  0.10566000000E+00 0. -1.
     999900   -1    0    0    0    0 -0.00000000000E+00 -0.00000000000E+00 -0.74505805969E-08  0.93827000000E+00  0.93827000000E+00 0. -1.
     999902    2    1    2    0    0  0.71078110575E-02 -0.25250653931E-01  0.10845129160E-01  0.10155445578E+01  0.10151477802E+01 0.  0.
     999903    2    3    3    0    0  0.29031878579E-01  0.69957839160E-01  0.91062016413E-01  0.12651133520E+00  0.44450847777E-01 0.  0.
         14    1    1    2    0    0 -0.71078110575E-02  0.25250653931E-01 -0.10845129160E-01  0.28385442192E-01  0.00000000000E+00 0.  1.
     999901    1    3    3    0    0 -0.21924067522E-01 -0.95208493091E-01 -0.80216887253E-01  0.88903322260E+00  0.88000000000E+00 0.  1.
        -11    1    4    4    0    0  0.30108797911E-01  0.22721351736E-01  0.56634629383E-01  0.68048085225E-01  0.51100000000E-03 0.  1.
         11    1    4    4    0    0 -0.10769193319E-02  0.47236487424E-01  0.34427387030E-01  0.58463249979E-01  0.51100000000E-03 0. -1.
</event>
<event>
 8    1  0.2123879E+004  0.1043930E+01  0.7957747E-01            NaN
         13   -1    0    0    0    0  0.00000000000E+00  0.00000000000E+00  0.74505805969E-08  0.10566000000E+00  0.10566000000E+00 0. -1.
     999900   -1    0    0    0    0 -0.00000000000E+00 -0.00000000000E+00 -0.74505805969E-08  0.93827000000E+00  0.93827000000E+00 0.  1.
     999902    2    1    2    0    0  0.30444010546E-02 -0.77927957710E-02 -0.10433498903E-01  0.10305563714E+01  0.10304695923E+01 0.  0.
     999903    2    3    3    0    0 -0.47990747329E-01  0.48144575295E-01  0.11194933771E+00  0.13886632737E+00  0.46153989019E-01 0.  0.
         14    1    1    2    0    0 -0.30444010546E-02  0.77927957710E-02  0.10433498903E-01  0.13373628643E-01  0.00000000000E+00 0. -1.
     999901    1    3    3    0    0  0.51035148384E-01 -0.55937371066E-01 -0.12238283662E+00  0.89169004399E+00  0.88000000000E+00 0. -1.
        -11    1    4    4    0    0 -0.24292157093E-01  0.36662696758E-01  0.10133663468E+00  0.11047007232E+00  0.51100000000E-03 0.  1.
         11    1    4    4    0    0 -0.23698590237E-01  0.11481878537E-01  0.10612703036E-01  0.28396255047E-01  0.51100000000E-03 0. -1.
</event>
<event>
 8    1  0.2123879E+004  0.1043930E+01  0.7957747E-01            NaN
         13   -1    0    0    0    0  0.00000000000E+00  0.00000000000E+00  0.74505805969E-08  0.10566000000E+00  0.10566000000E+00 0. -1.
     999900   -1    0    0    0    0 -0.00000000000E+00 -0.00000000000E+00 -0.74505805969E-08  0.93827000000E+00  0.93827000000E+00 0. -1.
     999902    2    1    2    0    0  0.33448257762E-02 -0.85533041503E-02  0.10653979625E-01  0.10298639361E+01  0.10297678732E+01 0.  0.
     999903    2    3    3    0    0  0.10171864950E+00 -0.63995445379E-01  0.58965144207E-01  0.14133413423E+00  0.45346979837E-01 0.  0.
         14    1    1    2    0    0 -0.33448257762E-02  0.85533041503E-02 -0.10653979625E-01  0.14066063885E-01  0.00000000000E+00 0.  1.
     999901    1    3    3    0    0 -0.98373823728E-01  0.55442141229E-01 -0.48311164583E-01  0.88852980189E+00  0.88000000000E+00 0. -1.
        -11    1    4    4    0    0  0.51764160376E-01 -0.66534391172E-02  0.20118561524E-01  0.55935804189E-01  0.51100000000E-03 0. -1.
         11    1    4    4    0    0  0.49954489128E-01 -0.57342006262E-01  0.38846582683E-01  0.85398330038E-01  0.51100000000E-03 0.  1.
</event>
<event>
 8    1  0.2123879E+004  0.1043930E+01  0.7957747E-01            NaN
         13   -1    0    0    0    0  0.00000000000E+00  0.00000000000E+00  0.74505805969E-08  0.10566000000E+00  0.10566000000E+00 0. -1.
     999900   -1    0    0    0    0 -0.00000000000E+00 -0.00000000000E+00 -0.74505805969E-08  0.93827000000E+00  0.93827000000E+00 0.  1.
     999902    2    1    2    0    0 -0.37042937155E-02 -0.10406708562E-01  0.84715942694E-02  0.10300091780E+01  0.10299151021E+01 0.  0.
     999903    2    3    3    0    0  0.11582310992E-01  0.62506367349E-01 -0.11440603483E+00  0.13835402683E+00  0.44854208797E-01 0.  0.
         14    1    1    2    0    0  0.37042937155E-02  0.10406708562E-01 -0.84715942694E-02  0.13920821976E-01  0.00000000000E+00 0.  1.
     999901    1    3    3    0    0 -0.15286604707E-01 -0.72913075911E-01  0.12287762910E+00  0.89165515120E+00  0.88000000000E+00 0. -1.
        -11    1    4    4    0    0  0.30648815581E-02  0.14349193399E-01 -0.72430506540E-01  0.73903533398E-01  0.51100000000E-03 0.  1.
         11    1    4    4    0    0  0.85174294336E-02  0.48157173950E-01 -0.41975528290E-01  0.64450493429E-01  0.51100000000E-03 0. -1.
</event>
<event>
 8    1  0.2123879E+004  0.1043930E+01  0.7957747E-01            NaN
         13   -1    0    0    0    0  0.00000000000E+00  0.00000000000E+00  0.74505805969E-08  0.10566000000E+00  0.10566000000E+00 0.  1.
     999900   -1    0    0    0    0 -0.00000000000E+00 -0.00000000000E+00 -0.74505805969E-08  0.93827000000E+00  0.93827000000E+00 0.  1.
     999902    2    1    2    0    0 -0.46219608293E-03 -0.10933840773E-01 -0.87330338821E-02  0.10299289865E+01  0.10298338161E+01 0.  0.
     999903    2    3    3    0    0  0.98113627978E-01 -0.77787107502E-01  0.43659374136E-01  0.14036082338E+00  0.46020666013E-01 0.  0.
         14    1    1    2    0    0  0.46219608293E-03  0.10933840773E-01  0.87330338821E-02  0.14001013537E-01  0.00000000000E+00 0.  1.
     999901    1    3    3    0    0 -0.98575824061E-01  0.66853266729E-01 -0.52392408018E-01  0.88956816309E+00  0.88000000000E+00 0. -1.
        -11    1    4    4    0    0  0.57005722032E-01 -0.35651257046E-01  0.28503768436E-03  0.67238432766E-01  0.51100000000E-03 0.  1.
         11    1    4    4    0    0  0.41107905946E-01 -0.42135850456E-01  0.43374336451E-01  0.73122390610E-01  0.51100000000E-03 0. -1.
</event>
<event>
 8    1  0.2123879E+004  0.1043930E+01  0.7957747E-01            NaN
         13   -1    0    0    0    0  0.00000000000E+00  0.00000000000E+00  0.74505805969E-08  0.10566000000E+00  0.10566000000E+00 0.  1.
     999900   -1    0    0    0    0 -0.00000000000E+00 -0.00000000000E+00 -0.74505805969E-08  0.93827000000E+00  0.93827000000E+00 0. -1.
     999902    2    1    2    0    0  0.15582628825E-02  0.15428592950E-01 -0.42348056965E-02  0.10278550741E+01  0.10277293662E+01 0.  0.
     999903    2    3    3    0    0 -0.67234352283E-01 -0.10860539386E+00 -0.16264664661E-01  0.13641715068E+00  0.45050083028E-01 0.  0.
         14    1    1    2    0    0 -0.15582628825E-02 -0.15428592950E-01  0.42348056965E-02  0.16074925907E-01  0.00000000000E+00 0.  1.
     999901    1    3    3    0    0  0.68792615166E-01  0.12403398681E+00  0.12029858965E-01  0.89143792341E+00  0.88000000000E+00 0.  1.
        -11    1    4    4    0    0 -0.54476341533E-01 -0.92066679570E-01  0.43492770534E-02  0.10706597315E+00  0.51100000000E-03 0. -1.
         11    1    4    4    0    0 -0.12758010751E-01 -0.16538714293E-01 -0.20613941715E-01  0.29351177537E-01  0.51100000000E-03 0.  1.
</event>
<event>
 8    1  0.2123879E+004  0.1043930E+01  0.7957747E-01            NaN
         13   -1    0    0    0    0  0.00000000000E+00  0.00000000000E+00  0.74505805969E-08  0.10566000000E+00  0.10566000000E+00 0. -1.
     999900   -1    0    0    0    0 -0.00000000000E+00 -0.00000000000E+00 -0.74505805969E-08  0.93827000000E+00  0.93827000000E+00 0. -1.
     999902    2    1    2    0    0  0.21670243270E-01 -0.32179337753E-03  0.13640991931E-01  0.10183218049E+01  0.10179997636E+01 0.  0.
     999903    2    3    3    0    0 -0.73942363334E-01 -0.44986344650E-01  0.84353304073E-01  0.12920037127E+00  0.45672877388E-01 0.  0.
         14    1    1    2    0    0 -0.21670243270E-01  0.32179337753E-03 -0.13640991931E-01  0.25608195079E-01  0.00000000000E+00 0. -1.
     999901    1    3    3    0    0  0.95612606604E-01  0.44664551272E-01 -0.70712312142E-01  0.88912143365E+00  0.88000000000E+00 0. -1.
        -11    1    4    4    0    0 -0.64183120870E-02 -0.24061474379E-01  0.10696694275E-01  0.27107741860E-01  0.51100000000E-03 0.  1.
         11    1    4    4    0    0 -0.67524051247E-01 -0.20924870271E-01  0.73656609798E-01  0.10209262941E+00  0.51100000000E-03 0. -1.
</event>
<event>
 8    1  0.2123879E+004  0.1043930E+01  0.7957747E-01            NaN
         13   -1    0    0    0    0  0.00000000000E+00  0.00000000000E+00  0.74505805969E-08  0.10566000000E+00  0.10566000000E+00 0. -1.
     999900   -1    0    0    0    0 -0.00000000000E+00 -0.00000000000E+00 -0.74505805969E-08  0.93827000000E+00  0.93827000000E+00 0. -1.
     999902    2    1    2    0    0  0.11700814813E-01 -0.31807841890E-03  0.43677868475E-02  0.10314364896E+01  0.10313608215E+01 0.  0.
     999903    2    3    3    0    0  0.13187327248E+00  0.27353681100E-01  0.14487266260E-01  0.14278045390E+00  0.45139708309E-01 0.  0.
         14    1    1    2    0    0 -0.11700814813E-01  0.31807841890E-03 -0.43677868475E-02  0.12493510440E-01  0.00000000000E+00 0. -1.
     999901    1    3    3    0    0 -0.12017245767E+00 -0.27671759519E-01 -0.10119479412E-01  0.88865603566E+00  0.88000000000E+00 0.  1.
        -11    1    4    4    0    0  0.60775587895E-01 -0.10150136820E-01  0.79566449693E-02  0.62131044427E-01  0.51100000000E-03 0. -1.
         11    1    4    4    0    0  0.71097684588E-01  0.37503817920E-01  0.65306212907E-02  0.80649409470E-01  0.51100000000E-03 0.  1.
</event>
<event>
 8    1  0.2123879E+004  0.1043930E+01  0.7957747E-01            NaN
         13   -1    0    0    0    0  0.00000000000E+00  0.00000000000E+00  0.74505805969E-08  0.10566000000E+00  0.10566000000E+00 0. -1.
     999900   -1    0    0    0    0 -0.00000000000E+00 -0.00000000000E+00 -0.74505805969E-08  0.93827000000E+00  0.93827000000E+00 0.  1.
     999902    2    1    2    0    0 -0.43224953010E-02  0.10109870080E-01  0.11532357022E-01  0.10279961148E+01  0.10278726202E+01 0.  0.
     999903    2    3    3    0    0  0.65092921507E-01 -0.10549339211E+00 -0.34144525829E-01  0.13655402923E+00  0.45991412746E-01 0.  0.
         14    1    1    2    0    0  0.43224953010E-02 -0.10109870080E-01 -0.11532357022E-01  0.15933885187E-01  0.00000000000E+00 0.  1.
     999901    1    3    3    0    0 -0.69415416808E-01  0.11560326219E+00  0.45676882851E-01  0.89144208558E+00  0.88000000000E+00 0. -1.
        -11    1    4    4    0    0  0.35855005598E-01 -0.18971240112E-01 -0.14905354065E-01  0.43219440980E-01  0.51100000000E-03 0. -1.
         11    1    4    4    0    0  0.29237915908E-01 -0.86522151997E-01 -0.19239171763E-01  0.93334588251E-01  0.51100000000E-03 0.  1.
</event>
<event>
 8    1  0.2123879E+004  0.1043930E+01  0.7957747E-01            NaN
         13   -1    0    0    0    0  0.00000000000E+00  0.00000000000E+00  0.74505805969E-08  0.10566000000E+00  0.10566000000E+00 0. -1.
     999900   -1    0    0    0    0 -0.00000000000E+00 -0.00000000000E+00 -0.74505805969E-08  0.93827000000E+00  0.93827000000E+00 0.  1.
     999902    2    1    2    0    0  0.66806632843E-02 -0.82831736890E-02 -0.10029888848E-01  0.10293067001E+01  0.10292028187E+01 0.  0.
     999903    2    3    3    0    0  0.11060586661E+00 -0.45703761019E-01  0.56749598631E-01  0.13989102219E+00  0.45016548586E-01 0.  0.
         14    1    1    2    0    0 -0.66806632843E-02  0.82831736890E-02  0.10029888848E-01  0.14623299853E-01  0.00000000000E+00 0. -1.
     999901    1    3    3    0    0 -0.10392520332E+00  0.37420587330E-01 -0.66779487479E-01  0.88941567795E+00  0.88000000000E+00 0. -1.
        -11    1    4    4    0    0  0.78345390927E-01 -0.30809563879E-01  0.61193901425E-01  0.10407777956E+00  0.51100000000E-03 0.  1.
         11    1    4    4    0    0  0.32260475679E-01 -0.14894197139E-01 -0.44443027939E-02  0.35813242632E-01  0.51100000000E-03 0. -1.
</event>
<event>
 8    1  0.2123879E+004  0.1043930E+01  0.7957747E-01            NaN
         13   -1    0    0    0    0  0.00000000000E+00  0.00000000000E+00  0.74505805969E-08  0.10566000000E+00  0.10566000000E+00 0. -1.
     999900   -1    0    0    0    0 -0.00000000000E+00 -0.00000000000E+00 -0.74505805969E-08  0.93827000000E+00  0.93827000000E+00 0. -1.
     999902    2    1    2    0    0  0.16315570721E-01 -0.12407680814E-01 -0.27198100055E-02  0.10232528204E+01  0.10230438840E+01 0.  0.
     999903    2    3    3    0    0  0.97080195760E-01  0.74728490402E-01 -0.33373682439E-01  0.13473985091E+00  0.45078964693E-01 0.  0.
         14    1    1    2    0    0 -0.16315570721E-01  0.12407680814E-01  0.27198100055E-02  0.20677179634E-01  0.00000000000E+00 0. -1.
     999901    1    3    3    0    0 -0.80764625039E-01 -0.87136171216E-01  0.30653872434E-01  0.88851296945E+00  0.88000000000E+00 0. -1.
        -11    1    4    4    0    0  0.65613153126E-01  0.35159694968E-01 -0.38703065650E-01  0.83901599658E-01  0.51100000000E-03 0. -1.
         11    1    4    4    0    0  0.31467042634E-01  0.39568795434E-01  0.53293832111E-02  0.50838251254E-01  0.51100000000E-03 0.  1.
</event>
<event>
 8    1  0.2123879E+004  0.1043930E+01  0.7957747E-01            NaN
         13   -1    0    0    0    0  0.00000000000E+00  0.00000000000E+00  0.74505805969E-08  0.10566000000E+00  0.10566000000E+00 0.  1.
     999900   -1    0    0    0    0 -0.00000000000E+00 -0.00000000000E+00 -0.74505805969E-08  0.93827000000E+00  0.93827000000E+00 0.  1.
     999902    2    1    2    0    0  0.10040406546E-01 -0.78995920299E-02 -0.31072851206E-02  0.10307820519E+01  0.10306981954E+01 0.  0.
     999903    2    3    3    0    0  0.10124918492E+00 -0.65456260082E-01 -0.58449085414E-01  0.14247212507E+00  0.48436467717E-01 0.  0.
         14    1    1    2    0    0 -0.10040406546E-01  0.78995920299E-02  0.31072851206E-02  0.13147948078E-01  0.00000000000E+00 0.  1.
     999901    1    3    3    0    0 -0.91208778371E-01  0.57556668053E-01  0.55341800293E-01  0.88830992685E+00  0.88000000000E+00 0. -1.
        -11    1    4    4    0    0  0.24317340284E-01 -0.43410914554E-01 -0.19202119447E-01  0.53336882672E-01  0.51100000000E-03 0.  1.
         11    1    4    4    0    0  0.76931844633E-01 -0.22045345528E-01 -0.39246965966E-01  0.89135242394E-01  0.51100000000E-03 0. -1.
</event>
<event>
 8    1  0.2123879E+004  0.1043930E+01  0.7957747E-01            NaN
         13   -1    0    0    0    0  0.00000000000E+00  0.00000000000E+00  0.74505805969E-08  0.10566000000E+00  0.10566000000E+00 0.  1.
     999900   -1    0    0    0    0 -0.00000000000E+00 -0.00000000000E+00 -0.74505805969E-08  0.93827000000E+00  0.93827000000E+00 0.  1.
     999902    2    1    2    0    0  0.15237153589E-01  0.24993353133E-02 -0.10551473802E-02  0.10284532154E+01  0.10283367568E+01 0.  0.
     999903    2    3    3    0    0  0.78382191852E-01  0.10587616952E+00 -0.15341275326E-01  0.14003993364E+00  0.44969956776E-01 0.  0.
         14    1    1    2    0    0 -0.15237153589E-01 -0.24993353133E-02  0.10551473802E-02  0.15476784630E-01  0.00000000000E+00 0. -1.
     999901    1    3    3    0    0 -0.63145038263E-01 -0.10337683421E+00  0.14286127946E-01  0.88841328173E+00  0.88000000000E+00 0.  1.
        -11    1    4    4    0    0  0.31885895287E-01  0.30318189502E-01  0.14668232195E-01  0.46382335966E-01  0.51100000000E-03 0. -1.
         11    1    4    4    0    0  0.46496296565E-01  0.75557980019E-01 -0.30009507521E-01  0.93657597670E-01  0.51100000000E-03 0.  1.
</event>
<event>
 8    1  0.2123879E+004  0.1043930E+01  0.7957747E-01            NaN
         13   -1    0    0    0    0  0.00000000000E+00  0.00000000000E+00  0.74505805969E-08  0.10566000000E+00  0.10566000000E+00 0.  1.
     999900   -1    0    0    0    0 -0.00000000000E+00 -0.00000000000E+00 -0.74505805969E-08  0.93827000000E+00  0.93827000000E+00 0. -1.
     999902    2    1    2    0    0  0.70815260656E-02 -0.14821004969E-01 -0.60337454612E-02  0.10264309633E+01  0.10262817869E+01 0.  0.
     999903    2    3    3    0    0  0.33038108552E-01 -0.11292006385E+00  0.57150699179E-01  0.13834907321E+00  0.45075561079E-01 0.  0.
         14    1    1    2    0    0 -0.70815260656E-02  0.14821004969E-01  0.60337454612E-02  0.17499036659E-01  0.00000000000E+00 0.  1.
     999901    1    3    3    0    0 -0.25956582487E-01  0.98099058878E-01 -0.63184444641E-01  0.88808189013E+00  0.88000000000E+00 0.  1.
        -11    1    4    4    0    0  0.19903507657E-03 -0.70223289741E-01  0.20361416511E-01  0.73117702647E-01  0.51100000000E-03 0.  1.
         11    1    4    4    0    0  0.32839073476E-01 -0.42696774105E-01  0.36789282669E-01  0.65231370567E-01  0.51100000000E-03 0. -1.
</event>
<event>
 8    1  0.2123879E+004  0.1043930E+01  0.7957747E-01            NaN
         13   -1    0    0    0    0  0.00000000000E+00  0.00000000000E+00  0.74505805969E-08  0.10566000000E+00  0.10566000000E+00 0. -1.
     999900   -1    0    0    0    0 -0.00000000000E+00 -0.00000000000E+00 -0.74505805969E-08  0.93827000000E+00  0.93827000000E+00 0.  1.
     999902    2    1    2    0    0  0.45182013537E-02 -0.91681331741E-02 -0.79239479863E-02  0.10309971828E+01  0.10309160650E+01 0.  0.
     999903    2    3    3    0    0  0.44481127116E-01 -0.12741911616E+00 -0.24815150696E-02  0.14217214349E+00  0.44638085008E-01 0.  0.
         14    1    1    2    0    0 -0.45182013537E-02  0.91681331741E-02  0.79239479863E-02  0.12932817213E-01  0.00000000000E+00 0. -1.
     999901    1    3    3    0    0 -0.39962925762E-01  0.11825098299E+00 -0.54424329167E-02  0.88882503930E+00  0.88000000000E+00 0. -1.
        -11    1    4    4    0    0  0.39253191715E-01 -0.10172591682E+00 -0.19695786524E-01  0.11080234808E+00  0.51100000000E-03 0. -1.
         11    1    4    4    0    0  0.52279354014E-02 -0.25693199345E-01  0.17214271454E-01  0.31369795407E-01  0.51100000000E-03 0.  1.
</event>
<event>
 8    1  0.2123879E+004  0.1043930E+01  0.7957747E-01            NaN
         13   -1    0    0    0    0  0.00000000000E+00  0.00000000000E+00  0.74505805969E-08  0.10566000000E+00  0.10566000000E+00 0. -1.
     999900   -1    0    0    0    0 -0.00000000000E+00 -0.00000000000E+00 -0.74505805969E-08  0.93827000000E+00  0.93827000000E+00 0. -1.
     999902    2    1    2    0    0 -0.63219262384E-02 -0.12087289658E-01 -0.44323724954E-02  0.10295872231E+01  0.10294873165E+01 0.  0.
     999903    2    3    3    0    0 -0.83417059736E-01  0.33459187747E-01 -0.99136547929E-01  0.13998786270E+00  0.41117191895E-01 0.  0.
         14    1    1    2    0    0  0.63219262384E-02  0.12087289658E-01  0.44323724954E-02  0.14342776878E-01  0.00000000000E+00 0. -1.
     999901    1    3    3    0    0  0.77095133498E-01 -0.45546477405E-01  0.94704175433E-01  0.88959936042E+00  0.88000000000E+00 0. -1.
        -11    1    4    4    0    0 -0.14607904698E-01  0.23195310332E-01 -0.41003053688E-01  0.49324687874E-01  0.51100000000E-03 0.  1.
         11    1    4    4    0    0 -0.68809155038E-01  0.10263877415E-01 -0.58133494240E-01  0.90663174830E-01  0.51100000000E-03 0. -1.
</event>
<event>
 8    1  0.2123879E+004  0.1043930E+01  0.7957747E-01            NaN
         13   -1    0    0    0    0  0.00000000000E+00  0.00000000000E+00  0.74505805969E-08  0.10566000000E+00  0.10566000000E+00 0. -1.
     999900   -1    0    0    0    0 -0.00000000000E+00 -0.00000000000E+00 -0.74505805969E-08  0.93827000000E+00  0.93827000000E+00 0. -1.
     999902    2    1    2    0    0 -0.83569141399E-02 -0.96289635939E-02 -0.50944593534E-02  0.10302001613E+01  0.10301086661E+01 0.  0.
     999903    2    3    3    0    0  0.10054478075E+00  0.81163872363E-01 -0.22660878167E-01  0.13867814967E+00  0.44958721982E-01 0.  0.
         14    1    1    2    0    0  0.83569141399E-02  0.96289635939E-02  0.50944593534E-02  0.13729838671E-01  0.00000000000E+00 0. -1.
     999901    1    3    3    0    0 -0.10890169489E+00 -0.90792835957E-01  0.17566418813E-01  0.89152201166E+00  0.88000000000E+00 0. -1.
        -11    1    4    4    0    0  0.35854507170E-01  0.25747863171E-01 -0.29699628358E-01  0.53205518397E-01  0.51100000000E-03 0.  1.
         11    1    4    4    0    0  0.64690273580E-01  0.55416009192E-01  0.70387501916E-02  0.85472631268E-01  0.51100000000E-03 0. -1.
</event>
<event>
 8    1  0.2123879E+004  0.1043930E+01  0.7957747E-01            NaN
         13   -1    0    0    0    0  0.00000000000E+00  0.00000000000E+00  0.74505805969E-08  0.10566000000E+00  0.10566000000E+00 0.  1.
     999900   -1    0    0    0    0 -0.00000000000E+00 -0.00000000000E+00 -0.74505805969E-08  0.93827000000E+00  0.93827000000E+00 0.  1.
     999902    2    1    2    0    0  0.51943307881E-02 -0.13019309434E-01  0.77730241047E-03  0.10298912077E+01  0.10297955195E+01 0.  0.
     999903    2    3    3    0    0 -0.74778336136E-02  0.72824483171E-01  0.10951888467E+00  0.13896221378E+00  0.44235589907E-01 0.  0.
         14    1    1    2    0    0 -0.51943307881E-02  0.13019309434E-01 -0.77730241047E-03  0.14038792310E-01  0.00000000000E+00 0.  1.
     999901    1    3    3    0    0  0.12672164402E-01 -0.85843792605E-01 -0.10874158226E+00  0.89092899391E+00  0.88000000000E+00 0.  1.
        -11    1    4    4    0    0 -0.17018621299E-01  0.24753737775E-01  0.69403038456E-01  0.75626872689E-01  0.51100000000E-03 0. -1.
         11    1    4    4    0    0  0.95407876856E-02  0.48070745396E-01  0.40115846214E-01  0.63335341090E-01  0.51100000000E-03 0.  1.
</event>
<event>
 8    1  0.2123879E+004  0.1043930E+01  0.7957747E-01            NaN
         13   -1    0    0    0    0  0.00000000000E+00  0.00000000000E+00  0.74505805969E-08  0.10566000000E+00  0.10566000000E+00 0. -1.
     999900   -1    0    0    0    0 -0.00000000000E+00 -0.00000000000E+00 -0.74505805969E-08  0.93827000000E+00  0.93827000000E+00 0. -1.
     999902    2    1    2    0    0  0.11394522332E-01  0.39731062967E-02  0.67943314090E-02  0.10300814025E+01  0.10299883068E+01 0.  0.
     999903    2    3    3    0    0  0.12813785538E+00  0.37975638330E-01  0.19091750546E-02  0.14170702044E+00  0.47072025707E-01 0.  0.
         14    1    1    2    0    0 -0.11394522332E-01 -0.39731062967E-02 -0.67943314090E-02  0.13848597478E-01  0.00000000000E+00 0.  1.
     999901    1    3    3    0    0 -0.11674333304E+00 -0.34002532034E-01  0.48851563545E-02  0.88837438209E+00  0.88000000000E+00 0. -1.
        -11    1    4    4    0    0  0.88146032581E-01  0.42836040683E-02  0.99000400706E-02  0.88805091284E-01  0.51100000000E-03 0. -1.
         11    1    4    4    0    0  0.39991822796E-01  0.33692034262E-01 -0.79908650160E-02  0.52901929151E-01  0.51100000000E-03 0.  1.
</event>
<event>
 8    1  0.2123879E+004  0.1043930E+01  0.7957747E-01            NaN
         13   -1    0    0    0    0  0.00000000000E+00  0.00000000000E+00  0.74505805969E-08  0.10566000000E+00  0.10566000000E+00 0. -1.
     999900   -1    0    0    0    0 -0.00000000000E+00 -0.00000000000E+00 -0.74505805969E-08  0.93827000000E+00  0.93827000000E+00 0. -1.
     999902    2    1    2    0    0 -0.23916625168E-02 -0.12794091848E-01  0.54813150991E-02  0.10298071939E+01  0.10297103491E+01 0.  0.
     999903    2    3    3    0    0  0.25944365173E-02 -0.13304288247E+00 -0.18845348592E-01  0.14128233813E+00  0.43570772601E-01 0.  0.
         14    1    1    2    0    0  0.23916625168E-02  0.12794091848E-01 -0.54813150991E-02  0.14122806061E-01  0.00000000000E+00 0.  1.
     999901    1    3    3    0    0 -0.49860990341E-02  0.12024879063E+00  0.24326663691E-01  0.88852485581E+00  0.88000000000E+00 0.  1.
        -11    1    4    4    0    0  0.12336796400E-01 -0.11493465953E+00 -0.27731649143E-01  0.11887589323E+00  0.51100000000E-03 0.  1.
         11    1    4    4    0    0 -0.97423598831E-02 -0.18108222943E-01  0.88863005508E-02  0.22406444893E-01  0.51100000000E-03 0. -1.
</event>
<event>
 8    1  0.2123879E+004  0.1043930E+01  0.7957747E-01            NaN
         13   -1    0    0    0    0  0.00000000000E+00  0.00000000000E+00  0.74505805969E-08  0.10566000000E+00  0.10566000000E+00 0.  1.
     999900   -1    0    0    0    0 -0.00000000000E+00 -0.00000000000E+00 -0.74505805969E-08  0.93827000000E+00  0.93827000000E+00 0.  1.
     999902    2    1    2    0    0 -0.52956208837E-02  0.11406648070E-01 -0.56858874100E-02  0.10301283865E+01  0.10300359256E+01 0.  0.
     999903    2    3    3    0    0 -0.89264650378E-01 -0.47336331256E-01  0.85533150194E-01  0.13949802073E+00  0.43987179285E-01 0.  0.
         14    1    1    2    0    0  0.52956208837E-02 -0.11406648070E-01  0.56858874100E-02  0.13801613542E-01  0.00000000000E+00 0. -1.
     999901    1    3    3    0    0  0.83969029494E-01  0.58742979326E-01 -0.91219037604E-01  0.89063036573E+00  0.88000000000E+00 0.  1.
        -11    1    4    4    0    0 -0.68649429879E-01 -0.32664961116E-01  0.36533792153E-01  0.84348817404E-01  0.51100000000E-03 0.  1.
         11    1    4    4    0    0 -0.20615220499E-01 -0.14671370141E-01  0.48999358041E-01  0.55149203326E-01  0.51100000000E-03 0. -1.
</event>
<event>
 8    1  0.2123879E+004  0.1043930E+01  0.7957747E-01            NaN
         13   -1    0    0    0    0  0.00000000000E+00  0.00000000000E+00  0.74505805969E-08  0.10566000000E+00  0.10566000000E+00 0. -1.
     999900   -1    0    0    0    0 -0.00000000000E+00 -0.00000000000E+00 -0.74505805969E-08  0.93827000000E+00  0.93827000000E+00 0. -1.
     999902    2    1    2    0    0 -0.71927282448E-02 -0.87514073133E-02  0.44547689620E-02  0.10317575953E+01  0.10316857894E+01 0.  0.
     999903    2    3    3    0    0 -0.12934436136E+00 -0.40480740444E-02  0.39367053408E-01  0.14262205422E+00  0.45220954608E-01 0.  0.
         14    1    1    2    0    0  0.71927282448E-02  0.87514073133E-02 -0.44547689620E-02  0.12172404696E-01  0.00000000000E+00 0.  1.
     999901    1    3    3    0    0  0.12215163312E+00 -0.47033332689E-02 -0.34912284446E-01  0.88913554109E+00  0.88000000000E+00 0. -1.
        -11    1    4    4    0    0 -0.40936809645E-01  0.11923530054E-02  0.35125200191E-01  0.53956323995E-01  0.51100000000E-03 0.  1.
         11    1    4    4    0    0 -0.88407551718E-01 -0.52404270497E-02  0.42418532174E-02  0.88665730224E-01  0.51100000000E-03 0. -1.
</event>
<event>
 8    1  0.2123879E+004  0.1043930E+01  0.7957747E-01            NaN
         13   -1    0    0    0    0  0.00000000000E+00  0.00000000000E+00  0.74505805969E-08  0.10566000000E+00  0.10566000000E+00 0.  1.
     999900   -1    0    0    0    0 -0.00000000000E+00 -0.00000000000E+00 -0.74505805969E-08  0.93827000000E+00  0.93827000000E+00 0.  1.
     999902    2    1    2    0    0 -0.93823749945E-02 -0.75620112762E-02 -0.78072362739E-02  0.10295715212E+01  0.10294713941E+01 0.  0.
     999903    2    3    3    0    0  0.12570546536E+00 -0.17462328229E-01 -0.33281804893E-01  0.13884390036E+00  0.45421946245E-01 0.  0.
         14    1    1    2    0    0  0.93823749945E-02  0.75620112762E-02  0.78072362739E-02  0.14358478795E-01  0.00000000000E+00 0.  1.
     999901    1    3    3    0    0 -0.13508784036E+00  0.99003169532E-02  0.25474568619E-01  0.89072762084E+00  0.88000000000E+00 0. -1.
        -11    1    4    4    0    0  0.72197374218E-01 -0.13832041397E-01 -0.41758277578E-01  0.84544669143E-01  0.51100000000E-03 0. -1.
         11    1    4    4    0    0  0.53508091146E-01 -0.36302868325E-02  0.84764726853E-02  0.54299231217E-01  0.51100000000E-03 0.  1.
</event>
<event>
 8    1  0.2123879E+004  0.1043930E+01  0.7957747E-01            NaN
         13   -1    0    0    0    0  0.00000000000E+00  0.00000000000E+00  0.74505805969E-08  0.10566000000E+00  0.10566000000E+00 0. -1.
     999900   -1    0    0    0    0 -0.00000000000E+00 -0.00000000000E+00 -0.74505805969E-08  0.93827000000E+00  0.93827000000E+00 0.  1.
     999902    2    1    2    0    0  0.50069119397E-02 -0.10499625691E-01 -0.76586060117E-02  0.10300028484E+01  0.10299086863E+01 0.  0.
     999903    2    3    3    0    0  0.78026464680E-01  0.74516049154E-01  0.74648364809E-01  0.13908536761E+00  0.46169149259E-01 0.  0.
         14    1    1    2    0    0 -0.50069119397E-02  0.10499625691E-01  0.76586060117E-02  0.13927151642E-01  0.00000000000E+00 0. -1.
     999901    1    3    3    0    0 -0.73019552740E-01 -0.85015674845E-01 -0.82306970821E-01  0.89091748075E+00  0.88000000000E+00 0. -1.
        -11    1    4    4    0    0  0.38652089697E-01  0.11411008445E-01  0.12623053817E-01  0.42235030015E-01  0.51100000000E-03 0. -1.
         11    1    4    4    0    0  0.39374374983E-01  0.63105040708E-01  0.62025310992E-01  0.96850337597E-01  0.51100000000E-03 0.  1.
</event>
<event>
 8    1  0.2123879E+004  0.1043930E+01  0.7957747E-01            NaN
         13   -1    0    0    0    0  0.00000000000E+00  0.00000000000E+00  0.74505805969E-08  0.10566000000E+00  0.10566000000E+00 0. -1.
     999900   -1    0    0    0    0 -0.00000000000E+00 -0.00000000000E+00 -0.74505805969E-08  0.93827000000E+00  0.93827000000E+00 0. -1.
     999902    2    1    2    0    0 -0.83768163150E-02 -0.77274584070E-02 -0.62076218876E-02  0.10309523564E+01  0.10308706717E+01 0.  0.
     999903    2    3    3    0    0  0.74312973179E-01  0.27809532651E-01 -0.10714695501E+00  0.14062139093E+00  0.44700307955E-01 0.  0.
         14    1    1    2    0    0  0.83768163150E-02  0.77274584070E-02  0.62076218876E-02  0.12977643642E-01  0.00000000000E+00 0.  1.
     999901    1    3    3    0    0 -0.82689789494E-01 -0.35536991058E-01  0.10093933312E+00  0.89033096542E+00  0.88000000000E+00 0.  1.
        -11    1    4    4    0    0  0.76279889593E-01  0.15977111196E-01 -0.84266064601E-01  0.11478205610E+00  0.51100000000E-03 0. -1.
         11    1    4    4    0    0 -0.19669164142E-02  0.11832421455E-01 -0.22880890410E-01  0.25839334833E-01  0.51100000000E-03 0.  1.
</event>
<event>
 8    1  0.2123879E+004  0.1043930E+01  0.7957747E-01            NaN
         13   -1    0    0    0    0  0.00000000000E+00  0.00000000000E+00  0.74505805969E-08  0.10566000000E+00  0.10566000000E+00 0. -1.
     999900   -1    0    0    0    0 -0.00000000000E+00 -0.00000000000E+00 -0.74505805969E-08  0.93827000000E+00  0.93827000000E+00 0. -1.
     999902    2    1    2    0    0 -0.60435269608E-02  0.91672287589E-02  0.76710441226E-02  0.10305357020E+01  0.10304486527E+01 0.  0.
     999903    2    3    3    0    0  0.14217090376E-01  0.11221394153E+00  0.73036987582E-01  0.14188401309E+00  0.44750165151E-01 0.  0.
         14    1    1    2    0    0  0.60435269608E-02 -0.91672287589E-02 -0.76710441226E-02  0.13394298010E-01  0.00000000000E+00 0.  1.
     999901    1    3    3    0    0 -0.20260617337E-01 -0.10304671277E+00 -0.65365943459E-01  0.88865168890E+00  0.88000000000E+00 0. -1.
        -11    1    4    4    0    0  0.27339730740E-01  0.10000865074E+00  0.63434559016E-01  0.12154585759E+00  0.51100000000E-03 0.  1.
         11    1    4    4    0    0 -0.13122640364E-01  0.12205290798E-01  0.96024285660E-02  0.20338155495E-01  0.51100000000E-03 0. -1.
</event>
<event>
 8    1  0.2123879E+004  0.1043930E+01  0.7957747E-01            NaN
         13   -1    0    0    0    0  0.00000000000E+00  0.00000000000E+00  0.74505805969E-08  0.10566000000E+00  0.10566000000E+00 0. -1.
     999900   -1    0    0    0    0 -0.00000000000E+00 -0.00000000000E+00 -0.74505805969E-08  0.93827000000E+00  0.93827000000E+00 0.  1.
     999902    2    1    2    0    0 -0.13660952737E-01  0.31948646600E-02 -0.44623268555E-03  0.10298933368E+01  0.10297976778E+01 0.  0.
     999903    2    3    3    0    0  0.56145312721E-01 -0.11681485723E+00  0.20024126520E-01  0.13877365705E+00  0.45377915757E-01 0.  0.
         14    1    1    2    0    0  0.13660952737E-01 -0.31948646600E-02  0.44623268555E-03  0.14036663189E-01  0.00000000000E+00 0.  1.
     999901    1    3    3    0    0 -0.69806265458E-01  0.12000972189E+00 -0.20470359206E-01  0.89111967976E+00  0.88000000000E+00 0.  1.
        -11    1    4    4    0    0 -0.37200548404E-02 -0.26537926518E-01  0.14107632282E-01  0.30288393182E-01  0.51100000000E-03 0.  1.
         11    1    4    4    0    0  0.59865367562E-01 -0.90276930713E-01  0.59164942383E-02  0.10848526387E+00  0.51100000000E-03 0. -1.
</event>
<event>
 8    1  0.2123879E+004  0.1043930E+01  0.7957747E-01            NaN
         13   -1    0    0    0    0  0.00000000000E+00  0.00000000000E+00  0.74505805969E-08  0.10566000000E+00  0.10566000000E+00 0. -1.
     999900   -1    0    0    0    0 -0.00000000000E+00 -0.00000000000E+00 -0.74505805969E-08  0.93827000000E+00  0.93827000000E+00 0. -1.
     999902    2    1    2    0    0 -0.54862924255E-02  0.80047951378E-02  0.10140047109E-01  0.10298944485E+01  0.10297988048E+01 0.  0.
     999903    2    3    3    0    0 -0.11727754235E+00 -0.20356357900E-02  0.64323201111E-01  0.14111218723E+00  0.44911128153E-01 0.  0.
         14    1    1    2    0    0  0.54862924255E-02 -0.80047951378E-02 -0.10140047109E-01  0.14035551473E-01  0.00000000000E+00 0.  1.
     999901    1    3    3    0    0  0.11179124992E+00  0.10040430928E-01 -0.54183154002E-01  0.88878226129E+00  0.88000000000E+00 0.  1.
        -11    1    4    4    0    0 -0.89886426758E-01 -0.50919791071E-02  0.25639583629E-01  0.93611683759E-01  0.51100000000E-03 0.  1.
         11    1    4    4    0    0 -0.27391115592E-01  0.30563433171E-02  0.38683617482E-01  0.47500503475E-01  0.51100000000E-03 0. -1.
</event>
<event>
 8    1  0.2123879E+004  0.1043930E+01  0.7957747E-01            NaN
         13   -1    0    0    0    0  0.00000000000E+00  0.00000000000E+00  0.74505805969E-08  0.10566000000E+00  0.10566000000E+00 0.  1.
     999900   -1    0    0    0    0 -0.00000000000E+00 -0.00000000000E+00 -0.74505805969E-08  0.93827000000E+00  0.93827000000E+00 0.  1.
     999902    2    1    2    0    0  0.64232484459E-02 -0.12534904955E-01 -0.22127187168E-02  0.10296724376E+01  0.10295737227E+01 0.  0.
     999903    2    3    3    0    0 -0.93923733321E-02  0.10700421673E+00  0.74513656155E-01  0.13814191530E+00  0.44640617540E-01 0.  0.
         14    1    1    2    0    0 -0.64232484459E-02  0.12534904955E-01  0.22127187168E-02  0.14257562448E-01  0.00000000000E+00 0.  1.
     999901    1    3    3    0    0  0.15815621778E-01 -0.11953912169E+00 -0.76726374871E-01  0.89153052225E+00  0.88000000000E+00 0.  1.
        -11    1    4    4    0    0  0.11417557965E-01  0.52713651780E-01  0.54424241134E-01  0.76624727457E-01  0.51100000000E-03 0.  1.
         11    1    4    4    0    0 -0.20809931297E-01  0.54290564951E-01  0.20089415020E-01  0.61517187843E-01  0.51100000000E-03 0. -1.
</event>
<event>
 8    1  0.2123879E+004  0.1043930E+01  0.7957747E-01            NaN
         13   -1    0    0    0    0  0.00000000000E+00  0.00000000000E+00  0.74505805969E-08  0.10566000000E+00  0.10566000000E+00 0.  1.
     999900   -1    0    0    0    0 -0.00000000000E+00 -0.00000000000E+00 -0.74505805969E-08  0.93827000000E+00  0.93827000000E+00 0.  1.
     999902    2    1    2    0    0 -0.12365822959E-01  0.61424956633E-03  0.68432259450E-02  0.10297836004E+01  0.10296864295E+01 0.  0.
     999903    2    3    3    0    0  0.48747406200E-01  0.11728503215E+00 -0.34464610238E-01  0.13902368011E+00  0.44807208072E-01 0.  0.
         14    1    1    2    0    0  0.12365822959E-01 -0.61424956633E-03 -0.68432259450E-02  0.14146399588E-01  0.00000000000E+00 0. -1.
     999901    1    3    3    0    0 -0.61113229159E-01 -0.11667078258E+00  0.41307836183E-01  0.89075992030E+00  0.88000000000E+00 0.  1.
        -11    1    4    4    0    0 -0.64313302547E-03  0.16680472980E-01 -0.19941243360E-01  0.26010884388E-01  0.51100000000E-03 0.  1.
         11    1    4    4    0    0  0.49390539225E-01  0.10060455917E+00 -0.14523366879E-01  0.11301279572E+00  0.51100000000E-03 0. -1.
</event>
<event>
 8    1  0.2123879E+004  0.1043930E+01  0.7957747E-01            NaN
         13   -1    0    0    0    0  0.00000000000E+00  0.00000000000E+00  0.74505805969E-08  0.10566000000E+00  0.10566000000E+00 0. -1.
     999900   -1    0    0    0    0 -0.00000000000E+00 -0.00000000000E+00 -0.74505805969E-08  0.93827000000E+00  0.93827000000E+00 0.  1.
     999902    2    1    2    0    0 -0.90269157172E-02  0.70942355430E-02 -0.78596928429E-02  0.10300164039E+01  0.10299224263E+01 0.  0.
     999903    2    3    3    0    0 -0.13024959601E+00 -0.28454485819E-01 -0.85666369399E-02  0.14099494769E+00  0.45072973936E-01 0.  0.
         14    1    1    2    0    0  0.90269157172E-02 -0.70942355430E-02  0.78596928429E-02  0.13913596116E-01  0.00000000000E+00 0. -1.
     999901    1    3    3    0    0  0.12122268030E+00  0.35548721362E-01  0.70694409702E-03  0.88902145620E+00  0.88000000000E+00 0. -1.
        -11    1    4    4    0    0 -0.45236945158E-01 -0.21607774762E-01  0.15320113549E-01  0.52423698244E-01  0.51100000000E-03 0.  1.
         11    1    4    4    0    0 -0.85012650857E-01 -0.68467110578E-02 -0.23886750489E-01  0.88571249443E-01  0.51100000000E-03 0. -1.
</event>
<event>
 8    1  0.2123879E+004  0.1043930E+01  0.7957747E-01            NaN
         13   -1    0    0    0    0  0.00000000000E+00  0.00000000000E+00  0.74505805969E-08  0.10566000000E+00  0.10566000000E+00 0. -1.
     999900   -1    0    0    0    0 -0.00000000000E+00 -0.00000000000E+00 -0.74505805969E-08  0.93827000000E+00  0.93827000000E+00 0.  1.
     999902    2    1    2    0    0  0.11008124523E-01 -0.85552338588E-02 -0.27650483440E-02  0.10297167553E+01  0.10296186575E+01 0.  0.
     999903    2    3    3    0    0  0.12361157354E+00  0.32331302682E-01 -0.38632965822E-01  0.14087607606E+00  0.45038078489E-01 0.  0.
         14    1    1    2    0    0 -0.11008124523E-01  0.85552338588E-02  0.27650483440E-02  0.14213244677E-01  0.00000000000E+00 0. -1.
     999901    1    3    3    0    0 -0.11260344901E+00 -0.40886536541E-01  0.35867917478E-01  0.88884067926E+00  0.88000000000E+00 0. -1.
        -11    1    4    4    0    0  0.85217260480E-01  0.18943511465E-01 -0.47312550434E-01  0.99295401001E-01  0.51100000000E-03 0.  1.
         11    1    4    4    0    0  0.38394313056E-01  0.13387791216E-01  0.86795846121E-02  0.41580675064E-01  0.51100000000E-03 0. -1.
</event>
<event>
 8    1  0.2123879E+004  0.1043930E+01  0.7957747E-01            NaN
         13   -1    0    0    0    0  0.00000000000E+00  0.00000000000E+00  0.74505805969E-08  0.10566000000E+00  0.10566000000E+00 0. -1.
     999900   -1    0    0    0    0 -0.00000000000E+00 -0.00000000000E+00 -0.74505805969E-08  0.93827000000E+00  0.93827000000E+00 0.  1.
     999902    2    1    2    0    0 -0.72020125450E-02 -0.38084771499E-02  0.11014244218E-01  0.10302301074E+01  0.10301390135E+01 0.  0.
     999903    2    3    3    0    0  0.84059761859E-01  0.32016089068E-01 -0.95334842894E-01  0.13842169780E+00  0.44505737047E-01 0.  0.
         14    1    1    2    0    0  0.72020125450E-02  0.38084771499E-02 -0.11014244218E-01  0.13699892649E-01  0.00000000000E+00 0.  1.
     999901    1    3    3    0    0 -0.91261774404E-01 -0.35824566218E-01  0.10634908711E+00  0.89180840955E+00  0.88000000000E+00 0. -1.
        -11    1    4    4    0    0  0.15888696099E-01 -0.68953456690E-02 -0.36233620779E-01  0.40163825159E-01  0.51100000000E-03 0.  1.
         11    1    4    4    0    0  0.68171065759E-01  0.38911434737E-01 -0.59101222115E-01  0.98257872644E-01  0.51100000000E-03 0. -1.
</event>
<event>
 8    1  0.2123879E+004  0.1043930E+01  0.7957747E-01            NaN
         13   -1    0    0    0    0  0.00000000000E+00  0.00000000000E+00  0.74505805969E-08  0.10566000000E+00  0.10566000000E+00 0. -1.
     999900   -1    0    0    0    0 -0.00000000000E+00 -0.00000000000E+00 -0.74505805969E-08  0.93827000000E+00  0.93827000000E+00 0.  1.
     999902    2    1    2    0    0 -0.16877254646E-01 -0.61357550729E-02  0.12397485385E-01  0.10221082939E+01  0.10218753239E+01 0.  0.
     999903    2    3    3    0    0  0.90674879429E-01  0.80901139116E-01  0.20963020814E-01  0.13125687478E+00  0.44966552738E-01 0.  0.
         14    1    1    2    0    0  0.16877254646E-01  0.61357550729E-02 -0.12397485385E-01  0.21821706134E-01  0.00000000000E+00 0.  1.
     999901    1    3    3    0    0 -0.10755213407E+00 -0.87036894189E-01 -0.85655354286E-02  0.89085141909E+00  0.88000000000E+00 0.  1.
        -11    1    4    4    0    0  0.41690673120E-01  0.64998571010E-01  0.52059572468E-02  0.77396960989E-01  0.51100000000E-03 0.  1.
         11    1    4    4    0    0  0.48984206309E-01  0.15902568106E-01  0.15757063567E-01  0.53859913789E-01  0.51100000000E-03 0. -1.
</event>
<event>
 8    1  0.2123879E+004  0.1043930E+01  0.7957747E-01            NaN
         13   -1    0    0    0    0  0.00000000000E+00  0.00000000000E+00  0.74505805969E-08  0.10566000000E+00  0.10566000000E+00 0.  1.
     999900   -1    0    0    0    0 -0.00000000000E+00 -0.00000000000E+00 -0.74505805969E-08  0.93827000000E+00  0.93827000000E+00 0. -1.
     999902    2    1    2    0    0 -0.10893334388E-02  0.13016114081E-01 -0.10218550688E-02  0.10308284710E+01  0.10307452094E+01 0.  0.
     999903    2    3    3    0    0 -0.29650085448E-01  0.92791616258E-01 -0.92922971409E-01  0.14199459316E+00  0.45148358280E-01 0.  0.
         14    1    1    2    0    0  0.10893334388E-02 -0.13016114081E-01  0.10218550688E-02  0.13101528952E-01  0.00000000000E+00 0.  1.
     999901    1    3    3    0    0  0.28560752009E-01 -0.79775502177E-01  0.91901116341E-01  0.88883387789E+00  0.88000000000E+00 0.  1.
        -11    1    4    4    0    0 -0.15507984836E-01  0.27708060744E-01 -0.57238972703E-02  0.32268534903E-01  0.51100000000E-03 0.  1.
         11    1    4    4    0    0 -0.14142100612E-01  0.65083555514E-01 -0.87199074139E-01  0.10972605825E+00  0.51100000000E-03 0. -1.
</event>
<event>
 8    1  0.2123879E+004  0.1043930E+01  0.7957747E-01            NaN
         13   -1    0    0    0    0  0.00000000000E+00  0.00000000000E+00  0.74505805969E-08  0.10566000000E+00  0.10566000000E+00 0. -1.
     999900   -1    0    0    0    0 -0.00000000000E+00 -0.00000000000E+00 -0.74505805969E-08  0.93827000000E+00  0.93827000000E+00 0. -1.
     999902    2    1    2    0    0 -0.35898965412E-02 -0.12230633011E-01  0.15908515260E-02  0.10310845125E+01  0.10310044934E+01 0.  0.
     999903    2    3    3    0    0 -0.74794544278E-01 -0.11039301234E+00 -0.20546900525E-01  0.14249234808E+00  0.45837245902E-01 0.  0.
         14    1    1    2    0    0  0.35898965412E-02  0.12230633011E-01 -0.15908515260E-02  0.12845487519E-01  0.00000000000E+00 0. -1.
     999901    1    3    3    0    0  0.71204647737E-01  0.98162379329E-01  0.22137752051E-01  0.88859216440E+00  0.88000000000E+00 0.  1.
        -11    1    4    4    0    0 -0.69567648837E-01 -0.91458824220E-01 -0.32593526480E-01  0.11944443638E+00  0.51100000000E-03 0. -1.
         11    1    4    4    0    0 -0.52268954408E-02 -0.18934188120E-01  0.12046625955E-01  0.23047911698E-01  0.51100000000E-03 0.  1.
</event>
<event>
 8    1  0.2123879E+004  0.1043930E+01  0.7957747E-01            NaN
         13   -1    0    0    0    0  0.00000000000E+00  0.00000000000E+00  0.74505805969E-08  0.10566000000E+00  0.10566000000E+00 0.  1.
     999900   -1    0    0    0    0 -0.00000000000E+00 -0.00000000000E+00 -0.74505805969E-08  0.93827000000E+00  0.93827000000E+00 0. -1.
     999902    2    1    2    0    0 -0.13215106897E-02 -0.10387738917E-01 -0.86580473851E-02  0.10303427525E+01  0.10302531603E+01 0.  0.
     999903    2    3    3    0    0  0.14053126735E-01  0.10011325655E+00 -0.86136292735E-01  0.13992165662E+00  0.44027883845E-01 0.  0.
         14    1    1    2    0    0  0.13215106897E-02  0.10387738917E-01  0.86580473851E-02  0.13587247508E-01  0.00000000000E+00 0.  1.
     999901    1    3    3    0    0 -0.15374637425E-01 -0.11050099547E+00  0.77478245349E-01  0.89042109587E+00  0.88000000000E+00 0.  1.
        -11    1    4    4    0    0 -0.12941678925E-01  0.54246710093E-01 -0.33461664616E-01  0.65039501299E-01  0.51100000000E-03 0. -1.
         11    1    4    4    0    0  0.26994805660E-01  0.45866546460E-01 -0.52674628118E-01  0.74882155319E-01  0.51100000000E-03 0.  1.
</event>
<event>
 8    1  0.2123879E+004  0.1043930E+01  0.7957747E-01            NaN
         13   -1    0    0    0    0  0.00000000000E+00  0.00000000000E+00  0.74505805969E-08  0.10566000000E+00  0.10566000000E+00 0. -1.
     999900   -1    0    0    0    0 -0.00000000000E+00 -0.00000000000E+00 -0.74505805969E-08  0.93827000000E+00  0.93827000000E+00 0. -1.
     999902    2    1    2    0    0  0.45875414122E-02 -0.12317718387E-01 -0.23945362443E-02  0.10305694040E+01  0.10304827950E+01 0.  0.
     999903    2    3    3    0    0  0.10956122591E-01 -0.12125717195E+00  0.57302120724E-01  0.14182194028E+00  0.44794992264E-01 0.  0.
         14    1    1    2    0    0 -0.45875414122E-02  0.12317718387E-01  0.23945362443E-02  0.13360596030E-01  0.00000000000E+00 0. -1.
     999901    1    3    3    0    0 -0.63685811784E-02  0.10893945357E+00 -0.59696656968E-01  0.88874746369E+00  0.88000000000E+00 0. -1.
        -11    1    4    4    0    0  0.44225697552E-02 -0.69186188291E-01  0.56334027285E-01  0.89331246071E-01  0.51100000000E-03 0.  1.
         11    1    4    4    0    0  0.65335528353E-02 -0.52070983662E-01  0.96809343877E-03  0.52490694205E-01  0.51100000000E-03 0. -1.
</event>
<event>
 8    1  0.2123879E+004  0.1043930E+01  0.7957747E-01            NaN
         13   -1    0    0    0    0  0.00000000000E+00  0.00000000000E+00  0.74505805969E-08  0.10566000000E+00  0.10566000000E+00 0. -1.
     999900   -1    0    0    0    0 -0.00000000000E+00 -0.00000000000E+00 -0.74505805969E-08  0.93827000000E+00  0.93827000000E+00 0. -1.
     999902    2    1    2    0    0  0.40779523266E-02 -0.73528136195E-02 -0.11138967500E-01  0.10299739920E+01  0.10298794366E+01 0.  0.
     999903    2    3    3    0    0  0.23067243276E-01 -0.61459861868E-01 -0.11785838559E+00  0.14167381745E+00  0.43260364817E-01 0.  0.
         14    1    1    2    0    0 -0.40779523266E-02  0.73528136195E-02  0.11138967500E-01  0.13956008035E-01  0.00000000000E+00 0.  1.
     999901    1    3    3    0    0 -0.18989290950E-01  0.54107048248E-01  0.10671941809E+00  0.88830017451E+00  0.88000000000E+00 0.  1.
        -11    1    4    4    0    0  0.25315125686E-01 -0.34765152457E-01 -0.37828279414E-01  0.57277493470E-01  0.51100000000E-03 0. -1.
         11    1    4    4    0    0 -0.22478824094E-02 -0.26694709411E-01 -0.80030106178E-01  0.84396323982E-01  0.51100000000E-03 0.  1.
</event>
<event>
 8    1  0.2123879E+004  0.1043930E+01  0.7957747E-01            NaN
         13   -1    0    0    0    0  0.00000000000E+00  0.00000000000E+00  0.74505805969E-08  0.10566000000E+00  0.10566000000E+00 0. -1.
     999900   -1    0    0    0    0 -0.00000000000E+00 -0.00000000000E+00 -0.74505805969E-08  0.93827000000E+00  0.93827000000E+00 0. -1.
     999902    2    1    2    0    0 -0.10785094867E-01  0.85539601477E-02 -0.73027497219E-03  0.10301451602E+01  0.10300529255E+01 0.  0.
     999903    2    3    3    0    0  0.32404214969E-01 -0.29541613925E-01  0.12483940335E+00  0.13936778438E+00  0.43769425305E-01 0.  0.
         14    1    1    2    0    0  0.10785094867E-01 -0.85539601477E-02  0.73027497219E-03  0.13784839754E-01  0.00000000000E+00 0.  1.
     999901    1    3    3    0    0 -0.43189309836E-01  0.38095574073E-01 -0.12556967832E+00  0.89077737587E+00  0.88000000000E+00 0. -1.
        -11    1    4    4    0    0  0.34163597925E-01 -0.11899588876E-01  0.11136057451E+00  0.11709052188E+00  0.51100000000E-03 0.  1.
         11    1    4    4    0    0 -0.17593829556E-02 -0.17642025048E-01  0.13478828840E-01  0.22277262491E-01  0.51100000000E-03 0. -1.
</event>
<event>
 8    1  0.2123879E+004  0.1043930E+01  0.7957747E-01            NaN
         13   -1    0    0    0    0  0.00000000000E+00  0.00000000000E+00  0.74505805969E-08  0.10566000000E+00  0.10566000000E+00 0.  1.
     999900   -1    0    0    0    0 -0.00000000000E+00 -0.00000000000E+00 -0.74505805969E-08  0.93827000000E+00  0.93827000000E+00 0. -1.
     999902    2    1    2    0    0  0.11257313693E-01 -0.12908924813E-01 -0.22619683669E-03  0.10268005337E+01  0.10266576437E+01 0.  0.
     999903    2    3    3    0    0 -0.25157680373E-01 -0.11002213956E+00  0.65304907740E-01  0.13828978308E+00  0.46060319733E-01 0.  0.
         14    1    1    2    0    0 -0.11257313693E-01  0.12908924813E-01  0.22619683669E-03  0.17129466320E-01  0.00000000000E+00 0.  1.
     999901    1    3    3    0    0  0.36414994066E-01  0.97113214744E-01 -0.65531104576E-01  0.88851075060E+00  0.88000000000E+00 0.  1.
        -11    1    4    4    0    0 -0.22769503204E-01 -0.81284218592E-01  0.23723337592E-01  0.87684846671E-01  0.51100000000E-03 0. -1.
         11    1    4    4    0    0 -0.23881771688E-02 -0.28737920965E-01  0.41581570148E-01  0.50604936405E-01  0.51100000000E-03 0.  1.
</event>
<event>
 8    1  0.2123879E+004  0.1043930E+01  0.7957747E-01            NaN
         13   -1    0    0    0    0  0.00000000000E+00  0.00000000000E+00  0.74505805969E-08  0.10566000000E+00  0.10566000000E+00 0.  1.
     999900   -1    0    0    0    0 -0.00000000000E+00 -0.00000000000E+00 -0.74505805969E-08  0.93827000000E+00  0.93827000000E+00 0.  1.
     999902    2    1    2    0    0 -0.11534998410E-01  0.33782018391E-02  0.82265800489E-02  0.10293647999E+01  0.10292617481E+01 0.  0.
     999903    2    3    3    0    0  0.99112937953E-01 -0.11726345225E-01 -0.83561798233E-01  0.13757097864E+00  0.44523234370E-01 0.  0.
         14    1    1    2    0    0  0.11534998410E-01 -0.33782018391E-02 -0.82265800489E-02  0.14565200146E-01  0.00000000000E+00 0. -1.
     999901    1    3    3    0    0 -0.11064793636E+00  0.15104547064E-01  0.91788378282E-01  0.89179382121E+00  0.88000000000E+00 0. -1.
        -11    1    4    4    0    0  0.69646120155E-01 -0.25662681928E-01 -0.70753134432E-01  0.10254473389E+00  0.51100000000E-03 0.  1.
         11    1    4    4    0    0  0.29466817798E-01  0.13936336703E-01 -0.12808663801E-01  0.35026244749E-01  0.51100000000E-03 0. -1.
</event>
<event>
 8    1  0.2123879E+004  0.1043930E+01  0.7957747E-01            NaN
         13   -1    0    0    0    0  0.00000000000E+00  0.00000000000E+00  0.74505805969E-08  0.10566000000E+00  0.10566000000E+00 0. -1.
     999900   -1    0    0    0    0 -0.00000000000E+00 -0.00000000000E+00 -0.74505805969E-08  0.93827000000E+00  0.93827000000E+00 0. -1.
     999902    2    1    2    0    0 -0.58846789088E-02  0.40073230997E-02  0.91418441422E-02  0.10323428779E+01  0.10322778483E+01 0.  0.
     999903    2    3    3    0    0  0.47814398519E-01 -0.22428097093E-01  0.12501685108E+00  0.14273091778E+00  0.44200289481E-01 0.  0.
         14    1    1    2    0    0  0.58846789088E-02 -0.40073230997E-02 -0.91418441422E-02  0.11587122102E-01  0.00000000000E+00 0.  1.
     999901    1    3    3    0    0 -0.53699077428E-01  0.26435420192E-01 -0.11587500694E+00  0.88961196012E+00  0.88000000000E+00 0. -1.
        -11    1    4    4    0    0  0.17923337852E-01 -0.52966206256E-02  0.72936018385E-02  0.20068831022E-01  0.51100000000E-03 0. -1.
         11    1    4    4    0    0  0.29891060667E-01 -0.17131476467E-01  0.11772324924E+00  0.12266208675E+00  0.51100000000E-03 0.  1.
</event>
<event>
 7    1  0.2123879E+004  0.1043930E+01  0.7957747E-01            NaN
         13   -1    0    0    0    0  0.00000000000E+00  0.00000000000E+00  0.74505805969E-08  0.10566000000E+00  0.10566000000E+00 0.  1.
     999900   -1    0    0    0    0 -0.00000000000E+00 -0.00000000000E+00 -0.74505805969E-08  0.93827000000E+00  0.93827000000E+00 0.  1.
     999902    2    1    2    0    0 -0.13319489802E-01  0.18110133344E-02  0.29374752000E-02  0.10301707363E+01  0.10300788458E+01 0.  0.
         14    1    1    2    0    0  0.13319489802E-01 -0.18110133344E-02 -0.29374752000E-02  0.13759263731E-01  0.00000000000E+00 0. -1.
     999901    1    3    3    0    0 -0.99030982142E-01 -0.99583341787E-01 -0.25841099251E-01  0.89151093083E+00  0.88000000000E+00 0.  1.
        -11    1    3    3    0    0  0.32523369966E-01  0.59393213406E-01  0.11130305116E-01  0.68625565248E-01  0.51100000000E-03 0. -1.
         11    1    3    3    0    0  0.53188122374E-01  0.42001141716E-01  0.17648269334E-01  0.70034240187E-01  0.51100000000E-03 0.  1.
</event>
<event>
 8    1  0.2123879E+004  0.1043930E+01  0.7957747E-01            NaN
         13   -1    0    0    0    0  0.00000000000E+00  0.00000000000E+00  0.74505805969E-08  0.10566000000E+00  0.10566000000E+00 0.  1.
     999900   -1    0    0    0    0 -0.00000000000E+00 -0.00000000000E+00 -0.74505805969E-08  0.93827000000E+00  0.93827000000E+00 0.  1.
     999902    2    1    2    0    0  0.45762777144E-02  0.33606120313E-03 -0.17150287325E-01  0.10261764761E+01  0.10260228908E+01 0.  0.
     999903    2    3    3    0    0 -0.48093886133E-01  0.89822774572E-01 -0.81162641094E-01  0.13776238378E+00  0.44832436478E-01 0.  0.
         14    1    1    2    0    0 -0.45762777144E-02 -0.33606120313E-03  0.17150287325E-01  0.17753523881E-01  0.00000000000E+00 0.  1.
     999901    1    3    3    0    0  0.52670163848E-01 -0.89486713369E-01  0.64012353769E-01  0.88841409234E+00  0.88000000000E+00 0. -1.
        -11    1    4    4    0    0  0.31368619184E-02  0.97676092453E-02 -0.25797053446E-01  0.27766799970E-01  0.51100000000E-03 0.  1.
         11    1    4    4    0    0 -0.51230748052E-01  0.80055165327E-01 -0.55365587648E-01  0.10999558381E+00  0.51100000000E-03 0. -1.
</event>
<event>
 8    1  0.2123879E+004  0.1043930E+01  0.7957747E-01            NaN
         13   -1    0    0    0    0  0.00000000000E+00  0.00000000000E+00  0.74505805969E-08  0.10566000000E+00  0.10566000000E+00 0.  1.
     999900   -1    0    0    0    0 -0.00000000000E+00 -0.00000000000E+00 -0.74505805969E-08  0.93827000000E+00  0.93827000000E+00 0. -1.
     999902    2    1    2    0    0 -0.15522645697E-02  0.89405365378E-02 -0.10999108820E-01  0.10296708586E+01  0.10295721218E+01 0.  0.
     999903    2    3    3    0    0 -0.63470504288E-01 -0.92855444509E-01 -0.72825082783E-01  0.13949180850E+00  0.38779291721E-01 0.  0.
         14    1    1    2    0    0  0.15522645697E-02 -0.89405365378E-02  0.10999108820E-01  0.14259141409E-01  0.00000000000E+00 0.  1.
     999901    1    3    3    0    0  0.61918239719E-01  0.10179598105E+00  0.61825973962E-01  0.89017905009E+00  0.88000000000E+00 0.  1.
        -11    1    4    4    0    0 -0.67320429946E-01 -0.84668217782E-01 -0.72876446540E-01  0.13043000028E+00  0.51100000000E-03 0. -1.
         11    1    4    4    0    0  0.38499256572E-02 -0.81872267269E-02  0.51363757556E-04  0.90618082235E-02  0.51100000000E-03 0.  1.
</event>
<event>
 8    1  0.2123879E+004  0.1043930E+01  0.7957747E-01            NaN
         13   -1    0    0    0    0  0.00000000000E+00  0.00000000000E+00  0.74505805969E-08  0.10566000000E+00  0.10566000000E+00 0.  1.
     999900   -1    0    0    0    0 -0.00000000000E+00 -0.00000000000E+00 -0.74505805969E-08  0.93827000000E+00  0.93827000000E+00 0.  1.
     999902    2    1    2    0    0 -0.26013788433E-02  0.92866475947E-02  0.68631697698E-02  0.10320931045E+01  0.10320252246E+01 0.  0.
     999903    2    3    3    0    0 -0.11356995562E-01  0.11028566685E+00 -0.75136511568E-01  0.14248565712E+00  0.48628771891E-01 0.  0.
         14    1    1    2    0    0  0.26013788433E-02 -0.92866475947E-02 -0.68631697698E-02  0.11836895485E-01  0.00000000000E+00 0. -1.
     999901    1    3    3    0    0  0.87556167191E-02 -0.10099901925E+00  0.81999681338E-01  0.88960744739E+00  0.88000000000E+00 0. -1.
        -11    1    4    4    0    0 -0.22199362486E-01  0.29975655023E-01 -0.10298129006E-01  0.38699666289E-01  0.51100000000E-03 0.  1.
         11    1    4    4    0    0  0.10842366923E-01  0.80310011822E-01 -0.64838382562E-01  0.10378599084E+00  0.51100000000E-03 0. -1.
</event>
<event>
 8    1  0.2123879E+004  0.1043930E+01  0.7957747E-01            NaN
         13   -1    0    0    0    0  0.00000000000E+00  0.00000000000E+00  0.74505805969E-08  0.10566000000E+00  0.10566000000E+00 0.  1.
     999900   -1    0    0    0    0 -0.00000000000E+00 -0.00000000000E+00 -0.74505805969E-08  0.93827000000E+00  0.93827000000E+00 0. -1.
     999902    2    1    2    0    0 -0.62464366157E-02 -0.99414528180E-02 -0.48119031566E-02  0.10312412307E+01  0.10311631641E+01 0.  0.
     999903    2    3    3    0    0  0.87982293613E-02 -0.10548615854E+00  0.82771987350E-01  0.14161992326E+00  0.44724291958E-01 0.  0.
         14    1    1    2    0    0  0.62464366157E-02  0.99414528180E-02  0.48119031566E-02  0.12688769307E-01  0.00000000000E+00 0.  1.
     999901    1    3    3    0    0 -0.15044665977E-01  0.95544705719E-01 -0.87583890507E-01  0.88962130743E+00  0.88000000000E+00 0. -1.
        -11    1    4    4    0    0  0.20208643016E-01 -0.19347871849E-01  0.21756274460E-01  0.35444689264E-01  0.51100000000E-03 0.  1.
         11    1    4    4    0    0 -0.11410413655E-01 -0.86138286688E-01  0.61015712890E-01  0.10617523400E+00  0.51100000000E-03 0. -1.
</event>
<event>
 8    1  0.2123879E+004  0.1043930E+01  0.7957747E-01            NaN
         13   -1    0    0    0    0  0.00000000000E+00  0.00000000000E+00  0.74505805969E-08  0.10566000000E+00  0.10566000000E+00 0.  1.
     999900   -1    0    0    0    0 -0.00000000000E+00 -0.00000000000E+00 -0.74505805969E-08  0.93827000000E+00  0.93827000000E+00 0. -1.
     999902    2    1    2    0    0  0.96038160064E-02 -0.98029809699E-02  0.15185233122E-02  0.10301228413E+01  0.10300303057E+01 0.  0.
     999903    2    3    3    0    0  0.37200624145E-01 -0.10660806363E+00 -0.72503677308E-01  0.14129659619E+00  0.44258097616E-01 0.  0.
         14    1    1    2    0    0 -0.96038160064E-02  0.98029809699E-02 -0.15185233122E-02  0.13807158681E-01  0.00000000000E+00 0. -1.
     999901    1    3    3    0    0 -0.27596808139E-01  0.96805082657E-01  0.74022200620E-01  0.88882624513E+00  0.88000000000E+00 0.  1.
        -11    1    4    4    0    0 -0.84529109030E-02 -0.86992426775E-02 -0.13675487594E-01  0.18286842479E-01  0.51100000000E-03 0.  1.
         11    1    4    4    0    0  0.45653535048E-01 -0.97908820949E-01 -0.58828189713E-01  0.12300975371E+00  0.51100000000E-03 0. -1.
</event>
<event>
 8    1  0.2123879E+004  0.1043930E+01  0.7957747E-01            NaN
         13   -1    0    0    0    0  0.00000000000E+00  0.00000000000E+00  0.74505805969E-08  0.10566000000E+00  0.10566000000E+00 0. -1.
     999900   -1    0    0    0    0 -0.00000000000E+00 -0.00000000000E+00 -0.74505805969E-08  0.93827000000E+00  0.93827000000E+00 0.  1.
     999902    2    1    2    0    0  0.16130001385E-01  0.73890462704E-02 -0.11437799305E-03  0.10261877332E+01  0.10260343443E+01 0.  0.
     999903    2    3    3    0    0 -0.44392046869E-02  0.28096020018E-01  0.12621325414E+00  0.13668756925E+00  0.44097768523E-01 0.  0.
         14    1    1    2    0    0 -0.16130001385E-01 -0.73890462704E-02  0.11437799305E-03  0.17742266817E-01  0.00000000000E+00 0.  1.
     999901    1    3    3    0    0  0.20569206072E-01 -0.20706973748E-01 -0.12632763213E+00  0.88950016393E+00  0.88000000000E+00 0.  1.
        -11    1    4    4    0    0  0.16837544412E-01  0.25746970555E-01  0.81422700708E-01  0.87042097322E-01  0.51100000000E-03 0. -1.
         11    1    4    4    0    0 -0.21276749099E-01  0.23490494636E-02  0.44790553427E-01  0.49645471927E-01  0.51100000000E-03 0.  1.
</event>
<event>
 8    1  0.2123879E+004  0.1043930E+01  0.7957747E-01            NaN
         13   -1    0    0    0    0  0.00000000000E+00  0.00000000000E+00  0.74505805969E-08  0.10566000000E+00  0.10566000000E+00 0. -1.
     999900   -1    0    0    0    0 -0.00000000000E+00 -0.00000000000E+00 -0.74505805969E-08  0.93827000000E+00  0.93827000000E+00 0.  1.
     999902    2    1    2    0    0 -0.11780931426E-01 -0.28858763611E-02  0.65333836051E-02  0.10301530726E+01  0.10300609444E+01 0.  0.
     999903    2    3    3    0    0 -0.12831808698E+00  0.65871461718E-02  0.36854806629E-01  0.14190196199E+00  0.47633686654E-01 0.  0.
         14    1    1    2    0    0  0.11780931426E-01  0.28858763611E-02 -0.65333836051E-02  0.13776927414E-01  0.00000000000E+00 0.  1.
     999901    1    3    3    0    0  0.11653715555E+00 -0.94730225328E-02 -0.30321423024E-01  0.88825111060E+00  0.88000000000E+00 0.  1.
        -11    1    4    4    0    0 -0.11260392132E+00  0.22313268188E-01  0.30749360684E-01  0.11884153035E+00  0.51100000000E-03 0. -1.
         11    1    4    4    0    0 -0.15714165665E-01 -0.15726122016E-01  0.61054459450E-02  0.23060431639E-01  0.51100000000E-03 0.  1.
</event>
<event>
 8    1  0.2123879E+004  0.1043930E+01  0.7957747E-01            NaN
         13   -1    0    0    0    0  0.00000000000E+00  0.00000000000E+00  0.74505805969E-08  0.10566000000E+00  0.10566000000E+00 0.  1.
     999900   -1    0    0    0    0 -0.00000000000E+00 -0.00000000000E+00 -0.74505805969E-08  0.93827000000E+00  0.93827000000E+00 0. -1.
     999902    2    1    2    0    0 -0.17071830251E-02  0.27910024601E-02  0.14716473605E-01  0.10288542326E+01  0.10287437743E+01 0.  0.
     999903    2    3    3    0    0 -0.12858685922E+00  0.28058010885E-02  0.31312487231E-01  0.13959955581E+00  0.44329575241E-01 0.  0.
         14    1    1    2    0    0  0.17071830251E-02 -0.27910024601E-02 -0.14716473605E-01  0.15075767442E-01  0.00000000000E+00 0. -1.
     999901    1    3    3    0    0  0.12687967620E+00 -0.14798628414E-04 -0.16596013626E-01  0.88925467675E+00  0.88000000000E+00 0.  1.
        -11    1    4    4    0    0 -0.12206894127E-01 -0.13853960897E-01  0.39133526502E-02  0.18881629875E-01  0.51100000000E-03 0.  1.
         11    1    4    4    0    0 -0.11637996510E+00  0.16659761986E-01  0.27399134581E-01  0.12071792593E+00  0.51100000000E-03 0. -1.
</event>
<event>
 8    1  0.2123879E+004  0.1043930E+01  0.7957747E-01            NaN
         13   -1    0    0    0    0  0.00000000000E+00  0.00000000000E+00  0.74505805969E-08  0.10566000000E+00  0.10566000000E+00 0. -1.
     999900   -1    0    0    0    0 -0.00000000000E+00 -0.00000000000E+00 -0.74505805969E-08  0.93827000000E+00  0.93827000000E+00 0. -1.
     999902    2    1    2    0    0 -0.19955836217E-02  0.52813043265E-02  0.12244585210E-01  0.10304465139E+01  0.10303582938E+01 0.  0.
     999903    2    3    3    0    0 -0.13216335099E+00  0.19969892007E-02 -0.14902336705E-01  0.14045135117E+00  0.45092827516E-01 0.  0.
         14    1    1    2    0    0  0.19955836217E-02 -0.52813043265E-02 -0.12244585210E-01  0.13483486060E-01  0.00000000000E+00 0.  1.
     999901    1    3    3    0    0  0.13016776737E+00  0.32843151258E-02  0.27146921915E-01  0.88999516277E+00  0.88000000000E+00 0.  1.
        -11    1    4    4    0    0 -0.55237868118E-01 -0.18165331747E-01 -0.17979069903E-01  0.60866324247E-01  0.51100000000E-03 0.  1.
         11    1    4    4    0    0 -0.76925482877E-01  0.20162320947E-01  0.30767331982E-02  0.79585026921E-01  0.51100000000E-03 0. -1.
</event>
<event>
 8    1  0.2123879E+004  0.1043930E+01  0.7957747E-01            NaN
         13   -1    0    0    0    0  0.00000000000E+00  0.00000000000E+00  0.74505805969E-08  0.10566000000E+00  0.10566000000E+00 0.  1.
     999900   -1    0    0    0    0 -0.00000000000E+00 -0.00000000000E+00 -0.74505805969E-08  0.93827000000E+00  0.93827000000E+00 0. -1.
     999902    2    1    2    0    0  0.77512581329E-02  0.40842553121E-02 -0.11668208324E-01  0.10293385563E+01  0.10292351302E+01 0.  0.
     999903    2    3    3    0    0 -0.97024737454E-01 -0.73908191690E-02 -0.89019930991E-01  0.13967964660E+00  0.46015559053E-01 0.  0.
         14    1    1    2    0    0 -0.77512581329E-02 -0.40842553121E-02  0.11668208324E-01  0.14591443712E-01  0.00000000000E+00 0.  1.
     999901    1    3    3    0    0  0.10477599559E+00  0.11475074481E-01  0.77351722667E-01  0.88965890969E+00  0.88000000000E+00 0.  1.
        -11    1    4    4    0    0 -0.66197327474E-01 -0.18840408873E-01 -0.37021469042E-01  0.78153038727E-01  0.51100000000E-03 0.  1.
         11    1    4    4    0    0 -0.30827409981E-01  0.11449589704E-01 -0.51998461949E-01  0.61526607875E-01  0.51100000000E-03 0. -1.
</event>
<event>
 8    1  0.2123879E+004  0.1043930E+01  0.7957747E-01            NaN
         13   -1    0    0    0    0  0.00000000000E+00  0.00000000000E+00  0.74505805969E-08  0.10566000000E+00  0.10566000000E+00 0. -1.
     999900   -1    0    0    0    0 -0.00000000000E+00 -0.00000000000E+00 -0.74505805969E-08  0.93827000000E+00  0.93827000000E+00 0.  1.
     999902    2    1    2    0    0  0.12629726979E-01 -0.60754664507E-02  0.17474997237E-02  0.10298064363E+01  0.10297095810E+01 0.  0.
     999903    2    3    3    0    0  0.10314358082E+00 -0.84041179395E-01 -0.18064238293E-01  0.14151373956E+00  0.44702390104E-01 0.  0.
         14    1    1    2    0    0 -0.12629726979E-01  0.60754664507E-02 -0.17474997237E-02  0.14123563695E-01  0.00000000000E+00 0.  1.
     999901    1    3    3    0    0 -0.90513853836E-01  0.77965712945E-01  0.19811738016E-01  0.88829269675E+00  0.88000000000E+00 0. -1.
        -11    1    4    4    0    0  0.42496573824E-01 -0.94851780931E-02 -0.12219699026E-01  0.45227309842E-01  0.51100000000E-03 0. -1.
         11    1    4    4    0    0  0.60647006991E-01 -0.74556001302E-01 -0.58445392664E-02  0.96286429715E-01  0.51100000000E-03 0.  1.
</event>
<event>
 8    1  0.2123879E+004  0.1043930E+01  0.7957747E-01            NaN
         13   -1    0    0    0    0  0.00000000000E+00  0.00000000000E+00  0.74505805969E-08  0.10566000000E+00  0.10566000000E+00 0.  1.
     999900   -1    0    0    0    0 -0.00000000000E+00 -0.00000000000E+00 -0.74505805969E-08  0.93827000000E+00  0.93827000000E+00 0.  1.
     999902    2    1    2    0    0  0.11041750431E-01  0.66329426821E-02 -0.75184524231E-02  0.10290154665E+01  0.10289073754E+01 0.  0.
     999903    2    3    3    0    0 -0.43150399546E-01 -0.12221706020E+00  0.12090505593E-01  0.13776711531E+00  0.45106883612E-01 0.  0.
         14    1    1    2    0    0 -0.11041750431E-01 -0.66329426821E-02  0.75184524231E-02  0.14914533450E-01  0.00000000000E+00 0. -1.
     999901    1    3    3    0    0  0.54192149977E-01  0.12885000288E+00 -0.19608958016E-01  0.89124835124E+00  0.88000000000E+00 0.  1.
        -11    1    4    4    0    0  0.10578390545E-02 -0.29715161799E-01 -0.12622617009E-01  0.32306368496E-01  0.51100000000E-03 0. -1.
         11    1    4    4    0    0 -0.44208238601E-01 -0.92501898400E-01  0.24713122602E-01  0.10546074681E+00  0.51100000000E-03 0.  1.
</event>
<event>
 8    1  0.2123879E+004  0.1043930E+01  0.7957747E-01            NaN
         13   -1    0    0    0    0  0.00000000000E+00  0.00000000000E+00  0.74505805969E-08  0.10566000000E+00  0.10566000000E+00 0.  1.
     999900   -1    0    0    0    0 -0.00000000000E+00 -0.00000000000E+00 -0.74505805969E-08  0.93827000000E+00  0.93827000000E+00 0. -1.
     999902    2    1    2    0    0 -0.13153114372E-01  0.11912821338E-01 -0.11721588383E-01  0.10226622929E+01  0.10224411230E+01 0.  0.
     999903    2    3    3    0    0 -0.12233688148E+00  0.12092650750E-01 -0.35231464022E-01  0.13560319592E+00  0.45104610774E-01 0.  0.
         14    1    1    2    0    0  0.13153114372E-01 -0.11912821338E-01  0.11721588383E-01  0.21267707073E-01  0.00000000000E+00 0. -1.
     999901    1    3    3    0    0  0.10918376711E+00 -0.17982941225E-03  0.23509875639E-01  0.88705909701E+00  0.88000000000E+00 0.  1.
        -11    1    4    4    0    0 -0.17928078059E-01  0.49865489293E-02  0.10525908635E-01  0.21385451286E-01  0.51100000000E-03 0.  1.
         11    1    4    4    0    0 -0.10440880342E+00  0.71061018210E-02 -0.45757372657E-01  0.11421774463E+00  0.51100000000E-03 0. -1.
</event>
<event>
 8    1  0.2123879E+004  0.1043930E+01  0.7957747E-01            NaN
         13   -1    0    0    0    0  0.00000000000E+00  0.00000000000E+00  0.74505805969E-08  0.10566000000E+00  0.10566000000E+00 0.  1.
     999900   -1    0    0    0    0 -0.00000000000E+00 -0.00000000000E+00 -0.74505805969E-08  0.93827000000E+00  0.93827000000E+00 0.  1.
     999902    2    1    2    0    0 -0.16589560138E-01 -0.58851789677E-02  0.20081003829E-03  0.10263263310E+01  0.10261753498E+01 0.  0.
     999903    2    3    3    0    0 -0.17386726693E-01  0.60151563709E-01 -0.11276442290E+00  0.13665075491E+00  0.45134298101E-01 0.  0.
         14    1    1    2    0    0  0.16589560138E-01  0.58851789677E-02 -0.20081003829E-03  0.17603668985E-01  0.00000000000E+00 0. -1.
     999901    1    3    3    0    0  0.79716655426E-03 -0.66036742677E-01  0.11296523294E+00  0.88967557610E+00  0.88000000000E+00 0. -1.
        -11    1    4    4    0    0 -0.29322887838E-01  0.21326949848E-01 -0.59242622595E-01  0.69459484550E-01  0.51100000000E-03 0. -1.
         11    1    4    4    0    0  0.11936161146E-01  0.38824613861E-01 -0.53521800304E-01  0.67191270364E-01  0.51100000000E-03 0.  1.
</event>
<event>
 8    1  0.2123879E+004  0.1043930E+01  0.7957747E-01            NaN
         13   -1    0    0    0    0  0.00000000000E+00  0.00000000000E+00  0.74505805969E-08  0.10566000000E+00  0.10566000000E+00 0.  1.
     999900   -1    0    0    0    0 -0.00000000000E+00 -0.00000000000E+00 -0.74505805969E-08  0.93827000000E+00  0.93827000000E+00 0. -1.
     999902    2    1    2    0    0  0.23191520475E-01 -0.41751196478E-02 -0.21041144090E-02  0.10202719032E+01  0.10199975740E+01 0.  0.
     999903    2    3    3    0    0 -0.94070272456E-01 -0.62214203462E-01 -0.45241758929E-01  0.12955324971E+00  0.44915526119E-01 0.  0.
         14    1    1    2    0    0 -0.23191520475E-01  0.41751196478E-02  0.21041144090E-02  0.23658096785E-01  0.00000000000E+00 0.  1.
     999901    1    3    3    0    0  0.11726179293E+00  0.58039083815E-01  0.43137644520E-01  0.89071865351E+00  0.88000000000E+00 0.  1.
        -11    1    4    4    0    0 -0.26414960552E-01 -0.19776010624E-01  0.75016707896E-02  0.33843417717E-01  0.51100000000E-03 0. -1.
         11    1    4    4    0    0 -0.67655311904E-01 -0.42438192839E-01 -0.52743429719E-01  0.95709831991E-01  0.51100000000E-03 0.  1.
</event>
<event>
 8    1  0.2123879E+004  0.1043930E+01  0.7957747E-01            NaN
         13   -1    0    0    0    0  0.00000000000E+00  0.00000000000E+00  0.74505805969E-08  0.10566000000E+00  0.10566000000E+00 0. -1.
     999900   -1    0    0    0    0 -0.00000000000E+00 -0.00000000000E+00 -0.74505805969E-08  0.93827000000E+00  0.93827000000E+00 0. -1.
     999902    2    1    2    0    0  0.37953920217E-02  0.52235383370E-02  0.12555666501E-01  0.10298113912E+01  0.10297146043E+01 0.  0.
     999903    2    3    3    0    0  0.11830561194E-01 -0.11415424423E+00  0.66606036826E-01  0.14007150704E+00  0.44860999661E-01 0.  0.
         14    1    1    2    0    0 -0.37953920217E-02 -0.52235383370E-02 -0.12555666501E-01  0.14118608807E-01  0.00000000000E+00 0.  1.
     999901    1    3    3    0    0 -0.80351691722E-02  0.11937778256E+00 -0.54050370326E-01  0.88973988415E+00  0.88000000000E+00 0. -1.
        -11    1    4    4    0    0  0.18051875121E-02 -0.93094815437E-01  0.70007122691E-01  0.11649532914E+00  0.51100000000E-03 0.  1.
         11    1    4    4    0    0  0.10025373682E-01 -0.21059428791E-01 -0.34010858650E-02  0.23576177903E-01  0.51100000000E-03 0. -1.
</event>
<event>
 8    1  0.2123879E+004  0.1043930E+01  0.7957747E-01            NaN
         13   -1    0    0    0    0  0.00000000000E+00  0.00000000000E+00  0.74505805969E-08  0.10566000000E+00  0.10566000000E+00 0.  1.
     999900   -1    0    0    0    0 -0.00000000000E+00 -0.00000000000E+00 -0.74505805969E-08  0.93827000000E+00  0.93827000000E+00 0. -1.
     999902    2    1    2    0    0  0.41855831504E-02 -0.50854314846E-02  0.13254835120E-01  0.10291289401E+01  0.10290224993E+01 0.  0.
     999903    2    3    3    0    0 -0.10284404316E+00  0.35287318227E-01 -0.70730830726E-01  0.13775982920E+00  0.46398578470E-01 0.  0.
         14    1    1    2    0    0 -0.41855831504E-02  0.50854314846E-02 -0.13254835120E-01  0.14801059886E-01  0.00000000000E+00 0. -1.
     999901    1    3    3    0    0  0.10702962631E+00 -0.40372749712E-01  0.83985665846E-01  0.89136911092E+00  0.88000000000E+00 0.  1.
        -11    1    4    4    0    0 -0.23854449249E-01  0.22511170586E-01 -0.40743530917E-01  0.52307590106E-01  0.51100000000E-03 0.  1.
         11    1    4    4    0    0 -0.78989593912E-01  0.12776147641E-01 -0.29987299809E-01  0.85452239092E-01  0.51100000000E-03 0. -1.
</event>
<event>
 8    1  0.2123879E+004  0.1043930E+01  0.7957747E-01            NaN
         13   -1    0    0    0    0  0.00000000000E+00  0.00000000000E+00  0.74505805969E-08  0.10566000000E+00  0.10566000000E+00 0. -1.
     999900   -1    0    0    0    0 -0.00000000000E+00 -0.00000000000E+00 -0.74505805969E-08  0.93827000000E+00  0.93827000000E+00 0.  1.
     999902    2    1    2    0    0 -0.19917546921E-01 -0.12887692080E-01  0.48299190899E-02  0.10197198905E+01  0.10194324528E+01 0.  0.
     999903    2    3    3    0    0  0.47653902530E-01 -0.21927873065E-02 -0.11168467608E+00  0.12940762359E+00  0.44689634461E-01 0.  0.
         14    1    1    2    0    0  0.19917546921E-01  0.12887692080E-01 -0.48299190899E-02  0.24210109477E-01  0.00000000000E+00 0. -1.
     999901    1    3    3    0    0 -0.67571449451E-01 -0.10694904773E-01  0.11651459517E+00  0.89031226694E+00  0.88000000000E+00 0. -1.
        -11    1    4    4    0    0  0.11944511145E-01 -0.16342206901E-01 -0.14495236560E-01  0.24902049651E-01  0.51100000000E-03 0. -1.
         11    1    4    4    0    0  0.35709391385E-01  0.14149419595E-01 -0.97189439522E-01  0.10450557394E+00  0.51100000000E-03 0.  1.
</event>
<event>
 8    1  0.2123879E+004  0.1043930E+01  0.7957747E-01            NaN
         13   -1    0    0    0    0  0.00000000000E+00  0.00000000000E+00  0.74505805969E-08  0.10566000000E+00  0.10566000000E+00 0. -1.
     999900   -1    0    0    0    0 -0.00000000000E+00 -0.00000000000E+00 -0.74505805969E-08  0.93827000000E+00  0.93827000000E+00 0. -1.
     999902    2    1    2    0    0 -0.33623482462E-03 -0.10148661533E-01  0.13078739657E-01  0.10273721675E+01  0.10272387302E+01 0.  0.
     999903    2    3    3    0    0  0.10048597319E-01  0.84471911391E-01 -0.96077562249E-01  0.13553361948E+00  0.43611763547E-01 0.  0.
         14    1    1    2    0    0  0.33623482462E-03  0.10148661533E-01 -0.13078739657E-01  0.16557832460E-01  0.00000000000E+00 0.  1.
     999901    1    3    3    0    0 -0.10384832143E-01 -0.94620572924E-01  0.10915630191E+00  0.89183854806E+00  0.88000000000E+00 0.  1.
        -11    1    4    4    0    0  0.26125247599E-01  0.65028621938E-01 -0.75079194415E-01  0.10270538831E+00  0.51100000000E-03 0. -1.
         11    1    4    4    0    0 -0.16076650280E-01  0.19443289453E-01 -0.20998367834E-01  0.32828231169E-01  0.51100000000E-03 0.  1.
</event>
<event>
 8    1  0.2123879E+004  0.1043930E+01  0.7957747E-01            NaN
         13   -1    0    0    0    0  0.00000000000E+00  0.00000000000E+00  0.74505805969E-08  0.10566000000E+00  0.10566000000E+00 0.  1.
     999900   -1    0    0    0    0 -0.00000000000E+00 -0.00000000000E+00 -0.74505805969E-08  0.93827000000E+00  0.93827000000E+00 0. -1.
     999902    2    1    2    0    0  0.13216666380E-01 -0.34457824562E-02  0.48754804823E-02  0.10294274486E+01  0.10293252877E+01 0.  0.
     999903    2    3    3    0    0 -0.85043771221E-01 -0.56167475285E-01  0.82802666946E-01  0.13897400407E+00  0.45500152214E-01 0.  0.
         14    1    1    2    0    0 -0.13216666380E-01  0.34457824562E-02 -0.48754804823E-02  0.14502551392E-01  0.00000000000E+00 0. -1.
     999901    1    3    3    0    0  0.98260437601E-01  0.52721692829E-01 -0.77927186464E-01  0.89045344453E+00  0.88000000000E+00 0.  1.
        -11    1    4    4    0    0 -0.54228995893E-01 -0.28006593720E-01  0.74670005037E-01  0.96441816971E-01  0.51100000000E-03 0.  1.
         11    1    4    4    0    0 -0.30814775327E-01 -0.28160881565E-01  0.81326619087E-02  0.42532187103E-01  0.51100000000E-03 0. -1.
</event>
<event>
 8    1  0.2123879E+004  0.1043930E+01  0.7957747E-01            NaN
         13   -1    0    0    0    0  0.00000000000E+00  0.00000000000E+00  0.74505805969E-08  0.10566000000E+00  0.10566000000E+00 0. -1.
     999900   -1    0    0    0    0 -0.00000000000E+00 -0.00000000000E+00 -0.74505805969E-08  0.93827000000E+00  0.93827000000E+00 0.  1.
     999902    2    1    2    0    0  0.10288382532E-01  0.28798543350E-02 -0.85423473842E-02  0.10302509622E+01  0.10301601473E+01 0.  0.
     999903    2    3    3    0    0 -0.19073851133E-01 -0.46646090384E-03  0.12963970215E+00  0.13897793030E+00  0.46307487017E-01 0.  0.
         14    1    1    2    0    0 -0.10288382532E-01 -0.28798543350E-02  0.85423473842E-02  0.13679037793E-01  0.00000000000E+00 0. -1.
     999901    1    3    3    0    0  0.29362233665E-01  0.33463152389E-02 -0.13818204953E+00  0.89127303191E+00  0.88000000000E+00 0.  1.
        -11    1    4    4    0    0  0.22565254838E-03 -0.17222538499E-02  0.11422904424E+00  0.11424339258E+00  0.51100000000E-03 0.  1.
         11    1    4    4    0    0 -0.19299503682E-01  0.12557929461E-02  0.15410657906E-01  0.24734537723E-01  0.51100000000E-03 0. -1.
</event>
<event>
 8    1  0.2123879E+004  0.1043930E+01  0.7957747E-01            NaN
         13   -1    0    0    0    0  0.00000000000E+00  0.00000000000E+00  0.74505805969E-08  0.10566000000E+00  0.10566000000E+00 0. -1.
     999900   -1    0    0    0    0 -0.00000000000E+00 -0.00000000000E+00 -0.74505805969E-08  0.93827000000E+00  0.93827000000E+00 0.  1.
     999902    2    1    2    0    0 -0.85415514585E-02  0.12386035190E-01 -0.19518302503E-02  0.10287582628E+01  0.10286463832E+01 0.  0.
     999903    2    3    3    0    0  0.12978856845E+00  0.58771208366E-02  0.12955568800E-02  0.13792262498E+00  0.46274820002E-01 0.  0.
         14    1    1    2    0    0  0.85415514585E-02 -0.12386035190E-01  0.19518302503E-02  0.15171737223E-01  0.00000000000E+00 0. -1.
     999901    1    3    3    0    0 -0.13833011990E+00  0.65089143532E-02 -0.32473871303E-02  0.89083563779E+00  0.88000000000E+00 0. -1.
        -11    1    4    4    0    0  0.85672130364E-01  0.21556456886E-01 -0.12227724136E-01  0.89186171087E-01  0.51100000000E-03 0. -1.
         11    1    4    4    0    0  0.44116438082E-01 -0.15679336050E-01  0.13523281016E-01  0.48736453897E-01  0.51100000000E-03 0.  1.
</event>
<event>
 8    1  0.2123879E+004  0.1043930E+01  0.7957747E-01            NaN
         13   -1    0    0    0    0  0.00000000000E+00  0.00000000000E+00  0.74505805969E-08  0.10566000000E+00  0.10566000000E+00 0.  1.
     999900   -1    0    0    0    0 -0.00000000000E+00 -0.00000000000E+00 -0.74505805969E-08  0.93827000000E+00  0.93827000000E+00 0. -1.
     999902    2    1    2    0    0  0.43111468345E-02  0.54082215319E-02  0.99406644709E-02  0.10318200183E+01  0.10317489513E+01 0.  0.
     999903    2    3    3    0    0 -0.11738933306E+00  0.24740913274E-01 -0.57934605419E-01  0.14064561782E+00  0.45082180520E-01 0.  0.
         14    1    1    2    0    0 -0.43111468345E-02 -0.54082215319E-02 -0.99406644709E-02  0.12109981721E-01  0.00000000000E+00 0. -1.
     999901    1    3    3    0    0  0.12170047989E+00 -0.19332691742E-01  0.67875269890E-01  0.89117440046E+00  0.88000000000E+00 0.  1.
        -11    1    4    4    0    0 -0.49711483622E-01 -0.99587018538E-02 -0.13135284267E-01  0.52375606539E-01  0.51100000000E-03 0.  1.
         11    1    4    4    0    0 -0.67677849436E-01  0.34699615128E-01 -0.44799321152E-01  0.88270011278E-01  0.51100000000E-03 0. -1.
</event>
<event>
 8    1  0.2123879E+004  0.1043930E+01  0.7957747E-01            NaN
         13   -1    0    0    0    0  0.00000000000E+00  0.00000000000E+00  0.74505805969E-08  0.10566000000E+00  0.10566000000E+00 0. -1.
     999900   -1    0    0    0    0 -0.00000000000E+00 -0.00000000000E+00 -0.74505805969E-08  0.93827000000E+00  0.93827000000E+00 0. -1.
     999902    2    1    2    0    0  0.39451729758E-02  0.74024699743E-02 -0.16681238509E-01  0.10252585065E+01  0.10250884745E+01 0.  0.
     999903    2    3    3    0    0  0.50543953262E-01  0.64701441241E-01 -0.10191161135E+00  0.13806132723E+00  0.43977105866E-01 0.  0.
         14    1    1    2    0    0 -0.39451729758E-02 -0.74024699743E-02  0.16681238509E-01  0.18671493506E-01  0.00000000000E+00 0. -1.
     999901    1    3    3    0    0 -0.46598780287E-01 -0.57298971267E-01  0.85230372838E-01  0.88719717926E+00  0.88000000000E+00 0. -1.
        -11    1    4    4    0    0  0.98169548466E-02  0.20022323346E-01 -0.35228495102E-02  0.22581798518E-01  0.51100000000E-03 0. -1.
         11    1    4    4    0    0  0.40726998416E-01  0.44679117895E-01 -0.98388761837E-01  0.11547952872E+00  0.51100000000E-03 0.  1.
</event>
<event>
 8    1  0.2123879E+004  0.1043930E+01  0.7957747E-01            NaN
         13   -1    0    0    0    0  0.00000000000E+00  0.00000000000E+00  0.74505805969E-08  0.10566000000E+00  0.10566000000E+00 0.  1.
     999900   -1    0    0    0    0 -0.00000000000E+00 -0.00000000000E+00 -0.74505805969E-08  0.93827000000E+00  0.93827000000E+00 0. -1.
     999902    2    1    2    0    0  0.46227019099E-03  0.67215456293E-02 -0.12828279761E-01  0.10294400852E+01  0.10293381035E+01 0.  0.
     999903    2    3    3    0    0  0.22414367487E-01  0.73013099358E-01 -0.11013632360E+00  0.14132673654E+00  0.44832132853E-01 0.  0.
         14    1    1    2    0    0 -0.46227019099E-03 -0.67215456293E-02  0.12828279761E-01  0.14489914803E-01  0.00000000000E+00 0.  1.
     999901    1    3    3    0    0 -0.21952097296E-01 -0.66291553729E-01  0.97308043840E-01  0.88811334866E+00  0.88000000000E+00 0.  1.
        -11    1    4    4    0    0 -0.77301117581E-02  0.21715749322E-01 -0.57253974561E-01  0.61722014876E-01  0.51100000000E-03 0.  1.
         11    1    4    4    0    0  0.30144479245E-01  0.51297350036E-01 -0.52882349041E-01  0.79604721661E-01  0.51100000000E-03 0. -1.
</event>
<event>
 8    1  0.2123879E+004  0.1043930E+01  0.7957747E-01            NaN
         13   -1    0    0    0    0  0.00000000000E+00  0.00000000000E+00  0.74505805969E-08  0.10566000000E+00  0.10566000000E+00 0.  1.
     999900   -1    0    0    0    0 -0.00000000000E+00 -0.00000000000E+00 -0.74505805969E-08  0.93827000000E+00  0.93827000000E+00 0. -1.
     999902    2    1    2    0    0  0.37419213385E-02  0.12031148929E-01  0.52314629989E-02  0.10302874663E+01  0.10301971387E+01 0.  0.
     999903    2    3    3    0    0  0.27469117113E-01  0.11562564803E+00  0.64593150606E-01  0.14190769955E+00  0.42914766812E-01 0.  0.
         14    1    1    2    0    0 -0.37419213385E-02 -0.12031148929E-01 -0.52314629989E-02  0.13642533671E-01  0.00000000000E+00 0.  1.
     999901    1    3    3    0    0 -0.23727195774E-01 -0.10359449910E+00 -0.59361687607E-01  0.88837976678E+00  0.88000000000E+00 0. -1.
        -11    1    4    4    0    0  0.24912045824E-01  0.11275876771E+00  0.48322296058E-01  0.12518168852E+00  0.51100000000E-03 0. -1.
         11    1    4    4    0    0  0.25570712885E-02  0.28668803119E-02  0.16270854548E-01  0.16726011031E-01  0.51100000000E-03 0.  1.
</event>
<event>
 8    1  0.2123879E+004  0.1043930E+01  0.7957747E-01            NaN
         13   -1    0    0    0    0  0.00000000000E+00  0.00000000000E+00  0.74505805969E-08  0.10566000000E+00  0.10566000000E+00 0. -1.
     999900   -1    0    0    0    0 -0.00000000000E+00 -0.00000000000E+00 -0.74505805969E-08  0.93827000000E+00  0.93827000000E+00 0.  1.
     999902    2    1    2    0    0  0.10378950113E-01  0.56586236251E-02  0.82863291915E-02  0.10294937305E+01  0.10293925078E+01 0.  0.
     999903    2    3    3    0    0 -0.52388163317E-01 -0.69746395984E-01  0.99212533976E-01  0.13938519650E+00  0.44452521828E-01 0.  0.
         14    1    1    2    0    0 -0.10378950113E-01 -0.56586236251E-02 -0.82863291915E-02  0.14436269541E-01  0.00000000000E+00 0.  1.
     999901    1    3    3    0    0  0.62767113430E-01  0.75405019609E-01 -0.90926204785E-01  0.89010853396E+00  0.88000000000E+00 0.  1.
        -11    1    4    4    0    0 -0.13928442311E-01 -0.41256213264E-01  0.72493060024E-01  0.84567023779E-01  0.51100000000E-03 0.  1.
         11    1    4    4    0    0 -0.38459721006E-01 -0.28490182720E-01  0.26719473952E-01  0.54818172722E-01  0.51100000000E-03 0. -1.
</event>
<event>
 8    1  0.2123879E+004  0.1043930E+01  0.7957747E-01            NaN
         13   -1    0    0    0    0  0.00000000000E+00  0.00000000000E+00  0.74505805969E-08  0.10566000000E+00  0.10566000000E+00 0. -1.
     999900   -1    0    0    0    0 -0.00000000000E+00 -0.00000000000E+00 -0.74505805969E-08  0.93827000000E+00  0.93827000000E+00 0.  1.
     999902    2    1    2    0    0  0.84563756732E-03 -0.13989940458E-01  0.26868737314E-02  0.10296593018E+01  0.10295604037E+01 0.  0.
     999903    2    3    3    0    0  0.94516894757E-01 -0.18306499457E-01 -0.87847311257E-01  0.14005861848E+00  0.51290303150E-01 0.  0.
         14    1    1    2    0    0 -0.84563756732E-03  0.13989940458E-01 -0.26868737314E-02  0.14270698208E-01  0.00000000000E+00 0.  1.
     999901    1    3    3    0    0 -0.93671257190E-01  0.43165589994E-02  0.90534184989E-01  0.88960068332E+00  0.88000000000E+00 0. -1.
        -11    1    4    4    0    0  0.57633609467E-01 -0.25445895881E-01 -0.26996571043E-01  0.68543435327E-01  0.51100000000E-03 0. -1.
         11    1    4    4    0    0  0.36883285290E-01  0.71393964240E-02 -0.60850740214E-01  0.71515183148E-01  0.51100000000E-03 0.  1.
</event>
<event>
 8    1  0.2123879E+004  0.1043930E+01  0.7957747E-01            NaN
         13   -1    0    0    0    0  0.00000000000E+00  0.00000000000E+00  0.74505805969E-08  0.10566000000E+00  0.10566000000E+00 0. -1.
     999900   -1    0    0    0    0 -0.00000000000E+00 -0.00000000000E+00 -0.74505805969E-08  0.93827000000E+00  0.93827000000E+00 0. -1.
     999902    2    1    2    0    0 -0.93060366690E-03  0.93887255037E-02  0.85734990831E-02  0.10311817030E+01  0.10311028976E+01 0.  0.
     999903    2    3    3    0    0  0.95342575588E-01  0.76695915356E-01 -0.54345986258E-01  0.14114931905E+00  0.44689751555E-01 0.  0.
         14    1    1    2    0    0  0.93060366690E-03 -0.93887255037E-02 -0.85734990831E-02  0.12748296996E-01  0.00000000000E+00 0. -1.
     999901    1    3    3    0    0 -0.96273179255E-01 -0.67307189853E-01  0.62919485341E-01  0.89003238395E+00  0.88000000000E+00 0.  1.
        -11    1    4    4    0    0  0.69003792296E-01  0.71063113073E-01 -0.26790447602E-01  0.10261324766E+00  0.51100000000E-03 0. -1.
         11    1    4    4    0    0  0.26338783292E-01  0.56328022829E-02 -0.27555538656E-01  0.38536071394E-01  0.51100000000E-03 0.  1.
</event>
<event>
 8    1  0.2123879E+004  0.1043930E+01  0.7957747E-01            NaN
         13   -1    0    0    0    0  0.00000000000E+00  0.00000000000E+00  0.74505805969E-08  0.10566000000E+00  0.10566000000E+00 0. -1.
     999900   -1    0    0    0    0 -0.00000000000E+00 -0.00000000000E+00 -0.74505805969E-08  0.93827000000E+00  0.93827000000E+00 0. -1.
     999902    2    1    2    0    0 -0.85156472631E-02  0.10146488320E-01 -0.13397051824E-02  0.10306160117E+01  0.10305300099E+01 0.  0.
     999903    2    3    3    0    0 -0.12564437121E+00 -0.17130114089E-01 -0.43634918752E-01  0.14142984669E+00  0.44927125154E-01 0.  0.
         14    1    1    2    0    0  0.85156472631E-02 -0.10146488320E-01  0.13397051824E-02  0.13313988265E-01  0.00000000000E+00 0.  1.
     999901    1    3    3    0    0  0.11712872395E+00  0.27276602408E-01  0.42295213570E-01  0.88918616504E+00  0.88000000000E+00 0.  1.
        -11    1    4    4    0    0 -0.56871226992E-01 -0.25823636624E-01 -0.65305170023E-02  0.62802113351E-01  0.51100000000E-03 0. -1.
         11    1    4    4    0    0 -0.68773144222E-01  0.86935225349E-02 -0.37104401750E-01  0.78627733341E-01  0.51100000000E-03 0.  1.
</event>
<event>
 8    1  0.2123879E+004  0.1043930E+01  0.7957747E-01            NaN
         13   -1    0    0    0    0  0.00000000000E+00  0.00000000000E+00  0.74505805969E-08  0.10566000000E+00  0.10566000000E+00 0. -1.
     999900   -1    0    0    0    0 -0.00000000000E+00 -0.00000000000E+00 -0.74505805969E-08  0.93827000000E+00  0.93827000000E+00 0. -1.
     999902    2    1    2    0    0 -0.12679239138E-01 -0.13029772703E-02  0.57660655491E-02  0.10299404193E+01  0.10298454054E+01 0.  0.
     999903    2    3    3    0    0  0.11187864611E+00 -0.37363222018E-01  0.58008654125E-01  0.13890490037E+00  0.44907967864E-01 0.  0.
         14    1    1    2    0    0  0.12679239138E-01  0.13029772703E-02 -0.57660655491E-02  0.13989580652E-01  0.00000000000E+00 0. -1.
     999901    1    3    3    0    0 -0.12455788525E+00  0.36060244747E-01 -0.52242588576E-01  0.89103551898E+00  0.88000000000E+00 0. -1.
        -11    1    4    4    0    0  0.30628633919E-01 -0.67519685328E-02 -0.48123142463E-02  0.31735182121E-01  0.51100000000E-03 0.  1.
         11    1    4    4    0    0  0.81250012188E-01 -0.30611253485E-01  0.62820968372E-01  0.10716971824E+00  0.51100000000E-03 0. -1.
</event>
<event>
 8    1  0.2123879E+004  0.1043930E+01  0.7957747E-01            NaN
         13   -1    0    0    0    0  0.00000000000E+00  0.00000000000E+00  0.74505805969E-08  0.10566000000E+00  0.10566000000E+00 0. -1.
     999900   -1    0    0    0    0 -0.00000000000E+00 -0.00000000000E+00 -0.74505805969E-08  0.93827000000E+00  0.93827000000E+00 0.  1.
     999902    2    1    2    0    0  0.17989838311E-03  0.10642000584E-01  0.10925225119E-01  0.10286772926E+01  0.10285642066E+01 0.  0.
     999903    2    3    3    0    0 -0.12329100086E-01 -0.44565816380E-01  0.12545449427E+00  0.13945216271E+00  0.39622681033E-01 0.  0.
         14    1    1    2    0    0 -0.17989838311E-03 -0.10642000584E-01 -0.10925225119E-01  0.15252707424E-01  0.00000000000E+00 0.  1.
     999901    1    3    3    0    0  0.12508998469E-01  0.55207816963E-01 -0.11452926915E+00  0.88922512987E+00  0.88000000000E+00 0.  1.
        -11    1    4    4    0    0  0.11113163886E-01 -0.25741046112E-02  0.37587872686E-01  0.39284064456E-01  0.51100000000E-03 0.  1.
         11    1    4    4    0    0 -0.23442263972E-01 -0.41991711768E-01  0.87866621587E-01  0.10016809825E+00  0.51100000000E-03 0. -1.
</event>
<event>
 8    1  0.2123879E+004  0.1043930E+01  0.7957747E-01            NaN
         13   -1    0    0    0    0  0.00000000000E+00  0.00000000000E+00  0.74505805969E-08  0.10566000000E+00  0.10566000000E+00 0.  1.
     999900   -1    0    0    0    0 -0.00000000000E+00 -0.00000000000E+00 -0.74505805969E-08  0.93827000000E+00  0.93827000000E+00 0.  1.
     999902    2    1    2    0    0  0.12576107940E-01  0.12621786202E-01 -0.18831289608E-02  0.10260131322E+01  0.10258566826E+01 0.  0.
     999903    2    3    3    0    0  0.68108168840E-01  0.41129724614E-01  0.10299676622E+00  0.13758963814E+00  0.44634042662E-01 0.  0.
         14    1    1    2    0    0 -0.12576107940E-01 -0.12621786202E-01  0.18831289608E-02  0.17916867822E-01  0.00000000000E+00 0. -1.
     999901    1    3    3    0    0 -0.55532060900E-01 -0.28507938411E-01 -0.10487989518E+00  0.88842349403E+00  0.88000000000E+00 0.  1.
        -11    1    4    4    0    0  0.25852956632E-01  0.40082809566E-01  0.65881667272E-01  0.81336721061E-01  0.51100000000E-03 0. -1.
         11    1    4    4    0    0  0.42255212208E-01  0.10469150475E-02  0.37115098943E-01  0.56252917083E-01  0.51100000000E-03 0.  1.
</event>
<event>
 8    1  0.2123879E+004  0.1043930E+01  0.7957747E-01            NaN
         13   -1    0    0    0    0  0.00000000000E+00  0.00000000000E+00  0.74505805969E-08  0.10566000000E+00  0.10566000000E+00 0. -1.
     999900   -1    0    0    0    0 -0.00000000000E+00 -0.00000000000E+00 -0.74505805969E-08  0.93827000000E+00  0.93827000000E+00 0.  1.
     999902    2    1    2    0    0  0.12006082531E-02  0.19134413833E-02 -0.12967041303E-01  0.10307676720E+01  0.10306836308E+01 0.  0.
     999903    2    3    3    0    0  0.82057977051E-01 -0.27113638288E-01  0.99441558986E-01  0.13946739776E+00  0.45758828727E-01 0.  0.
         14    1    1    2    0    0 -0.12006082531E-02 -0.19134413833E-02  0.12967041303E-01  0.13162327995E-01  0.00000000000E+00 0. -1.
     999901    1    3    3    0    0 -0.80857368798E-01  0.29027079672E-01 -0.11240860029E+00  0.89130027424E+00  0.88000000000E+00 0. -1.
        -11    1    4    4    0    0  0.41464208294E-01 -0.29878099523E-01  0.30805391045E-01  0.59675913391E-01  0.51100000000E-03 0.  1.
         11    1    4    4    0    0  0.40593768757E-01  0.27644612346E-02  0.68636167941E-01  0.79791484373E-01  0.51100000000E-03 0. -1.
</event>
<event>
 8    1  0.2123879E+004  0.1043930E+01  0.7957747E-01            NaN
         13   -1    0    0    0    0  0.00000000000E+00  0.00000000000E+00  0.74505805969E-08  0.10566000000E+00  0.10566000000E+00 0. -1.
     999900   -1    0    0    0    0 -0.00000000000E+00 -0.00000000000E+00 -0.74505805969E-08  0.93827000000E+00  0.93827000000E+00 0.  1.
     999902    2    1    2    0    0 -0.22969755096E-02  0.11826768944E-01  0.60623495579E-02  0.10304429454E+01  0.10303546783E+01 0.  0.
     999903    2    3    3    0    0 -0.11108879987E+00  0.70898119241E-01  0.23849288928E-01  0.14160018050E+00  0.45984320865E-01 0.  0.
         14    1    1    2    0    0  0.22969755096E-02 -0.11826768944E-01 -0.60623495579E-02  0.13487054620E-01  0.00000000000E+00 0.  1.
     999901    1    3    3    0    0  0.10879182436E+00 -0.59071350297E-01 -0.17786939370E-01  0.88884276488E+00  0.88000000000E+00 0.  1.
        -11    1    4    4    0    0 -0.77304555678E-01  0.58470405835E-01  0.36306606690E-01  0.10350465447E+00  0.51100000000E-03 0. -1.
         11    1    4    4    0    0 -0.33784244193E-01  0.12427713406E-01 -0.12457317762E-01  0.38095526024E-01  0.51100000000E-03 0.  1.
</event>
<event>
 8    1  0.2123879E+004  0.1043930E+01  0.7957747E-01            NaN
         13   -1    0    0    0    0  0.00000000000E+00  0.00000000000E+00  0.74505805969E-08  0.10566000000E+00  0.10566000000E+00 0.  1.
     999900   -1    0    0    0    0 -0.00000000000E+00 -0.00000000000E+00 -0.74505805969E-08  0.93827000000E+00  0.93827000000E+00 0. -1.
     999902    2    1    2    0    0 -0.10407395182E-01  0.83527966325E-02  0.16455762724E-02  0.10304841453E+01  0.10303964202E+01 0.  0.
     999903    2    3    3    0    0 -0.54273384088E-01  0.36428137086E-01  0.11721911478E+00  0.14140052019E+00  0.44510412807E-01 0.  0.
         14    1    1    2    0    0  0.10407395182E-01 -0.83527966325E-02 -0.16455762724E-02  0.13445854652E-01  0.00000000000E+00 0.  1.
     999901    1    3    3    0    0  0.43865988906E-01 -0.28075340453E-01 -0.11557353851E+00  0.88908362516E+00  0.88000000000E+00 0. -1.
        -11    1    4    4    0    0 -0.29127981885E-01  0.33893274130E-01  0.39405215412E-01  0.59583768617E-01  0.51100000000E-03 0.  1.
         11    1    4    4    0    0 -0.25145402203E-01  0.25348629562E-02  0.77813899366E-01  0.81816751571E-01  0.51100000000E-03 0. -1.
</event>
<event>
 8    1  0.2123879E+004  0.1043930E+01  0.7957747E-01            NaN
         13   -1    0    0    0    0  0.00000000000E+00  0.00000000000E+00  0.74505805969E-08  0.10566000000E+00  0.10566000000E+00 0. -1.
     999900   -1    0    0    0    0 -0.00000000000E+00 -0.00000000000E+00 -0.74505805969E-08  0.93827000000E+00  0.93827000000E+00 0. -1.
     999902    2    1    2    0    0  0.10475888894E-01 -0.13382642560E-01  0.13267025216E-01  0.10223695425E+01  0.10221421761E+01 0.  0.
     999903    2    3    3    0    0 -0.83730565808E-01  0.67974729716E-01  0.61641784516E-01  0.13229426732E+00  0.45504857287E-01 0.  0.
         14    1    1    2    0    0 -0.10475888894E-01  0.13382642560E-01 -0.13267025216E-01  0.21560457511E-01  0.00000000000E+00 0.  1.
     999901    1    3    3    0    0  0.94206454701E-01 -0.81357372276E-01 -0.48374759300E-01  0.89007527517E+00  0.88000000000E+00 0. -1.
        -11    1    4    4    0    0 -0.63719083553E-01  0.28969716807E-01  0.22507692349E-01  0.73527025212E-01  0.51100000000E-03 0.  1.
         11    1    4    4    0    0 -0.20011482255E-01  0.39005012910E-01  0.39134092167E-01  0.58767242107E-01  0.51100000000E-03 0. -1.
</event>
<event>
 8    1  0.2123879E+004  0.1043930E+01  0.7957747E-01            NaN
         13   -1    0    0    0    0  0.00000000000E+00  0.00000000000E+00  0.74505805969E-08  0.10566000000E+00  0.10566000000E+00 0.  1.
     999900   -1    0    0    0    0 -0.00000000000E+00 -0.00000000000E+00 -0.74505805969E-08  0.93827000000E+00  0.93827000000E+00 0.  1.
     999902    2    1    2    0    0  0.12602862754E-01 -0.69626676812E-02 -0.48014889170E-04  0.10295316252E+01  0.10294309370E+01 0.  0.
     999903    2    3    3    0    0 -0.22026733312E-01 -0.91187334259E-01 -0.93298928700E-01  0.13993130131E+00  0.45560641776E-01 0.  0.
         14    1    1    2    0    0 -0.12602862754E-01  0.69626676812E-02  0.48014889170E-04  0.14398374779E-01  0.00000000000E+00 0.  1.
     999901    1    3    3    0    0  0.34629596066E-01  0.84224666578E-01  0.93250913810E-01  0.88960032392E+00  0.88000000000E+00 0. -1.
        -11    1    4    4    0    0  0.53745888003E-02 -0.25888547537E-01 -0.50986079204E-01  0.57436438713E-01  0.51100000000E-03 0.  1.
         11    1    4    4    0    0 -0.27401322112E-01 -0.65298786722E-01 -0.42312849495E-01  0.82494862594E-01  0.51100000000E-03 0. -1.
</event>
<event>
 7    1  0.2123879E+004  0.1043930E+01  0.7957747E-01            NaN
         13   -1    0    0    0    0  0.00000000000E+00  0.00000000000E+00  0.74505805969E-08  0.10566000000E+00  0.10566000000E+00 0.  1.
     999900   -1    0    0    0    0 -0.00000000000E+00 -0.00000000000E+00 -0.74505805969E-08  0.93827000000E+00  0.93827000000E+00 0.  1.
     999903    2    1    2    0    0  0.55410463820E-01  0.10257571076E-01  0.10033322860E+00  0.12360420077E+00  0.45118781252E-01 0.  0.
         14    1    1    2    0    0  0.24109789803E-01 -0.18737089142E-01 -0.98250081215E-02  0.32076334866E-01  0.00000000000E+00 0.  1.
     999901    1    1    2    0    0 -0.79520253623E-01  0.84795180656E-02 -0.90508220481E-01  0.88824946436E+00  0.88000000000E+00 0.  1.
        -11    1    3    3    0    0  0.20481826964E-01 -0.17944459126E-01  0.40300379690E-01  0.48640421188E-01  0.51100000000E-03 0. -1.
         11    1    3    3    0    0  0.34928636856E-01  0.28202030203E-01  0.60032848912E-01  0.74963779585E-01  0.51100000000E-03 0.  1.
</event>
<event>
 8    1  0.2123879E+004  0.1043930E+01  0.7957747E-01            NaN
         13   -1    0    0    0    0  0.00000000000E+00  0.00000000000E+00  0.74505805969E-08  0.10566000000E+00  0.10566000000E+00 0.  1.
     999900   -1    0    0    0    0 -0.00000000000E+00 -0.00000000000E+00 -0.74505805969E-08  0.93827000000E+00  0.93827000000E+00 0. -1.
     999902    2    1    2    0    0  0.14764483827E-01 -0.63555168795E-02 -0.27168718282E-02  0.10276277311E+01  0.10274984135E+01 0.  0.
     999903    2    3    3    0    0  0.11894378754E+00  0.54282528905E-01  0.18077590554E-01  0.13916686561E+00  0.44118019725E-01 0.  0.
         14    1    1    2    0    0 -0.14764483827E-01  0.63555168795E-02  0.27168718282E-02  0.16302268861E-01  0.00000000000E+00 0. -1.
     999901    1    3    3    0    0 -0.10417930371E+00 -0.60638045784E-01 -0.20794462382E-01  0.88846086553E+00  0.88000000000E+00 0.  1.
        -11    1    4    4    0    0  0.53180629848E-01  0.40403339576E-01  0.25612076949E-01  0.71532152537E-01  0.51100000000E-03 0.  1.
         11    1    4    4    0    0  0.65763157689E-01  0.13879189328E-01 -0.75344863953E-02  0.67634713069E-01  0.51100000000E-03 0. -1.
</event>
<event>
 8    1  0.2123879E+004  0.1043930E+01  0.7957747E-01            NaN
         13   -1    0    0    0    0  0.00000000000E+00  0.00000000000E+00  0.74505805969E-08  0.10566000000E+00  0.10566000000E+00 0.  1.
     999900   -1    0    0    0    0 -0.00000000000E+00 -0.00000000000E+00 -0.74505805969E-08  0.93827000000E+00  0.93827000000E+00 0.  1.
     999902    2    1    2    0    0  0.12352632206E-01 -0.73137454258E-02  0.40601049418E-02  0.10290114596E+01  0.10289033099E+01 0.  0.
     999903    2    3    3    0    0 -0.76103990644E-01  0.74072295971E-01 -0.74667193028E-01  0.13735779968E+00  0.44871516533E-01 0.  0.
         14    1    1    2    0    0 -0.12352632206E-01  0.73137454258E-02 -0.40601049418E-02  0.14918540368E-01  0.00000000000E+00 0. -1.
     999901    1    3    3    0    0  0.88456622850E-01 -0.81386041397E-01  0.78727297970E-01  0.89165365995E+00  0.88000000000E+00 0.  1.
        -11    1    4    4    0    0 -0.59161921094E-01  0.34500607990E-01 -0.28350391835E-01  0.74124427131E-01  0.51100000000E-03 0. -1.
         11    1    4    4    0    0 -0.16942069550E-01  0.39571687981E-01 -0.46316801192E-01  0.63233372549E-01  0.51100000000E-03 0.  1.
</event>
<event>
 8    1  0.2123879E+004  0.1043930E+01  0.7957747E-01            NaN
         13   -1    0    0    0    0  0.00000000000E+00  0.00000000000E+00  0.74505805969E-08  0.10566000000E+00  0.10566000000E+00 0.  1.
     999900   -1    0    0    0    0 -0.00000000000E+00 -0.00000000000E+00 -0.74505805969E-08  0.93827000000E+00  0.93827000000E+00 0. -1.
     999902    2    1    2    0    0 -0.18126097114E-02 -0.60667400114E-02  0.13258945609E-01  0.10292367864E+01  0.10291319021E+01 0.  0.
     999903    2    3    3    0    0  0.12366256410E+00  0.44549982131E-01  0.81802933653E-02  0.13888187706E+00  0.44092265882E-01 0.  0.
         14    1    1    2    0    0  0.18126097114E-02  0.60667400114E-02 -0.13258945609E-01  0.14693213638E-01  0.00000000000E+00 0. -1.
     999901    1    3    3    0    0 -0.12547517381E+00 -0.50616722142E-01  0.50786522439E-02  0.89035490930E+00  0.88000000000E+00 0.  1.
        -11    1    4    4    0    0  0.82997789114E-01  0.22682996427E-01  0.25221491894E-01  0.89663460223E-01  0.51100000000E-03 0.  1.
         11    1    4    4    0    0  0.40664774982E-01  0.21866985704E-01 -0.17041198528E-01  0.49218416842E-01  0.51100000000E-03 0. -1.
</event>
<event>
 8    1  0.2123879E+004  0.1043930E+01  0.7957747E-01            NaN
         13   -1    0    0    0    0  0.00000000000E+00  0.00000000000E+00  0.74505805969E-08  0.10566000000E+00  0.10566000000E+00 0. -1.
     999900   -1    0    0    0    0 -0.00000000000E+00 -0.00000000000E+00 -0.74505805969E-08  0.93827000000E+00  0.93827000000E+00 0.  1.
     999902    2    1    2    0    0  0.89062587567E-02  0.33033764465E-02  0.10065005050E-01  0.10300902721E+01  0.10299972964E+01 0.  0.
     999903    2    3    3    0    0 -0.12751466874E+00  0.23085348404E-01 -0.20166637576E-01  0.13884622693E+00  0.45592295484E-01 0.  0.
         14    1    1    2    0    0 -0.89062587567E-02 -0.33033764465E-02 -0.10065005050E-01  0.13839727874E-01  0.00000000000E+00 0.  1.
     999901    1    3    3    0    0  0.13642092750E+00 -0.19781971958E-01  0.30231642625E-01  0.89124404519E+00  0.88000000000E+00 0.  1.
        -11    1    4    4    0    0 -0.36674466091E-01  0.19899443902E-01 -0.23494266630E-01  0.47887848314E-01  0.51100000000E-03 0.  1.
         11    1    4    4    0    0 -0.90840202651E-01  0.31859045021E-02  0.33276290536E-02  0.90958378620E-01  0.51100000000E-03 0. -1.
</event>
<event>
 8    1  0.2123879E+004  0.1043930E+01  0.7957747E-01            NaN
         13   -1    0    0    0    0  0.00000000000E+00  0.00000000000E+00  0.74505805969E-08  0.10566000000E+00  0.10566000000E+00 0. -1.
     999900   -1    0    0    0    0 -0.00000000000E+00 -0.00000000000E+00 -0.74505805969E-08  0.93827000000E+00  0.93827000000E+00 0. -1.
     999902    2    1    2    0    0  0.23506446685E-02  0.13101822481E-01  0.33799625252E-02  0.10301965580E+01  0.10301050144E+01 0.  0.
     999903    2    3    3    0    0 -0.53334686100E-01  0.90862390676E-01  0.79568882795E-01  0.14174154304E+00  0.51564475490E-01 0.  0.
         14    1    1    2    0    0 -0.23506446685E-02 -0.13101822481E-01 -0.33799625252E-02  0.13733442007E-01  0.00000000000E+00 0.  1.
     999901    1    3    3    0    0  0.55685330769E-01 -0.77760568194E-01 -0.76188920269E-01  0.88845501496E+00  0.88000000000E+00 0. -1.
        -11    1    4    4    0    0 -0.26731682027E-01  0.27710801659E-01  0.58522444215E-01  0.70054328563E-01  0.51100000000E-03 0. -1.
         11    1    4    4    0    0 -0.26603004073E-01  0.63151589017E-01  0.21046438580E-01  0.71687214474E-01  0.51100000000E-03 0.  1.
</event>
<event>
 8    1  0.2123879E+004  0.1043930E+01  0.7957747E-01            NaN
         13   -1    0    0    0    0  0.00000000000E+00  0.00000000000E+00  0.74505805969E-08  0.10566000000E+00  0.10566000000E+00 0. -1.
     999900   -1    0    0    0    0 -0.00000000000E+00 -0.00000000000E+00 -0.74505805969E-08  0.93827000000E+00  0.93827000000E+00 0.  1.
     999902    2    1    2    0    0  0.12616277624E-01 -0.36747738192E-02 -0.58418999153E-02  0.10295493805E+01  0.10294489422E+01 0.  0.
     999903    2    3    3    0    0  0.89140862003E-01  0.79264557140E-01 -0.59199464166E-01  0.14074007904E+00  0.45543715182E-01 0.  0.
         14    1    1    2    0    0 -0.12616277624E-01  0.36747738192E-02  0.58418999153E-02  0.14380619539E-01  0.00000000000E+00 0. -1.
     999901    1    3    3    0    0 -0.76524584379E-01 -0.82939330959E-01  0.53357564251E-01  0.88880930142E+00  0.88000000000E+00 0. -1.
        -11    1    4    4    0    0  0.25592258102E-01  0.48968212329E-01 -0.38542334019E-01  0.67369296613E-01  0.51100000000E-03 0. -1.
         11    1    4    4    0    0  0.63548603901E-01  0.30296344811E-01 -0.20657130147E-01  0.73370782424E-01  0.51100000000E-03 0.  1.
</event>
<event>
 8    1  0.2123879E+004  0.1043930E+01  0.7957747E-01            NaN
         13   -1    0    0    0    0  0.00000000000E+00  0.00000000000E+00  0.74505805969E-08  0.10566000000E+00  0.10566000000E+00 0.  1.
     999900   -1    0    0    0    0 -0.00000000000E+00 -0.00000000000E+00 -0.74505805969E-08  0.93827000000E+00  0.93827000000E+00 0.  1.
     999902    2    1    2    0    0  0.10300609221E-01  0.95667453192E-02 -0.29111995698E-03  0.10298690641E+01  0.10297730718E+01 0.  0.
     999903    2    3    3    0    0 -0.11168020420E+00  0.19532850879E-01 -0.66695841798E-01  0.13892112561E+00  0.44684936546E-01 0.  0.
         14    1    1    2    0    0 -0.10300609221E-01 -0.95667453192E-02  0.29111995698E-03  0.14060935856E-01  0.00000000000E+00 0. -1.
     999901    1    3    3    0    0  0.12198081342E+00 -0.99661055596E-02  0.66404721841E-01  0.89094793854E+00  0.88000000000E+00 0. -1.
        -11    1    4    4    0    0 -0.13693247402E-01 -0.77231971338E-03 -0.28823632528E-01  0.31924354578E-01  0.51100000000E-03 0. -1.
         11    1    4    4    0    0 -0.97986956794E-01  0.20305170592E-01 -0.37872209270E-01  0.10699677103E+00  0.51100000000E-03 0.  1.
</event>
<event>
 8    1  0.2123879E+004  0.1043930E+01  0.7957747E-01            NaN
         13   -1    0    0    0    0  0.00000000000E+00  0.00000000000E+00  0.74505805969E-08  0.10566000000E+00  0.10566000000E+00 0.  1.
     999900   -1    0    0    0    0 -0.00000000000E+00 -0.00000000000E+00 -0.74505805969E-08  0.93827000000E+00  0.93827000000E+00 0. -1.
     999902    2    1    2    0    0  0.77405994614E-02 -0.96214607755E-02  0.63159122500E-02  0.10300598834E+01  0.10299664962E+01 0.  0.
     999903    2    3    3    0    0 -0.88715841185E-03 -0.13285488312E+00  0.83552794381E-03  0.14141431331E+00  0.48436586220E-01 0.  0.
         14    1    1    2    0    0 -0.77405994614E-02  0.96214607755E-02 -0.63159122500E-02  0.13870116619E-01  0.00000000000E+00 0. -1.
     999901    1    3    3    0    0  0.86277578733E-02  0.12323342234E+00  0.54803843062E-02  0.88864557007E+00  0.88000000000E+00 0. -1.
        -11    1    4    4    0    0  0.13679224772E-01 -0.85686137692E-02 -0.17935845965E-02  0.16248704533E-01  0.51100000000E-03 0.  1.
         11    1    4    4    0    0 -0.14566383184E-01 -0.12428626935E+00  0.26291125404E-02  0.12516560878E+00  0.51100000000E-03 0. -1.
</event>
<event>
 7    1  0.2123879E+004  0.1043930E+01  0.7957747E-01            NaN
         13   -1    0    0    0    0  0.00000000000E+00  0.00000000000E+00  0.74505805969E-08  0.10566000000E+00  0.10566000000E+00 0. -1.
     999900   -1    0    0    0    0 -0.00000000000E+00 -0.00000000000E+00 -0.74505805969E-08  0.93827000000E+00  0.93827000000E+00 0. -1.
     999903    2    1    2    0    0 -0.55491850745E-01  0.20917252958E-01 -0.27745764856E-01  0.79682283132E-01  0.45415435782E-01 0.  0.
         14    1    1    2    0    0 -0.45400139726E-01  0.57310598692E-01 -0.12264154347E-01  0.74135598004E-01  0.00000000000E+00 0. -1.
     999901    1    1    2    0    0  0.10089199047E+00 -0.78227851650E-01  0.40009919203E-01  0.89011211886E+00  0.88000000000E+00 0.  1.
        -11    1    3    3    0    0 -0.31893586741E-01 -0.33186793576E-02 -0.32335219731E-01  0.45541651968E-01  0.51100000000E-03 0.  1.
         11    1    3    3    0    0 -0.23598264003E-01  0.24235932316E-01  0.45894548755E-02  0.34140631164E-01  0.51100000000E-03 0. -1.
</event>
<event>
 8    1  0.2123879E+004  0.1043930E+01  0.7957747E-01            NaN
         13   -1    0    0    0    0  0.00000000000E+00  0.00000000000E+00  0.74505805969E-08  0.10566000000E+00  0.10566000000E+00 0. -1.
     999900   -1    0    0    0    0 -0.00000000000E+00 -0.00000000000E+00 -0.74505805969E-08  0.93827000000E+00  0.93827000000E+00 0. -1.
     999902    2    1    2    0    0 -0.79688316631E-02  0.11565262780E-01  0.45624110781E-02  0.10291626991E+01  0.10290567467E+01 0.  0.
     999903    2    3    3    0    0 -0.12097890579E-01 -0.11266570018E+00  0.65259252650E-01  0.13835717157E+00  0.45210816366E-01 0.  0.
         14    1    1    2    0    0  0.79688316631E-02 -0.11565262780E-01 -0.45624110781E-02  0.14767300908E-01  0.00000000000E+00 0. -1.
     999901    1    3    3    0    0  0.41290589159E-02  0.12423096296E+00 -0.60696841572E-01  0.89080552752E+00  0.88000000000E+00 0. -1.
        -11    1    4    4    0    0 -0.28517595094E-01 -0.86424494227E-01  0.47324246790E-01  0.10257822326E+00  0.51100000000E-03 0. -1.
         11    1    4    4    0    0  0.16419704515E-01 -0.26241205948E-01  0.17935005860E-01  0.35778948310E-01  0.51100000000E-03 0.  1.
</event>
<event>
 8    1  0.2123879E+004  0.1043930E+01  0.7957747E-01            NaN
         13   -1    0    0    0    0  0.00000000000E+00  0.00000000000E+00  0.74505805969E-08  0.10566000000E+00  0.10566000000E+00 0. -1.
     999900   -1    0    0    0    0 -0.00000000000E+00 -0.00000000000E+00 -0.74505805969E-08  0.93827000000E+00  0.93827000000E+00 0.  1.
     999902    2    1    2    0    0 -0.15430800603E-02 -0.44539005189E-02  0.13244785160E-01  0.10298714560E+01  0.10297754965E+01 0.  0.
     999903    2    3    3    0    0  0.11385312664E+00 -0.27478478708E-01  0.63825475167E-01  0.14059938180E+00  0.44462272142E-01 0.  0.
         14    1    1    2    0    0  0.15430800603E-02  0.44539005189E-02 -0.13244785160E-01  0.14058544015E-01  0.00000000000E+00 0.  1.
     999901    1    3    3    0    0 -0.11539620670E+00  0.23024578189E-01 -0.50580690008E-01  0.88927207418E+00  0.88000000000E+00 0.  1.
        -11    1    4    4    0    0  0.98755243279E-02  0.10161164919E-01  0.11531626391E-01  0.18276071281E-01  0.51100000000E-03 0.  1.
         11    1    4    4    0    0  0.10397760231E+00 -0.37639643627E-01  0.52293848777E-01  0.12232331052E+00  0.51100000000E-03 0. -1.
</event>
<event>
 8    1  0.2123879E+004  0.1043930E+01  0.7957747E-01            NaN
         13   -1    0    0    0    0  0.00000000000E+00  0.00000000000E+00  0.74505805969E-08  0.10566000000E+00  0.10566000000E+00 0. -1.
     999900   -1    0    0    0    0 -0.00000000000E+00 -0.00000000000E+00 -0.74505805969E-08  0.93827000000E+00  0.93827000000E+00 0. -1.
     999902    2    1    2    0    0  0.13282057050E-01 -0.43459547816E-02 -0.21131950153E-03  0.10299534118E+01  0.10298585754E+01 0.  0.
     999903    2    3    3    0    0  0.12977752636E+00  0.31411564284E-01 -0.51188975123E-02  0.14154253900E+00  0.46681843542E-01 0.  0.
         14    1    1    2    0    0 -0.13282057050E-01  0.43459547816E-02  0.21131950153E-03  0.13976588223E-01  0.00000000000E+00 0. -1.
     999901    1    3    3    0    0 -0.11649546931E+00 -0.35757519066E-01  0.49075780108E-02  0.88841087277E+00  0.88000000000E+00 0.  1.
        -11    1    4    4    0    0  0.28040669234E-01 -0.12167257786E-01 -0.42154234257E-02  0.30860204290E-01  0.51100000000E-03 0.  1.
         11    1    4    4    0    0  0.10173685713E+00  0.43578822071E-01 -0.90347408668E-03  0.11068233471E+00  0.51100000000E-03 0. -1.
</event>
<event>
 8    1  0.2123879E+004  0.1043930E+01  0.7957747E-01            NaN
         13   -1    0    0    0    0  0.00000000000E+00  0.00000000000E+00  0.74505805969E-08  0.10566000000E+00  0.10566000000E+00 0.  1.
     999900   -1    0    0    0    0 -0.00000000000E+00 -0.00000000000E+00 -0.74505805969E-08  0.93827000000E+00  0.93827000000E+00 0. -1.
     999902    2    1    2    0    0  0.92994535720E-02  0.36136498443E-02 -0.96754260410E-02  0.10300320803E+01  0.10299383158E+01 0.  0.
     999903    2    3    3    0    0 -0.74538986703E-01 -0.10538852689E+00 -0.26261214921E-01  0.13919795044E+00  0.44984618019E-01 0.  0.
         14    1    1    2    0    0 -0.92994535720E-02 -0.36136498443E-02  0.96754260410E-02  0.13897919665E-01  0.00000000000E+00 0.  1.
     999901    1    3    3    0    0  0.83838440275E-01  0.10900217673E+00  0.16585788880E-01  0.89083412990E+00  0.88000000000E+00 0. -1.
        -11    1    4    4    0    0 -0.29600841767E-01 -0.77268214020E-01 -0.23915295798E-01  0.86132393589E-01  0.51100000000E-03 0.  1.
         11    1    4    4    0    0 -0.44938144936E-01 -0.28120312867E-01 -0.23459191226E-02  0.53065556848E-01  0.51100000000E-03 0. -1.
</event>
<event>
 8    1  0.2123879E+004  0.1043930E+01  0.7957747E-01            NaN
         13   -1    0    0    0    0  0.00000000000E+00  0.00000000000E+00  0.74505805969E-08  0.10566000000E+00  0.10566000000E+00 0. -1.
     999900   -1    0    0    0    0 -0.00000000000E+00 -0.00000000000E+00 -0.74505805969E-08  0.93827000000E+00  0.93827000000E+00 0.  1.
     999902    2    1    2    0    0  0.93756784122E-02 -0.28607105956E-02 -0.96529932114E-02  0.10301725552E+01  0.10300806891E+01 0.  0.
     999903    2    3    3    0    0  0.57123178706E-01 -0.11992124669E+00 -0.18587720746E-01  0.14109279368E+00  0.43789383576E-01 0.  0.
         14    1    1    2    0    0 -0.93756784122E-02  0.28607105956E-02  0.96529932114E-02  0.13757444848E-01  0.00000000000E+00 0. -1.
     999901    1    3    3    0    0 -0.47747500294E-01  0.11706053609E+00  0.89347275345E-02  0.88907976147E+00  0.88000000000E+00 0. -1.
        -11    1    4    4    0    0 -0.19642670115E-03 -0.47099671825E-01 -0.39489468368E-02  0.47268096763E-01  0.51100000000E-03 0.  1.
         11    1    4    4    0    0  0.57319605407E-01 -0.72821574865E-01 -0.14638773909E-01  0.93824696922E-01  0.51100000000E-03 0. -1.
</event>
<event>
 8    1  0.2123879E+004  0.1043930E+01  0.7957747E-01            NaN
         13   -1    0    0    0    0  0.00000000000E+00  0.00000000000E+00  0.74505805969E-08  0.10566000000E+00  0.10566000000E+00 0. -1.
     999900   -1    0    0    0    0 -0.00000000000E+00 -0.00000000000E+00 -0.74505805969E-08  0.93827000000E+00  0.93827000000E+00 0. -1.
     999902    2    1    2    0    0 -0.13021395537E-02 -0.11037683114E-01  0.89835460984E-02  0.10296390897E+01  0.10295399094E+01 0.  0.
     999903    2    3    3    0    0  0.45439478258E-01  0.29016161407E-01 -0.11552723400E+00  0.13874514337E+00  0.54744764183E-01 0.  0.
         14    1    1    2    0    0  0.13021395537E-02  0.11037683114E-01 -0.89835460984E-02  0.14290910274E-01  0.00000000000E+00 0. -1.
     999901    1    3    3    0    0 -0.46741617812E-01 -0.40053844521E-01  0.12451078010E+00  0.89089394636E+00  0.88000000000E+00 0.  1.
        -11    1    4    4    0    0  0.21398040257E-01  0.58813966463E-02 -0.99093444597E-01  0.10154919417E+00  0.51100000000E-03 0. -1.
         11    1    4    4    0    0  0.24041438001E-01  0.23134764761E-01 -0.16433789404E-01  0.37195949199E-01  0.51100000000E-03 0.  1.
</event>
<event>
 8    1  0.2123879E+004  0.1043930E+01  0.7957747E-01            NaN
         13   -1    0    0    0    0  0.00000000000E+00  0.00000000000E+00  0.74505805969E-08  0.10566000000E+00  0.10566000000E+00 0.  1.
     999900   -1    0    0    0    0 -0.00000000000E+00 -0.00000000000E+00 -0.74505805969E-08  0.93827000000E+00  0.93827000000E+00 0. -1.
     999902    2    1    2    0    0  0.77445563972E-02 -0.91233359245E-02 -0.79858593141E-02  0.10295429447E+01  0.10294424159E+01 0.  0.
     999903    2    3    3    0    0 -0.69228415660E-02  0.64886675145E-01  0.11336167838E+00  0.13801737621E+00  0.44042248635E-01 0.  0.
         14    1    1    2    0    0 -0.77445563972E-02  0.91233359245E-02  0.79858593141E-02  0.14387055333E-01  0.00000000000E+00 0.  1.
     999901    1    3    3    0    0  0.14667397963E-01 -0.74010011070E-01 -0.12134753769E+00  0.89152556845E+00  0.88000000000E+00 0. -1.
        -11    1    4    4    0    0 -0.23072385967E-01  0.19632202817E-01  0.50519612522E-01  0.58908834245E-01  0.51100000000E-03 0. -1.
         11    1    4    4    0    0  0.16149544401E-01  0.45254472328E-01  0.62842065858E-01  0.79108541969E-01  0.51100000000E-03 0.  1.
</event>
<event>
 8    1  0.2123879E+004  0.1043930E+01  0.7957747E-01            NaN
         13   -1    0    0    0    0  0.00000000000E+00  0.00000000000E+00  0.74505805969E-08  0.10566000000E+00  0.10566000000E+00 0.  1.
     999900   -1    0    0    0    0 -0.00000000000E+00 -0.00000000000E+00 -0.74505805969E-08  0.93827000000E+00  0.93827000000E+00 0.  1.
     999902    2    1    2    0    0 -0.52150969824E-02 -0.51905915679E-02 -0.12509875943E-01  0.10294166794E+01  0.10293143657E+01 0.  0.
     999903    2    3    3    0    0 -0.87237181640E-01 -0.97716501054E-01 -0.25093878686E-01  0.14068329793E+00  0.44757648848E-01 0.  0.
         14    1    1    2    0    0  0.52150969824E-02  0.51905915679E-02  0.12509875943E-01  0.14513320552E-01  0.00000000000E+00 0.  1.
     999901    1    3    3    0    0  0.82022084658E-01  0.92525909486E-01  0.12584002744E-01  0.88873338152E+00  0.88000000000E+00 0.  1.
        -11    1    4    4    0    0 -0.36977209470E-01 -0.71922123262E-01 -0.23291095151E-01  0.84159622557E-01  0.51100000000E-03 0.  1.
         11    1    4    4    0    0 -0.50259972170E-01 -0.25794377792E-01 -0.18027835355E-02  0.56523675373E-01  0.51100000000E-03 0. -1.
</event>
<event>
 8    1  0.2123879E+004  0.1043930E+01  0.7957747E-01            NaN
         13   -1    0    0    0    0  0.00000000000E+00  0.00000000000E+00  0.74505805969E-08  0.10566000000E+00  0.10566000000E+00 0. -1.
     999900   -1    0    0    0    0 -0.00000000000E+00 -0.00000000000E+00 -0.74505805969E-08  0.93827000000E+00  0.93827000000E+00 0. -1.
     999902    2    1    2    0    0 -0.16277108074E-02 -0.12226796875E-01 -0.28478235659E-02  0.10312708490E+01  0.10311931487E+01 0.  0.
     999903    2    3    3    0    0 -0.90658791398E-01  0.20007048290E-01  0.95941659877E-01  0.14069523959E+00  0.44396507795E-01 0.  0.
         14    1    1    2    0    0  0.16277108074E-02  0.12226796875E-01  0.28478235659E-02  0.12659150973E-01  0.00000000000E+00 0. -1.
     999901    1    3    3    0    0  0.89031080590E-01 -0.32233845165E-01 -0.98789483443E-01  0.89057560944E+00  0.88000000000E+00 0. -1.
        -11    1    4    4    0    0 -0.67998054503E-01 -0.16733662774E-02  0.81524961417E-01  0.10617493125E+00  0.51100000000E-03 0.  1.
         11    1    4    4    0    0 -0.22660736895E-01  0.21680414567E-01  0.14416698460E-01  0.34520308340E-01  0.51100000000E-03 0. -1.
</event>
<event>
 8    1  0.2123879E+004  0.1043930E+01  0.7957747E-01            NaN
         13   -1    0    0    0    0  0.00000000000E+00  0.00000000000E+00  0.74505805969E-08  0.10566000000E+00  0.10566000000E+00 0. -1.
     999900   -1    0    0    0    0 -0.00000000000E+00 -0.00000000000E+00 -0.74505805969E-08  0.93827000000E+00  0.93827000000E+00 0. -1.
     999902    2    1    2    0    0  0.63760610247E-02 -0.29809738404E-02  0.17145223510E-01  0.10253962727E+01  0.10252287632E+01 0.  0.
     999903    2    3    3    0    0  0.52353823323E-01  0.11567441279E+00  0.23180471876E-01  0.13622279150E+00  0.43563999551E-01 0.  0.
         14    1    1    2    0    0 -0.63760610247E-02  0.29809738404E-02 -0.17145223510E-01  0.18533727322E-01  0.00000000000E+00 0.  1.
     999901    1    3    3    0    0 -0.45977762298E-01 -0.11865538663E+00 -0.60352483654E-02  0.88917348118E+00  0.88000000000E+00 0. -1.
        -11    1    4    4    0    0  0.10824914404E-01  0.25663612510E-01  0.24477499714E-01  0.37083809030E-01  0.51100000000E-03 0. -1.
         11    1    4    4    0    0  0.41528908919E-01  0.90010800283E-01 -0.12970278379E-02  0.99138982473E-01  0.51100000000E-03 0.  1.
</event>
<event>
 8    1  0.2518248E+004  0.1043930E+01  0.7957747E-01            NaN
         13   -1    0    0    0    0  0.00000000000E+00  0.00000000000E+00  0.74505805969E-08  0.10566000000E+00  0.10566000000E+00 0.  1.
     999900   -1    0    0    0    0 -0.00000000000E+00 -0.00000000000E+00 -0.74505805969E-08  0.93827000000E+00  0.93827000000E+00 0.  1.
     999902    2    1    2    0    0  0.12788339385E-01  0.74014276542E-02 -0.19250753547E-02  0.10290293735E+01  0.10289214853E+01 0.  0.
     999903    2    3    3    0    0 -0.73266077612E-01 -0.10253090669E+00  0.31132407005E-01  0.13741102578E+00  0.45078357165E-01 0.  0.
         14    1    1    2    0    0 -0.12788339385E-01 -0.74014276542E-02  0.19250753547E-02  0.14900626520E-01  0.00000000000E+00 0.  1.
     999901    1    3    3    0    0  0.86054416998E-01  0.10993233434E+00 -0.33057482360E-01  0.89161834770E+00  0.88000000000E+00 0.  1.
        -11    1    4    4    0    0 -0.23169670553E-01 -0.69761237944E-01  0.11466005475E-01  0.74398886789E-01  0.51100000000E-03 0.  1.
         11    1    4    4    0    0 -0.50096407059E-01 -0.32769668744E-01  0.19666401530E-01  0.63012138989E-01  0.51100000000E-03 0. -1.
</event>
<event>
 8    1  0.2123879E+004  0.1043930E+01  0.7957747E-01            NaN
         13   -1    0    0    0    0  0.00000000000E+00  0.00000000000E+00  0.74505805969E-08  0.10566000000E+00  0.10566000000E+00 0. -1.
     999900   -1    0    0    0    0 -0.00000000000E+00 -0.00000000000E+00 -0.74505805969E-08  0.93827000000E+00  0.93827000000E+00 0. -1.
     999902    2    1    2    0    0  0.20299510760E-02 -0.11186236419E-01 -0.85257607567E-02  0.10297193989E+01  0.10296213378E+01 0.  0.
     999903    2    3    3    0    0  0.12014547467E+00  0.28844963012E-01 -0.48829740927E-01  0.14001260190E+00  0.44183912426E-01 0.  0.
         14    1    1    2    0    0 -0.20299510760E-02  0.11186236419E-01  0.85257607567E-02  0.14210601080E-01  0.00000000000E+00 0. -1.
     999901    1    3    3    0    0 -0.11811552360E+00 -0.40031199430E-01  0.40303980170E-01  0.88970679702E+00  0.88000000000E+00 0. -1.
        -11    1    4    4    0    0  0.68629823454E-01  0.15805156812E-01 -0.40936938626E-02  0.70546970875E-01  0.51100000000E-03 0. -1.
         11    1    4    4    0    0  0.51515651217E-01  0.13039806200E-01 -0.44736047064E-01  0.69465631027E-01  0.51100000000E-03 0.  1.
</event>
<event>
 7    1  0.2287448E+004  0.1043930E+01  0.7957747E-01            NaN
         13   -1    0    0    0    0  0.00000000000E+00  0.00000000000E+00  0.74505805969E-08  0.10566000000E+00  0.10566000000E+00 0. -1.
     999900   -1    0    0    0    0 -0.00000000000E+00 -0.00000000000E+00 -0.74505805969E-08  0.93827000000E+00  0.93827000000E+00 0.  1.
     999903    2    1    2    0    0 -0.11102842813E-01  0.70490423671E-01 -0.82026997962E-01  0.11765047345E+00  0.44955895724E-01 0.  0.
         14    1    1    2    0    0  0.13897878173E-01 -0.39721326733E-01  0.26134681549E-02  0.42163550976E-01  0.00000000000E+00 0.  1.
     999901    1    1    2    0    0 -0.27950353598E-02 -0.30769096938E-01  0.79413529807E-01  0.88411597557E+00  0.88000000000E+00 0. -1.
        -11    1    3    3    0    0 -0.26406280985E-01  0.35467471787E-01 -0.31495951796E-01  0.54290784954E-01  0.51100000000E-03 0.  1.
         11    1    3    3    0    0  0.15303438172E-01  0.35022951884E-01 -0.50531046166E-01  0.63359688495E-01  0.51100000000E-03 0. -1.
</event>
<event>
 8    1  0.2123879E+004  0.1043930E+01  0.7957747E-01            NaN
         13   -1    0    0    0    0  0.00000000000E+00  0.00000000000E+00  0.74505805969E-08  0.10566000000E+00  0.10566000000E+00 0.  1.
     999900   -1    0    0    0    0 -0.00000000000E+00 -0.00000000000E+00 -0.74505805969E-08  0.93827000000E+00  0.93827000000E+00 0.  1.
     999902    2    1    2    0    0 -0.10277994043E-02  0.12416661996E-01  0.52758094801E-02  0.10303998842E+01  0.10303110489E+01 0.  0.
     999903    2    3    3    0    0  0.31092146415E-01 -0.60284438023E-01  0.11399651408E+00  0.14015422575E+00  0.45244521614E-01 0.  0.
         14    1    1    2    0    0  0.10277994043E-02 -0.12416661996E-01 -0.52758094801E-02  0.13530115757E-01  0.00000000000E+00 0. -1.
     999901    1    3    3    0    0 -0.32119945820E-01  0.72701100019E-01 -0.10872070460E+00  0.89024565850E+00  0.88000000000E+00 0.  1.
        -11    1    4    4    0    0  0.28691372101E-01 -0.39485311567E-01  0.39565858969E-01  0.62833135999E-01  0.51100000000E-03 0. -1.
         11    1    4    4    0    0  0.24007743139E-02 -0.20799126457E-01  0.74430655109E-01  0.77321089747E-01  0.51100000000E-03 0.  1.
</event>
<event>
 8    1  0.2123879E+004  0.1043930E+01  0.7957747E-01            NaN
         13   -1    0    0    0    0  0.00000000000E+00  0.00000000000E+00  0.74505805969E-08  0.10566000000E+00  0.10566000000E+00 0. -1.
     999900   -1    0    0    0    0 -0.00000000000E+00 -0.00000000000E+00 -0.74505805969E-08  0.93827000000E+00  0.93827000000E+00 0.  1.
     999902    2    1    2    0    0 -0.53047626152E-02  0.15019638466E-02 -0.12584440121E-01  0.10301908394E+01  0.10300992190E+01 0.  0.
     999903    2    3    3    0    0  0.11421279859E+00 -0.57640998026E-01 -0.34133824324E-01  0.13988375002E+00  0.45114272050E-01 0.  0.
         14    1    1    2    0    0  0.53047626152E-02 -0.15019638466E-02  0.12584440121E-01  0.13739160635E-01  0.00000000000E+00 0. -1.
     999901    1    3    3    0    0 -0.11951756120E+00  0.59142961872E-01  0.21549384203E-01  0.89030708934E+00  0.88000000000E+00 0.  1.
        -11    1    4    4    0    0  0.56491607760E-01 -0.53422188758E-01 -0.20896791772E-01  0.80511918536E-01  0.51100000000E-03 0.  1.
         11    1    4    4    0    0  0.57721190828E-01 -0.42188092677E-02 -0.13237032552E-01  0.59371831486E-01  0.51100000000E-03 0. -1.
</event>
<event>
 8    1  0.2123879E+004  0.1043930E+01  0.7957747E-01            NaN
         13   -1    0    0    0    0  0.00000000000E+00  0.00000000000E+00  0.74505805969E-08  0.10566000000E+00  0.10566000000E+00 0. -1.
     999900   -1    0    0    0    0 -0.00000000000E+00 -0.00000000000E+00 -0.74505805969E-08  0.93827000000E+00  0.93827000000E+00 0. -1.
     999902    2    1    2    0    0 -0.83737240441E-02 -0.24404991309E-02  0.10428205285E-01  0.10303350467E+01  0.10302453522E+01 0.  0.
     999903    2    3    3    0    0 -0.31642999394E-01 -0.40889357713E-01  0.12408697226E+00  0.14188803688E+00  0.45402856103E-01 0.  0.
         14    1    1    2    0    0  0.83737240441E-02  0.24404991309E-02 -0.10428205285E-01  0.13594953322E-01  0.00000000000E+00 0.  1.
     999901    1    3    3    0    0  0.23269275350E-01  0.38448858582E-01 -0.11365876697E+00  0.88844700979E+00  0.88000000000E+00 0. -1.
        -11    1    4    4    0    0 -0.40190900096E-01 -0.22378755726E-01  0.67054050983E-01  0.81318042479E-01  0.51100000000E-03 0. -1.
         11    1    4    4    0    0  0.85479007016E-02 -0.18510601987E-01  0.57032921273E-01  0.60569994405E-01  0.51100000000E-03 0.  1.
</event>
<event>
 8    1  0.2123879E+004  0.1043930E+01  0.7957747E-01            NaN
         13   -1    0    0    0    0  0.00000000000E+00  0.00000000000E+00  0.74505805969E-08  0.10566000000E+00  0.10566000000E+00 0. -1.
     999900   -1    0    0    0    0 -0.00000000000E+00 -0.00000000000E+00 -0.74505805969E-08  0.93827000000E+00  0.93827000000E+00 0.  1.
     999902    2    1    2    0    0 -0.61892698216E-02  0.98826340511E-02  0.81481344148E-02  0.10297044733E+01  0.10296062046E+01 0.  0.
     999903    2    3    3    0    0 -0.13129572721E+00 -0.18334218251E-01 -0.10632015318E-01  0.14020994800E+00  0.44396826768E-01 0.  0.
         14    1    1    2    0    0  0.61892698216E-02 -0.98826340511E-02 -0.81481344148E-02  0.14225526744E-01  0.00000000000E+00 0.  1.
     999901    1    3    3    0    0  0.12510645739E+00  0.28216852302E-01  0.18780149733E-01  0.88949452525E+00  0.88000000000E+00 0.  1.
        -11    1    4    4    0    0 -0.73505469687E-01  0.12082849317E-01 -0.51183978516E-02  0.74669327298E-01  0.51100000000E-03 0.  1.
         11    1    4    4    0    0 -0.57790257520E-01 -0.30417067568E-01 -0.55136174665E-02  0.65540620703E-01  0.51100000000E-03 0. -1.
</event>
<event>
 8    1  0.2123879E+004  0.1043930E+01  0.7957747E-01            NaN
         13   -1    0    0    0    0  0.00000000000E+00  0.00000000000E+00  0.74505805969E-08  0.10566000000E+00  0.10566000000E+00 0.  1.
     999900   -1    0    0    0    0 -0.00000000000E+00 -0.00000000000E+00 -0.74505805969E-08  0.93827000000E+00  0.93827000000E+00 0. -1.
     999902    2    1    2    0    0 -0.35553756687E-02 -0.13432243115E-01  0.17191675895E-03  0.10300341227E+01  0.10299403859E+01 0.  0.
     999903    2    3    3    0    0  0.35523836143E-01  0.60816985692E-01 -0.11103940441E+00  0.13907503791E+00  0.45293135828E-01 0.  0.
         14    1    1    2    0    0  0.35553756687E-02  0.13432243115E-01 -0.17191675895E-03  0.13895877325E-01  0.00000000000E+00 0.  1.
     999901    1    3    3    0    0 -0.39079211812E-01 -0.74249228807E-01  0.11121132117E+00  0.89095908477E+00  0.88000000000E+00 0.  1.
        -11    1    4    4    0    0  0.23629193991E-01  0.56672687204E-01 -0.57677257211E-01  0.84244046697E-01  0.51100000000E-03 0. -1.
         11    1    4    4    0    0  0.11894642152E-01  0.41442984882E-02 -0.53362147203E-01  0.54830991210E-01  0.51100000000E-03 0.  1.
</event>
<event>
 8    1  0.2317165E+004  0.1043930E+01  0.7957747E-01            NaN
         13   -1    0    0    0    0  0.00000000000E+00  0.00000000000E+00  0.74505805969E-08  0.10566000000E+00  0.10566000000E+00 0.  1.
     999900   -1    0    0    0    0 -0.00000000000E+00 -0.00000000000E+00 -0.74505805969E-08  0.93827000000E+00  0.93827000000E+00 0. -1.
     999902    2    1    2    0    0 -0.84955914614E-02  0.15485318852E-01  0.83105009364E-02  0.10244098924E+01  0.10242238979E+01 0.  0.
     999903    2    3    3    0    0  0.11003944215E+00  0.73751799651E-02  0.63154222832E-01  0.13473345552E+00  0.44738977019E-01 0.  0.
         14    1    1    2    0    0  0.84955914614E-02 -0.15485318852E-01 -0.83105009364E-02  0.19520107583E-01  0.00000000000E+00 0. -1.
     999901    1    3    3    0    0 -0.11853503361E+00  0.81101388870E-02 -0.54843721895E-01  0.88967643690E+00  0.88000000000E+00 0. -1.
        -11    1    4    4    0    0  0.56715833892E-01 -0.19363124187E-02  0.56691550692E-01  0.80216134042E-01  0.51100000000E-03 0.  1.
         11    1    4    4    0    0  0.53323608261E-01  0.93114923837E-02  0.64626721399E-02  0.54517321473E-01  0.51100000000E-03 0. -1.
</event>
<event>
 8    1  0.2123879E+004  0.1043930E+01  0.7957747E-01            NaN
         13   -1    0    0    0    0  0.00000000000E+00  0.00000000000E+00  0.74505805969E-08  0.10566000000E+00  0.10566000000E+00 0.  1.
     999900   -1    0    0    0    0 -0.00000000000E+00 -0.00000000000E+00 -0.74505805969E-08  0.93827000000E+00  0.93827000000E+00 0. -1.
     999902    2    1    2    0    0  0.12567628023E-02 -0.14136219649E-01 -0.54148871860E-03  0.10297276985E+01  0.10296297527E+01 0.  0.
     999903    2    3    3    0    0  0.97801792280E-01  0.85307918587E-01 -0.17878879097E-01  0.13871105191E+00  0.45590240806E-01 0.  0.
         14    1    1    2    0    0 -0.12567628023E-02  0.14136219649E-01  0.54148871860E-03  0.14202301529E-01  0.00000000000E+00 0. -1.
     999901    1    3    3    0    0 -0.96545029478E-01 -0.99444138236E-01  0.17337390379E-01  0.89101664656E+00  0.88000000000E+00 0. -1.
        -11    1    4    4    0    0  0.42377906603E-01  0.10287482607E-01 -0.12092942247E-01  0.45257260629E-01  0.51100000000E-03 0. -1.
         11    1    4    4    0    0  0.55423885677E-01  0.75020435980E-01 -0.57859368504E-02  0.93453791279E-01  0.51100000000E-03 0.  1.
</event>
<event>
 8    1  0.2123879E+004  0.1043930E+01  0.7957747E-01            NaN
         13   -1    0    0    0    0  0.00000000000E+00  0.00000000000E+00  0.74505805969E-08  0.10566000000E+00  0.10566000000E+00 0.  1.
     999900   -1    0    0    0    0 -0.00000000000E+00 -0.00000000000E+00 -0.74505805969E-08  0.93827000000E+00  0.93827000000E+00 0.  1.
     999902    2    1    2    0    0 -0.10182434998E-01 -0.97860612355E-02  0.37877181436E-03  0.10298022810E+01  0.10297053683E+01 0.  0.
     999903    2    3    3    0    0 -0.10654051680E+00 -0.74537243606E-01  0.34367392114E-01  0.14152708608E+00  0.44069445754E-01 0.  0.
         14    1    1    2    0    0  0.10182434998E-01  0.97860612355E-02 -0.37877181436E-03  0.14127719033E-01  0.00000000000E+00 0. -1.
     999901    1    3    3    0    0  0.96358081800E-01  0.64751182371E-01 -0.33988620299E-01  0.88827519489E+00  0.88000000000E+00 0. -1.
        -11    1    4    4    0    0 -0.34470718419E-01 -0.19600121348E-01  0.31860819347E-01  0.50870110238E-01  0.51100000000E-03 0. -1.
         11    1    4    4    0    0 -0.72069798379E-01 -0.54937122258E-01  0.25065727665E-02  0.90656975840E-01  0.51100000000E-03 0.  1.
</event>
<event>
 8    1  0.2123879E+004  0.1043930E+01  0.7957747E-01            NaN
         13   -1    0    0    0    0  0.00000000000E+00  0.00000000000E+00  0.74505805969E-08  0.10566000000E+00  0.10566000000E+00 0.  1.
     999900   -1    0    0    0    0 -0.00000000000E+00 -0.00000000000E+00 -0.74505805969E-08  0.93827000000E+00  0.93827000000E+00 0. -1.
     999902    2    1    2    0    0 -0.95698833702E-02 -0.54027171202E-02 -0.81028279199E-02  0.10302761419E+01  0.10301856633E+01 0.  0.
     999903    2    3    3    0    0  0.55898399306E-01  0.44626473419E-01  0.10987938297E+00  0.13858739689E+00  0.44909181686E-01 0.  0.
         14    1    1    2    0    0  0.95698833702E-02  0.54027171202E-02  0.81028279199E-02  0.13653858074E-01  0.00000000000E+00 0.  1.
     999901    1    3    3    0    0 -0.65468282676E-01 -0.50029190539E-01 -0.11798221089E+00  0.89168874504E+00  0.88000000000E+00 0. -1.
        -11    1    4    4    0    0  0.42963051158E-01  0.13867243618E-01  0.87332102917E-01  0.98312163700E-01  0.51100000000E-03 0. -1.
         11    1    4    4    0    0  0.12935348147E-01  0.30759229800E-01  0.22547280052E-01  0.40275233188E-01  0.51100000000E-03 0.  1.
</event>
<event>
 8    1  0.2123879E+004  0.1043930E+01  0.7957747E-01            NaN
         13   -1    0    0    0    0  0.00000000000E+00  0.00000000000E+00  0.74505805969E-08  0.10566000000E+00  0.10566000000E+00 0. -1.
     999900   -1    0    0    0    0 -0.00000000000E+00 -0.00000000000E+00 -0.74505805969E-08  0.93827000000E+00  0.93827000000E+00 0. -1.
     999902    2    1    2    0    0  0.26730995561E-02 -0.12432464064E-01 -0.37566487922E-02  0.10306701345E+01  0.10305848350E+01 0.  0.
     999903    2    3    3    0    0 -0.11433634165E+00  0.72480081629E-02  0.66571275096E-01  0.13992631765E+00  0.44970068463E-01 0.  0.
         14    1    1    2    0    0 -0.26730995561E-02  0.12432464064E-01  0.37566487922E-02  0.13259865538E-01  0.00000000000E+00 0.  1.
     999901    1    3    3    0    0  0.11700944121E+00 -0.19680472227E-01 -0.70327923888E-01  0.89074381682E+00  0.88000000000E+00 0.  1.
        -11    1    4    4    0    0 -0.80373514308E-01  0.22074159758E-01  0.32121321756E-01  0.89326428137E-01  0.51100000000E-03 0. -1.
         11    1    4    4    0    0 -0.33962827342E-01 -0.14826151595E-01  0.34449953340E-01  0.50599889508E-01  0.51100000000E-03 0.  1.
</event>
<event>
 8    1  0.2123879E+004  0.1043930E+01  0.7957747E-01            NaN
         13   -1    0    0    0    0  0.00000000000E+00  0.00000000000E+00  0.74505805969E-08  0.10566000000E+00  0.10566000000E+00 0.  1.
     999900   -1    0    0    0    0 -0.00000000000E+00 -0.00000000000E+00 -0.74505805969E-08  0.93827000000E+00  0.93827000000E+00 0.  1.
     999902    2    1    2    0    0 -0.84072702661E-02 -0.56189540318E-02 -0.97911868767E-02  0.10298544120E+01  0.10297582181E+01 0.  0.
     999903    2    3    3    0    0  0.53936417831E-01 -0.11190821381E+00 -0.47627775456E-01  0.14046374999E+00  0.45045250376E-01 0.  0.
         14    1    1    2    0    0  0.84072702661E-02  0.56189540318E-02  0.97911868767E-02  0.14075588023E-01  0.00000000000E+00 0.  1.
     999901    1    3    3    0    0 -0.62343688097E-01  0.10628925977E+00  0.37836588579E-01  0.88939066198E+00  0.88000000000E+00 0.  1.
        -11    1    4    4    0    0  0.14033879067E-01 -0.26130793962E-01 -0.33603244228E-01  0.44824182072E-01  0.51100000000E-03 0.  1.
         11    1    4    4    0    0  0.39902538764E-01 -0.85777419845E-01 -0.14024531228E-01  0.95639567921E-01  0.51100000000E-03 0. -1.
</event>
<event>
 8    1  0.2123879E+004  0.1043930E+01  0.7957747E-01            NaN
         13   -1    0    0    0    0  0.00000000000E+00  0.00000000000E+00  0.74505805969E-08  0.10566000000E+00  0.10566000000E+00 0. -1.
     999900   -1    0    0    0    0 -0.00000000000E+00 -0.00000000000E+00 -0.74505805969E-08  0.93827000000E+00  0.93827000000E+00 0. -1.
     999902    2    1    2    0    0 -0.37277252909E-02  0.70180169247E-02 -0.11511111595E-01  0.10299423559E+01  0.10298473684E+01 0.  0.
     999903    2    3    3    0    0  0.55695586498E-01  0.11946732060E+00 -0.20347090536E-01  0.14075505819E+00  0.44983811138E-01 0.  0.
         14    1    1    2    0    0  0.37277252909E-02 -0.70180169247E-02  0.11511111595E-01  0.13987644103E-01  0.00000000000E+00 0.  1.
     999901    1    3    3    0    0 -0.59423311789E-01 -0.11244930368E+00  0.88359789406E-02  0.88918729771E+00  0.88000000000E+00 0.  1.
        -11    1    4    4    0    0  0.25957243816E-01  0.34506417762E-01 -0.26267180715E-01  0.50544013266E-01  0.51100000000E-03 0. -1.
         11    1    4    4    0    0  0.29738342682E-01  0.84960902843E-01  0.59200901793E-02  0.90211044923E-01  0.51100000000E-03 0.  1.
</event>
<event>
 8    1  0.2123879E+004  0.1043930E+01  0.7957747E-01            NaN
         13   -1    0    0    0    0  0.00000000000E+00  0.00000000000E+00  0.74505805969E-08  0.10566000000E+00  0.10566000000E+00 0.  1.
     999900   -1    0    0    0    0 -0.00000000000E+00 -0.00000000000E+00 -0.74505805969E-08  0.93827000000E+00  0.93827000000E+00 0.  1.
     999902    2    1    2    0    0  0.10748601326E-01  0.54548231562E-02  0.81133891999E-02  0.10294002164E+01  0.10292976688E+01 0.  0.
     999903    2    3    3    0    0 -0.13060710740E+00  0.89100554306E-03  0.97727208435E-02  0.13810620310E+00  0.43804187797E-01 0.  0.
         14    1    1    2    0    0 -0.10748601326E-01 -0.54548231562E-02 -0.81133891999E-02  0.14529783565E-01  0.00000000000E+00 0. -1.
     999901    1    3    3    0    0  0.14135570873E+00  0.45638176131E-02 -0.16593316435E-02  0.89129401333E+00  0.88000000000E+00 0. -1.
        -11    1    4    4    0    0 -0.78852988109E-01  0.13634845715E-01  0.22849698198E-01  0.83223029145E-01  0.51100000000E-03 0. -1.
         11    1    4    4    0    0 -0.51754119291E-01 -0.12743840172E-01 -0.13076977355E-01  0.54883173957E-01  0.51100000000E-03 0.  1.
</event>
<event>
 8    1  0.2123879E+004  0.1043930E+01  0.7957747E-01            NaN
         13   -1    0    0    0    0  0.00000000000E+00  0.00000000000E+00  0.74505805969E-08  0.10566000000E+00  0.10566000000E+00 0.  1.
     999900   -1    0    0    0    0 -0.00000000000E+00 -0.00000000000E+00 -0.74505805969E-08  0.93827000000E+00  0.93827000000E+00 0.  1.
     999902    2    1    2    0    0 -0.96301100149E-02  0.82425211276E-02  0.75725188898E-02  0.10291644585E+01  0.10290585316E+01 0.  0.
     999903    2    3    3    0    0 -0.10388225154E+00 -0.80657535973E-01 -0.11984391500E-01  0.13946273372E+00  0.44822630028E-01 0.  0.
         14    1    1    2    0    0  0.96301100149E-02 -0.82425211276E-02 -0.75725188898E-02  0.14765541499E-01  0.00000000000E+00 0. -1.
     999901    1    3    3    0    0  0.94252141524E-01  0.88900057101E-01  0.19556910390E-01  0.88970172478E+00  0.88000000000E+00 0. -1.
        -11    1    4    4    0    0 -0.84962976140E-01 -0.83159225781E-01 -0.15982526350E-01  0.11995776930E+00  0.51100000000E-03 0. -1.
         11    1    4    4    0    0 -0.18919275400E-01  0.25016898075E-02  0.39981348502E-02  0.19504964415E-01  0.51100000000E-03 0.  1.
</event>
<event>
 8    1  0.2123879E+004  0.1043930E+01  0.7957747E-01            NaN
         13   -1    0    0    0    0  0.00000000000E+00  0.00000000000E+00  0.74505805969E-08  0.10566000000E+00  0.10566000000E+00 0.  1.
     999900   -1    0    0    0    0 -0.00000000000E+00 -0.00000000000E+00 -0.74505805969E-08  0.93827000000E+00  0.93827000000E+00 0. -1.
     999902    2    1    2    0    0  0.13642999968E-02 -0.11659911078E-01 -0.58913817172E-02  0.10307951905E+01  0.10307115026E+01 0.  0.
     999903    2    3    3    0    0 -0.52276709773E-01  0.12074881506E+00 -0.82665918826E-02  0.13927117499E+00  0.44888672513E-01 0.  0.
         14    1    1    2    0    0 -0.13642999968E-02  0.11659911078E-01  0.58913817172E-02  0.13134809453E-01  0.00000000000E+00 0. -1.
     999901    1    3    3    0    0  0.53641009770E-01 -0.13240872614E+00  0.23752101654E-02  0.89152401555E+00  0.88000000000E+00 0.  1.
        -11    1    4    4    0    0 -0.31839594191E-01  0.52596289934E-01 -0.24674428409E-01  0.66251173661E-01  0.51100000000E-03 0. -1.
         11    1    4    4    0    0 -0.20437115582E-01  0.68152525124E-01  0.16407836527E-01  0.73020001332E-01  0.51100000000E-03 0.  1.
</event>
<event>
 8    1  0.2123879E+004  0.1043930E+01  0.7957747E-01            NaN
         13   -1    0    0    0    0  0.00000000000E+00  0.00000000000E+00  0.74505805969E-08  0.10566000000E+00  0.10566000000E+00 0.  1.
     999900   -1    0    0    0    0 -0.00000000000E+00 -0.00000000000E+00 -0.74505805969E-08  0.93827000000E+00  0.93827000000E+00 0.  1.
     999902    2    1    2    0    0  0.85530062323E-02 -0.81756928945E-02  0.20529028450E-02  0.10319212415E+01  0.10318513645E+01 0.  0.
     999903    2    3    3    0    0 -0.26296144790E-01 -0.12370641602E-01  0.13121453336E+00  0.14180058245E+00  0.45228657015E-01 0.  0.
         14    1    1    2    0    0 -0.85530062323E-02  0.81756928945E-02 -0.20529028450E-02  0.12008758471E-01  0.00000000000E+00 0.  1.
     999901    1    3    3    0    0  0.34849151023E-01  0.41949487071E-02 -0.12916163051E+00  0.89012065908E+00  0.88000000000E+00 0.  1.
        -11    1    4    4    0    0 -0.37825909249E-01 -0.44857820830E-02  0.78359114628E-01  0.87128259582E-01  0.51100000000E-03 0. -1.
         11    1    4    4    0    0  0.11529764459E-01 -0.78848595186E-02  0.52855418727E-01  0.54672322869E-01  0.51100000000E-03 0.  1.
</event>
<event>
 8    1  0.2123879E+004  0.1043930E+01  0.7957747E-01            NaN
         13   -1    0    0    0    0  0.00000000000E+00  0.00000000000E+00  0.74505805969E-08  0.10566000000E+00  0.10566000000E+00 0. -1.
     999900   -1    0    0    0    0 -0.00000000000E+00 -0.00000000000E+00 -0.74505805969E-08  0.93827000000E+00  0.93827000000E+00 0. -1.
     999902    2    1    2    0    0 -0.21521960645E-01 -0.10160339709E-04  0.30221028016E-02  0.10221968916E+01  0.10219658298E+01 0.  0.
     999903    2    3    3    0    0 -0.12042893747E+00 -0.43336757861E-01 -0.12465573392E-02  0.13558648929E+00  0.44731852287E-01 0.  0.
         14    1    1    2    0    0  0.21521960645E-01  0.10160339709E-04 -0.30221028016E-02  0.21733108350E-01  0.00000000000E+00 0.  1.
     999901    1    3    3    0    0  0.98906976829E-01  0.43326597521E-01  0.42686601408E-02  0.88661040236E+00  0.88000000000E+00 0. -1.
        -11    1    4    4    0    0 -0.60444259338E-01 -0.43254109719E-01 -0.98781001617E-02  0.74981760971E-01  0.51100000000E-03 0.  1.
         11    1    4    4    0    0 -0.59984678135E-01 -0.82648141630E-04  0.86315428224E-02  0.60604728316E-01  0.51100000000E-03 0. -1.
</event>
<event>
 8    1  0.2123879E+004  0.1043930E+01  0.7957747E-01            NaN
         13   -1    0    0    0    0  0.00000000000E+00  0.00000000000E+00  0.74505805969E-08  0.10566000000E+00  0.10566000000E+00 0.  1.
     999900   -1    0    0    0    0 -0.00000000000E+00 -0.00000000000E+00 -0.74505805969E-08  0.93827000000E+00  0.93827000000E+00 0.  1.
     999902    2    1    2    0    0 -0.22345784556E-02  0.30268603937E-02  0.13060397749E-01  0.10303384874E+01  0.10302488386E+01 0.  0.
     999903    2    3    3    0    0  0.87317473078E-01 -0.40489810170E-01  0.93238325663E-01  0.14110186499E+00  0.44188065125E-01 0.  0.
         14    1    1    2    0    0  0.22345784556E-02 -0.30268603937E-02 -0.13060397749E-01  0.13591512575E-01  0.00000000000E+00 0. -1.
     999901    1    3    3    0    0 -0.89552051533E-01  0.43516670563E-01 -0.80177927914E-01  0.88923662243E+00  0.88000000000E+00 0.  1.
        -11    1    4    4    0    0  0.77392221314E-01 -0.18624279116E-01  0.82968349280E-01  0.11498011913E+00  0.51100000000E-03 0. -1.
         11    1    4    4    0    0  0.99252517636E-02 -0.21865531053E-01  0.10269976383E-01  0.26121745859E-01  0.51100000000E-03 0.  1.
</event>
<event>
 8    1  0.2123879E+004  0.1043930E+01  0.7957747E-01            NaN
         13   -1    0    0    0    0  0.00000000000E+00  0.00000000000E+00  0.74505805969E-08  0.10566000000E+00  0.10566000000E+00 0. -1.
     999900   -1    0    0    0    0 -0.00000000000E+00 -0.00000000000E+00 -0.74505805969E-08  0.93827000000E+00  0.93827000000E+00 0.  1.
     999902    2    1    2    0    0  0.21962924416E-02 -0.14556846992E-01  0.48514941246E-02  0.10284295971E+01  0.10283127801E+01 0.  0.
     999903    2    3    3    0    0  0.77208807155E-01 -0.10719786274E+00 -0.12061763583E-01  0.14023181876E+00  0.45463118830E-01 0.  0.
         14    1    1    2    0    0 -0.21962924416E-02  0.14556846992E-01 -0.48514941246E-02  0.15500402900E-01  0.00000000000E+00 0.  1.
     999901    1    3    3    0    0 -0.75012514714E-01  0.92641015747E-01  0.16913257708E-01  0.88819777834E+00  0.88000000000E+00 0.  1.
        -11    1    4    4    0    0  0.48234214905E-01 -0.54793692349E-01 -0.28125376253E-01  0.78231618410E-01  0.51100000000E-03 0.  1.
         11    1    4    4    0    0  0.28974592250E-01 -0.52404170390E-01  0.16063612670E-01  0.62000200349E-01  0.51100000000E-03 0. -1.
</event>
<event>
 8    1  0.2123879E+004  0.1043930E+01  0.7957747E-01            NaN
         13   -1    0    0    0    0  0.00000000000E+00  0.00000000000E+00  0.74505805969E-08  0.10566000000E+00  0.10566000000E+00 0.  1.
     999900   -1    0    0    0    0 -0.00000000000E+00 -0.00000000000E+00 -0.74505805969E-08  0.93827000000E+00  0.93827000000E+00 0. -1.
     999902    2    1    2    0    0  0.10318246200E-01  0.39403600710E-02 -0.51745092163E-02  0.10317329435E+01  0.10316608447E+01 0.  0.
     999903    2    3    3    0    0 -0.78635192550E-01 -0.28685106630E-01 -0.10430376757E+00  0.14111307777E+00  0.45025503185E-01 0.  0.
         14    1    1    2    0    0 -0.10318246200E-01 -0.39403600710E-02  0.51745092163E-02  0.12197056521E-01  0.00000000000E+00 0.  1.
     999901    1    3    3    0    0  0.88953438750E-01  0.32625466701E-01  0.99129258355E-01  0.89061986571E+00  0.88000000000E+00 0.  1.
        -11    1    4    4    0    0 -0.38261534319E-01 -0.23180715057E-01 -0.84927239627E-01  0.95990560529E-01  0.51100000000E-03 0. -1.
         11    1    4    4    0    0 -0.40373658231E-01 -0.55043915734E-02 -0.19376527944E-01  0.45122517236E-01  0.51100000000E-03 0.  1.
</event>
<event>
 8    1  0.2123879E+004  0.1043930E+01  0.7957747E-01            NaN
         13   -1    0    0    0    0  0.00000000000E+00  0.00000000000E+00  0.74505805969E-08  0.10566000000E+00  0.10566000000E+00 0.  1.
     999900   -1    0    0    0    0 -0.00000000000E+00 -0.00000000000E+00 -0.74505805969E-08  0.93827000000E+00  0.93827000000E+00 0.  1.
     999902    2    1    2    0    0 -0.11042453248E-02  0.35809300358E-02  0.14030964851E-01  0.10294072457E+01  0.10293047980E+01 0.  0.
     999903    2    3    3    0    0  0.91087848366E-01 -0.76736436539E-01 -0.56524927941E-01  0.13815621736E+00  0.41310968334E-01 0.  0.
         14    1    1    2    0    0  0.11042453248E-02 -0.35809300358E-02 -0.14030964851E-01  0.14522754295E-01  0.00000000000E+00 0. -1.
     999901    1    3    3    0    0 -0.92192093691E-01  0.80317366575E-01  0.70555892793E-01  0.89125102834E+00  0.88000000000E+00 0. -1.
        -11    1    4    4    0    0  0.16151888532E-01 -0.29325700909E-01 -0.93519861235E-03  0.33496506600E-01  0.51100000000E-03 0.  1.
         11    1    4    4    0    0  0.74935959834E-01 -0.47410735631E-01 -0.55589729329E-01  0.10465971076E+00  0.51100000000E-03 0. -1.
</event>
<event>
 8    1  0.2123879E+004  0.1043930E+01  0.7957747E-01            NaN
         13   -1    0    0    0    0  0.00000000000E+00  0.00000000000E+00  0.74505805969E-08  0.10566000000E+00  0.10566000000E+00 0. -1.
     999900   -1    0    0    0    0 -0.00000000000E+00 -0.00000000000E+00 -0.74505805969E-08  0.93827000000E+00  0.93827000000E+00 0. -1.
     999902    2    1    2    0    0  0.13571003499E-03  0.45120552421E-02 -0.14162230219E-01  0.10290657535E+01  0.10289583953E+01 0.  0.
     999903    2    3    3    0    0  0.59349813528E-01  0.98457708331E-02 -0.11917606150E+00  0.14083005090E+00  0.44842279535E-01 0.  0.
         14    1    1    2    0    0 -0.13571003499E-03 -0.45120552421E-02  0.14162230219E-01  0.14864246517E-01  0.00000000000E+00 0. -1.
     999901    1    3    3    0    0 -0.59214103493E-01 -0.53337155909E-02  0.10501383128E+00  0.88823570258E+00  0.88000000000E+00 0.  1.
        -11    1    4    4    0    0  0.41254254565E-01  0.14449063182E-01 -0.39247438579E-01  0.58747863813E-01  0.51100000000E-03 0.  1.
         11    1    4    4    0    0  0.18095558963E-01 -0.46032923490E-02 -0.79928622922E-01  0.82082187092E-01  0.51100000000E-03 0. -1.
</event>
<event>
 8    1  0.2123879E+004  0.1043930E+01  0.7957747E-01            NaN
         13   -1    0    0    0    0  0.00000000000E+00  0.00000000000E+00  0.74505805969E-08  0.10566000000E+00  0.10566000000E+00 0. -1.
     999900   -1    0    0    0    0 -0.00000000000E+00 -0.00000000000E+00 -0.74505805969E-08  0.93827000000E+00  0.93827000000E+00 0. -1.
     999902    2    1    2    0    0 -0.97250533910E-02  0.96219933655E-02  0.30088924950E-02  0.10299224001E+01  0.10298271396E+01 0.  0.
     999903    2    3    3    0    0  0.45092827179E-01  0.12255140061E+00 -0.29513918429E-01  0.14041928925E+00  0.42359137853E-01 0.  0.
         14    1    1    2    0    0  0.97250533910E-02 -0.96219933655E-02 -0.30088924950E-02  0.14007599860E-01  0.00000000000E+00 0. -1.
     999901    1    3    3    0    0 -0.54817880570E-01 -0.11292940724E+00  0.32522810924E-01  0.88950311089E+00  0.88000000000E+00 0.  1.
        -11    1    4    4    0    0  0.21468734016E-01  0.19440796423E-01 -0.17775470831E-01  0.33986461865E-01  0.51100000000E-03 0. -1.
         11    1    4    4    0    0  0.23624093163E-01  0.10311060418E+00 -0.11738447598E-01  0.10643282739E+00  0.51100000000E-03 0.  1.
</event>
<event>
 8    1  0.2123879E+004  0.1043930E+01  0.7957747E-01            NaN
         13   -1    0    0    0    0  0.00000000000E+00  0.00000000000E+00  0.74505805969E-08  0.10566000000E+00  0.10566000000E+00 0. -1.
     999900   -1    0    0    0    0 -0.00000000000E+00 -0.00000000000E+00 -0.74505805969E-08  0.93827000000E+00  0.93827000000E+00 0. -1.
     999902    2    1    2    0    0 -0.18567039166E-02 -0.11173085342E-01  0.86324245935E-02  0.10296890752E+01  0.10295905922E+01 0.  0.
     999903    2    3    3    0    0 -0.22554474255E-01 -0.10018049868E+00 -0.84581849323E-01  0.14006015355E+00  0.43794072116E-01 0.  0.
         14    1    1    2    0    0  0.18567039166E-02  0.11173085342E-01 -0.86324245935E-02  0.14240924824E-01  0.00000000000E+00 0.  1.
     999901    1    3    3    0    0  0.20697770338E-01  0.89007413343E-01  0.93214273917E-01  0.88962892162E+00  0.88000000000E+00 0.  1.
        -11    1    4    4    0    0 -0.32830787776E-01 -0.88046828596E-01 -0.80246288179E-01  0.12357116387E+00  0.51100000000E-03 0. -1.
         11    1    4    4    0    0  0.10276313522E-01 -0.12133670089E-01 -0.43355611441E-02  0.16488989686E-01  0.51100000000E-03 0.  1.
</event>
<event>
 8    1  0.2123879E+004  0.1043930E+01  0.7957747E-01            NaN
         13   -1    0    0    0    0  0.00000000000E+00  0.00000000000E+00  0.74505805969E-08  0.10566000000E+00  0.10566000000E+00 0. -1.
     999900   -1    0    0    0    0 -0.00000000000E+00 -0.00000000000E+00 -0.74505805969E-08  0.93827000000E+00  0.93827000000E+00 0.  1.
     999902    2    1    2    0    0 -0.14397423264E-01 -0.60613077471E-02 -0.22439303978E-02  0.10281483502E+01  0.10280272221E+01 0.  0.
     999903    2    3    3    0    0  0.11648777916E+00  0.20468640143E-01 -0.51296760409E-01  0.13672199061E+00  0.45532155302E-01 0.  0.
         14    1    1    2    0    0  0.14397423264E-01  0.60613077471E-02  0.22439303978E-02  0.15781649847E-01  0.00000000000E+00 0.  1.
     999901    1    3    3    0    0 -0.13088520242E+00 -0.26529947890E-01  0.49052830012E-01  0.89142635954E+00  0.88000000000E+00 0. -1.
        -11    1    4    4    0    0  0.87312560826E-01  0.14969607532E-01 -0.58508629649E-01  0.10616540535E+00  0.51100000000E-03 0.  1.
         11    1    4    4    0    0  0.29175218332E-01  0.54990326105E-02  0.72118692395E-02  0.30556585269E-01  0.51100000000E-03 0. -1.
</event>
<event>
 8    1  0.2123879E+004  0.1043930E+01  0.7957747E-01            NaN
         13   -1    0    0    0    0  0.00000000000E+00  0.00000000000E+00  0.74505805969E-08  0.10566000000E+00  0.10566000000E+00 0. -1.
     999900   -1    0    0    0    0 -0.00000000000E+00 -0.00000000000E+00 -0.74505805969E-08  0.93827000000E+00  0.93827000000E+00 0.  1.
     999902    2    1    2    0    0 -0.12267690482E-01  0.37358175446E-02 -0.11572899016E-02  0.10310539803E+01  0.10309735780E+01 0.  0.
     999903    2    3    3    0    0  0.12205649602E-01 -0.91573732612E-01  0.95702142618E-01  0.14028767855E+00  0.44575848448E-01 0.  0.
         14    1    1    2    0    0  0.12267690482E-01 -0.37358175446E-02  0.11572899016E-02  0.12876019665E-01  0.00000000000E+00 0. -1.
     999901    1    3    3    0    0 -0.24473340084E-01  0.95309550156E-01 -0.96859432520E-01  0.89076630178E+00  0.88000000000E+00 0.  1.
        -11    1    4    4    0    0 -0.10581930962E-01 -0.62843427012E-01  0.74053926090E-01  0.97701170269E-01  0.51100000000E-03 0.  1.
         11    1    4    4    0    0  0.22787580564E-01 -0.28730305600E-01  0.21648216528E-01  0.42586508282E-01  0.51100000000E-03 0. -1.
</event>
<event>
 8    1  0.2123879E+004  0.1043930E+01  0.7957747E-01            NaN
         13   -1    0    0    0    0  0.00000000000E+00  0.00000000000E+00  0.74505805969E-08  0.10566000000E+00  0.10566000000E+00 0.  1.
     999900   -1    0    0    0    0 -0.00000000000E+00 -0.00000000000E+00 -0.74505805969E-08  0.93827000000E+00  0.93827000000E+00 0. -1.
     999902    2    1    2    0    0  0.41973042464E-02 -0.51808363796E-02 -0.10805675007E-01  0.10312327152E+01  0.10311545432E+01 0.  0.
     999903    2    3    3    0    0 -0.25004593351E-01  0.11839844896E+00 -0.56588912825E-01  0.14094023774E+00  0.44926864496E-01 0.  0.
         14    1    1    2    0    0 -0.41973042464E-02  0.51808363796E-02  0.10805675007E-01  0.12697284784E-01  0.00000000000E+00 0.  1.
     999901    1    3    3    0    0  0.29201897597E-01 -0.12357928534E+00  0.45783237818E-01  0.89029247748E+00  0.88000000000E+00 0.  1.
        -11    1    4    4    0    0 -0.35718540442E-01  0.61151167553E-01 -0.29918553112E-01  0.76880819232E-01  0.51100000000E-03 0. -1.
         11    1    4    4    0    0  0.10713947092E-01  0.57247281410E-01 -0.26670359713E-01  0.64059418506E-01  0.51100000000E-03 0.  1.
</event>
<event>
 8    1  0.2793645E+004  0.1043930E+01  0.7957747E-01            NaN
         13   -1    0    0    0    0  0.00000000000E+00  0.00000000000E+00  0.74505805969E-08  0.10566000000E+00  0.10566000000E+00 0. -1.
     999900   -1    0    0    0    0 -0.00000000000E+00 -0.00000000000E+00 -0.74505805969E-08  0.93827000000E+00  0.93827000000E+00 0. -1.
     999902    2    1    2    0    0  0.29545713032E-02  0.47407640599E-02 -0.15604761799E-01  0.10273555339E+01  0.10272218262E+01 0.  0.
     999903    2    3    3    0    0  0.88242599133E-01  0.36715715655E-01 -0.91989256684E-01  0.13936283333E+00  0.42722077320E-01 0.  0.
         14    1    1    2    0    0 -0.29545713032E-02 -0.47407640599E-02  0.15604761799E-01  0.16574466093E-01  0.00000000000E+00 0. -1.
     999901    1    3    3    0    0 -0.85288027829E-01 -0.31974951595E-01  0.76384494885E-01  0.88799270058E+00  0.88000000000E+00 0.  1.
        -11    1    4    4    0    0  0.41184395952E-01 -0.32646422666E-02 -0.49140867067E-01  0.64202011621E-01  0.51100000000E-03 0.  1.
         11    1    4    4    0    0  0.47058203181E-01  0.39980357922E-01 -0.42848389617E-01  0.75160821709E-01  0.51100000000E-03 0. -1.
</event>
<event>
 8    1  0.2123879E+004  0.1043930E+01  0.7957747E-01            NaN
         13   -1    0    0    0    0  0.00000000000E+00  0.00000000000E+00  0.74505805969E-08  0.10566000000E+00  0.10566000000E+00 0. -1.
     999900   -1    0    0    0    0 -0.00000000000E+00 -0.00000000000E+00 -0.74505805969E-08  0.93827000000E+00  0.93827000000E+00 0.  1.
     999902    2    1    2    0    0 -0.10193773248E-02  0.13342423987E-01 -0.19309583586E-02  0.10304100885E+01  0.10303213879E+01 0.  0.
     999903    2    3    3    0    0 -0.34263297611E-01 -0.89233966836E-01 -0.89613462051E-01  0.13950308116E+00  0.47894286431E-01 0.  0.
         14    1    1    2    0    0  0.10193773248E-02 -0.13342423987E-01  0.19309583586E-02  0.13519911544E-01  0.00000000000E+00 0. -1.
     999901    1    3    3    0    0  0.33243920286E-01  0.10257639082E+00  0.87682503692E-01  0.89090700729E+00  0.88000000000E+00 0. -1.
        -11    1    4    4    0    0  0.18204598410E-02 -0.55937156260E-01 -0.34766796773E-01  0.65888320690E-01  0.51100000000E-03 0. -1.
         11    1    4    4    0    0 -0.36083757452E-01 -0.33296810576E-01 -0.54846665278E-01  0.73614760473E-01  0.51100000000E-03 0.  1.
</event>
<event>
 8    1  0.2123879E+004  0.1043930E+01  0.7957747E-01            NaN
         13   -1    0    0    0    0  0.00000000000E+00  0.00000000000E+00  0.74505805969E-08  0.10566000000E+00  0.10566000000E+00 0. -1.
     999900   -1    0    0    0    0 -0.00000000000E+00 -0.00000000000E+00 -0.74505805969E-08  0.93827000000E+00  0.93827000000E+00 0.  1.
     999902    2    1    2    0    0 -0.11887329269E-01 -0.57327474264E-02 -0.18994091191E-02  0.10305965554E+01  0.10305103004E+01 0.  0.
     999903    2    3    3    0    0 -0.56228734020E-01 -0.77777267392E-01 -0.94273442735E-01  0.14172674764E+00  0.44587163402E-01 0.  0.
         14    1    1    2    0    0  0.11887329269E-01  0.57327474264E-02  0.18994091191E-02  0.13333444612E-01  0.00000000000E+00 0.  1.
     999901    1    3    3    0    0  0.44341404750E-01  0.72044519966E-01  0.92374033616E-01  0.88886980774E+00  0.88000000000E+00 0. -1.
        -11    1    4    4    0    0 -0.36637770292E-01 -0.44537992185E-01 -0.83828050866E-01  0.10175147268E+00  0.51100000000E-03 0.  1.
         11    1    4    4    0    0 -0.19590963728E-01 -0.33239275207E-01 -0.10445391869E-01  0.39975274963E-01  0.51100000000E-03 0. -1.
</event>
<event>
 8    1  0.2123879E+004  0.1043930E+01  0.7957747E-01            NaN
         13   -1    0    0    0    0  0.00000000000E+00  0.00000000000E+00  0.74505805969E-08  0.10566000000E+00  0.10566000000E+00 0.  1.
     999900   -1    0    0    0    0 -0.00000000000E+00 -0.00000000000E+00 -0.74505805969E-08  0.93827000000E+00  0.93827000000E+00 0. -1.
     999902    2    1    2    0    0  0.13089380461E-01 -0.53522124186E-02 -0.41220895276E-02  0.10292001093E+01  0.10290946969E+01 0.  0.
     999903    2    3    3    0    0 -0.25785044596E-01  0.12259239775E+00 -0.38318077021E-01  0.13844177518E+00  0.44767014405E-01 0.  0.
         14    1    1    2    0    0 -0.13089380461E-01  0.53522124186E-02  0.41220895276E-02  0.14729890722E-01  0.00000000000E+00 0.  1.
     999901    1    3    3    0    0  0.38874425056E-01 -0.12794461017E+00  0.34195987493E-01  0.89075833409E+00  0.88000000000E+00 0.  1.
        -11    1    4    4    0    0 -0.52740351917E-02  0.40094341891E-01 -0.34805994968E-01  0.53358130642E-01  0.51100000000E-03 0.  1.
         11    1    4    4    0    0 -0.20511009404E-01  0.82498055860E-01 -0.35120820527E-02  0.85083644543E-01  0.51100000000E-03 0. -1.
</event>
<event>
 8    1  0.2123879E+004  0.1043930E+01  0.7957747E-01            NaN
         13   -1    0    0    0    0  0.00000000000E+00  0.00000000000E+00  0.74505805969E-08  0.10566000000E+00  0.10566000000E+00 0.  1.
     999900   -1    0    0    0    0 -0.00000000000E+00 -0.00000000000E+00 -0.74505805969E-08  0.93827000000E+00  0.93827000000E+00 0.  1.
     999902    2    1    2    0    0  0.64310853769E-02 -0.10403572570E-01  0.63741161258E-02  0.10301378813E+01  0.10300455485E+01 0.  0.
     999903    2    3    3    0    0 -0.45571507072E-01 -0.10158114001E+00  0.74235567485E-01  0.14130561649E+00  0.45396778601E-01 0.  0.
         14    1    1    2    0    0 -0.64310853769E-02  0.10403572570E-01 -0.63741161258E-02  0.13792118682E-01  0.00000000000E+00 0. -1.
     999901    1    3    3    0    0  0.52002592449E-01  0.91177567444E-01 -0.67861451359E-01  0.88883226483E+00  0.88000000000E+00 0.  1.
        -11    1    4    4    0    0 -0.36704643563E-01 -0.28804952223E-01  0.33415704673E-01  0.57391868513E-01  0.51100000000E-03 0.  1.
         11    1    4    4    0    0 -0.88668635088E-02 -0.72776187791E-01  0.40819862812E-01  0.83913747973E-01  0.51100000000E-03 0. -1.
</event>
<event>
 8    1  0.2123879E+004  0.1043930E+01  0.7957747E-01            NaN
         13   -1    0    0    0    0  0.00000000000E+00  0.00000000000E+00  0.74505805969E-08  0.10566000000E+00  0.10566000000E+00 0. -1.
     999900   -1    0    0    0    0 -0.00000000000E+00 -0.00000000000E+00 -0.74505805969E-08  0.93827000000E+00  0.93827000000E+00 0. -1.
     999902    2    1    2    0    0 -0.10195596725E-01  0.11730401060E-01  0.24577615321E-02  0.10281949089E+01  0.10280745000E+01 0.  0.
     999903    2    3    3    0    0 -0.12931543795E+00 -0.19790227169E-01 -0.18154936411E-01  0.13937098372E+00  0.44503188684E-01 0.  0.
         14    1    1    2    0    0  0.10195596725E-01 -0.11730401060E-01 -0.24577615321E-02  0.15735091145E-01  0.00000000000E+00 0.  1.
     999901    1    3    3    0    0  0.11911984122E+00  0.31520628229E-01  0.20612697943E-01  0.88882392514E+00  0.88000000000E+00 0. -1.
        -11    1    4    4    0    0 -0.11242134394E+00 -0.28177045860E-01 -0.43312388559E-02  0.11598071063E+00  0.51100000000E-03 0.  1.
         11    1    4    4    0    0 -0.16894094008E-01  0.83868186908E-02 -0.13823697555E-01  0.23390273090E-01  0.51100000000E-03 0. -1.
</event>
<event>
 7    1  0.2123879E+004  0.1043930E+01  0.7957747E-01            NaN
         13   -1    0    0    0    0  0.00000000000E+00  0.00000000000E+00  0.74505805969E-08  0.10566000000E+00  0.10566000000E+00 0. -1.
     999900   -1    0    0    0    0 -0.00000000000E+00 -0.00000000000E+00 -0.74505805969E-08  0.93827000000E+00  0.93827000000E+00 0. -1.
     999903    2    1    2    0    0  0.89985516462E-01  0.45806548423E-01  0.29637436934E-01  0.11467995772E+00  0.45579403069E-01 0.  0.
         14    1    1    2    0    0  0.37773636237E-01 -0.59660374928E-03 -0.79824558571E-02  0.38612473789E-01  0.00000000000E+00 0.  1.
     999901    1    1    2    0    0 -0.12775915270E+00 -0.45209944674E-01 -0.21654981077E-01  0.89063756849E+00  0.88000000000E+00 0.  1.
        -11    1    3    3    0    0  0.90739939596E-01  0.37251318487E-01  0.35447228857E-01  0.10429843969E+00  0.51100000000E-03 0.  1.
         11    1    3    3    0    0 -0.75442313356E-03  0.85552299364E-02 -0.58097919228E-02  0.10381518035E-01  0.51100000000E-03 0. -1.
</event>
<event>
 8    1  0.2123879E+004  0.1043930E+01  0.7957747E-01            NaN
         13   -1    0    0    0    0  0.00000000000E+00  0.00000000000E+00  0.74505805969E-08  0.10566000000E+00  0.10566000000E+00 0.  1.
     999900   -1    0    0    0    0 -0.00000000000E+00 -0.00000000000E+00 -0.74505805969E-08  0.93827000000E+00  0.93827000000E+00 0. -1.
     999902    2    1    2    0    0  0.15053354961E-02  0.10749948396E-01 -0.53275247841E-02  0.10318382695E+01  0.10317674178E+01 0.  0.
     999903    2    3    3    0    0  0.13015014502E+00  0.23238412981E-01  0.24419514756E-01  0.14189988114E+00  0.45389200041E-01 0.  0.
         14    1    1    2    0    0 -0.15053354961E-02 -0.10749948396E-01  0.53275247841E-02  0.12091730472E-01  0.00000000000E+00 0.  1.
     999901    1    3    3    0    0 -0.12864480952E+00 -0.12488464585E-01 -0.29747039540E-01  0.88993838839E+00  0.88000000000E+00 0. -1.
        -11    1    4    4    0    0  0.65526008243E-01  0.19106335981E-01  0.34303582406E-01  0.76391797451E-01  0.51100000000E-03 0. -1.
         11    1    4    4    0    0  0.64624136776E-01  0.41320770001E-02 -0.98840676499E-02  0.65508083690E-01  0.51100000000E-03 0.  1.
</event>
<event>
 8    1  0.2123879E+004  0.1043930E+01  0.7957747E-01            NaN
         13   -1    0    0    0    0  0.00000000000E+00  0.00000000000E+00  0.74505805969E-08  0.10566000000E+00  0.10566000000E+00 0.  1.
     999900   -1    0    0    0    0 -0.00000000000E+00 -0.00000000000E+00 -0.74505805969E-08  0.93827000000E+00  0.93827000000E+00 0. -1.
     999902    2    1    2    0    0 -0.50488982835E-03  0.76166588207E-02  0.11102177824E-01  0.10304568134E+01  0.10303687289E+01 0.  0.
     999903    2    3    3    0    0  0.54240887277E-01 -0.12599194991E-01  0.12199002229E+00  0.14158005313E+00  0.45415111348E-01 0.  0.
         14    1    1    2    0    0  0.50488982835E-03 -0.76166588207E-02 -0.11102177824E-01  0.13473186623E-01  0.00000000000E+00 0. -1.
     999901    1    3    3    0    0 -0.54745777105E-01  0.20215853812E-01 -0.11088784447E+00  0.88887676025E+00  0.88000000000E+00 0. -1.
        -11    1    4    4    0    0  0.16275975480E-01  0.11580374439E-01  0.70071386037E-01  0.72864756310E-01  0.51100000000E-03 0. -1.
         11    1    4    4    0    0  0.37964911798E-01 -0.24179569430E-01  0.51918636254E-01  0.68715296820E-01  0.51100000000E-03 0.  1.
</event>
<event>
 8    1  0.2123879E+004  0.1043930E+01  0.7957747E-01            NaN
         13   -1    0    0    0    0  0.00000000000E+00  0.00000000000E+00  0.74505805969E-08  0.10566000000E+00  0.10566000000E+00 0.  1.
     999900   -1    0    0    0    0 -0.00000000000E+00 -0.00000000000E+00 -0.74505805969E-08  0.93827000000E+00  0.93827000000E+00 0. -1.
     999902    2    1    2    0    0  0.44046174909E-02  0.12972824889E-01 -0.34720593717E-03  0.10302254244E+01  0.10301342678E+01 0.  0.
     999903    2    3    3    0    0 -0.76939386124E-01  0.14778974444E-01 -0.10699210104E+00  0.14006069651E+00  0.45073293621E-01 0.  0.
         14    1    1    2    0    0 -0.44046174909E-02 -0.12972824889E-01  0.34720593717E-03  0.13704575616E-01  0.00000000000E+00 0.  1.
     999901    1    3    3    0    0  0.81344003615E-01 -0.18061495544E-02  0.10664489511E+00  0.89016472788E+00  0.88000000000E+00 0.  1.
        -11    1    4    4    0    0  0.35671083801E-02  0.80865940472E-02 -0.58322114627E-02  0.10601560122E-01  0.51100000000E-03 0. -1.
         11    1    4    4    0    0 -0.80506494504E-01  0.66923803967E-02 -0.10115988958E+00  0.12945913639E+00  0.51100000000E-03 0.  1.
</event>
<event>
 8    1  0.2123879E+004  0.1043930E+01  0.7957747E-01            NaN
         13   -1    0    0    0    0  0.00000000000E+00  0.00000000000E+00  0.74505805969E-08  0.10566000000E+00  0.10566000000E+00 0.  1.
     999900   -1    0    0    0    0 -0.00000000000E+00 -0.00000000000E+00 -0.74505805969E-08  0.93827000000E+00  0.93827000000E+00 0. -1.
     999902    2    1    2    0    0  0.72335861720E-02  0.12193036252E-03 -0.12052456994E-01  0.10298729251E+01  0.10297769858E+01 0.  0.
     999903    2    3    3    0    0 -0.71468754799E-01 -0.10339947487E+00 -0.41879804189E-01  0.13981651649E+00  0.44671086499E-01 0.  0.
         14    1    1    2    0    0 -0.72335861720E-02 -0.12193036252E-03  0.12052456994E-01  0.14057074927E-01  0.00000000000E+00 0.  1.
     999901    1    3    3    0    0  0.78702340971E-01  0.10352140523E+00  0.29827347195E-01  0.89005640858E+00  0.88000000000E+00 0.  1.
        -11    1    4    4    0    0 -0.43706763692E-01 -0.60107965280E-01 -0.47308301238E-01  0.88099859078E-01  0.51100000000E-03 0.  1.
         11    1    4    4    0    0 -0.27761991107E-01 -0.43291509590E-01  0.54284970493E-02  0.51716657414E-01  0.51100000000E-03 0. -1.
</event>
<event>
 8    1  0.2123879E+004  0.1043930E+01  0.7957747E-01            NaN
         13   -1    0    0    0    0  0.00000000000E+00  0.00000000000E+00  0.74505805969E-08  0.10566000000E+00  0.10566000000E+00 0.  1.
     999900   -1    0    0    0    0 -0.00000000000E+00 -0.00000000000E+00 -0.74505805969E-08  0.93827000000E+00  0.93827000000E+00 0. -1.
     999902    2    1    2    0    0 -0.26550885093E-02  0.65561579930E-02  0.11292467021E-01  0.10306051167E+01  0.10305189732E+01 0.  0.
     999903    2    3    3    0    0  0.85799854527E-02 -0.11583284071E+00  0.64553963642E-01  0.14046912661E+00  0.45535680208E-01 0.  0.
         14    1    1    2    0    0  0.26550885093E-02 -0.65561579930E-02 -0.11292467021E-01  0.13324883265E-01  0.00000000000E+00 0. -1.
     999901    1    3    3    0    0 -0.11235073962E-01  0.12238899870E+00 -0.53261496622E-01  0.89013599012E+00  0.88000000000E+00 0. -1.
        -11    1    4    4    0    0 -0.15087176516E-01 -0.60315594488E-01  0.45951671400E-01  0.77313718440E-01  0.51100000000E-03 0. -1.
         11    1    4    4    0    0  0.23667161968E-01 -0.55517246221E-01  0.18602292242E-01  0.63155408171E-01  0.51100000000E-03 0.  1.
</event>
<event>
 8    1  0.2123879E+004  0.1043930E+01  0.7957747E-01            NaN
         13   -1    0    0    0    0  0.00000000000E+00  0.00000000000E+00  0.74505805969E-08  0.10566000000E+00  0.10566000000E+00 0. -1.
     999900   -1    0    0    0    0 -0.00000000000E+00 -0.00000000000E+00 -0.74505805969E-08  0.93827000000E+00  0.93827000000E+00 0. -1.
     999902    2    1    2    0    0 -0.30779594557E-02 -0.45964777080E-02 -0.12254306232E-01  0.10304849465E+01  0.10303972319E+01 0.  0.
     999903    2    3    3    0    0 -0.49714002071E-01  0.86100456675E-02  0.12158859361E+00  0.13904607898E+00  0.44770649940E-01 0.  0.
         14    1    1    2    0    0  0.30779594557E-02  0.45964777080E-02  0.12254306232E-01  0.13445053476E-01  0.00000000000E+00 0. -1.
     999901    1    3    3    0    0  0.46636042615E-01 -0.13206523375E-01 -0.13384289984E+00  0.89143886754E+00  0.88000000000E+00 0. -1.
        -11    1    4    4    0    0 -0.52893943063E-02  0.66949126775E-02  0.71731057681E-01  0.72238530611E-01  0.51100000000E-03 0.  1.
         11    1    4    4    0    0 -0.44424607764E-01  0.19151329901E-02  0.49857535927E-01  0.66807548369E-01  0.51100000000E-03 0. -1.
</event>
<event>
 8    1  0.2123879E+004  0.1043930E+01  0.7957747E-01            NaN
         13   -1    0    0    0    0  0.00000000000E+00  0.00000000000E+00  0.74505805969E-08  0.10566000000E+00  0.10566000000E+00 0.  1.
     999900   -1    0    0    0    0 -0.00000000000E+00 -0.00000000000E+00 -0.74505805969E-08  0.93827000000E+00  0.93827000000E+00 0.  1.
     999902    2    1    2    0    0 -0.68618809496E-02 -0.56589160422E-02 -0.13637165938E-01  0.10276486906E+01  0.10275197080E+01 0.  0.
     999903    2    3    3    0    0 -0.95735050855E-01 -0.72987250575E-01  0.51463135465E-01  0.13822775864E+00  0.44340954423E-01 0.  0.
         14    1    1    2    0    0  0.68618809496E-02  0.56589160422E-02  0.13637165938E-01  0.16281309399E-01  0.00000000000E+00 0. -1.
     999901    1    3    3    0    0  0.88873169906E-01  0.67328334533E-01 -0.65100301403E-01  0.88942093196E+00  0.88000000000E+00 0.  1.
        -11    1    4    4    0    0 -0.71656317092E-01 -0.73099838542E-01  0.50451777009E-01  0.11412211485E+00  0.51100000000E-03 0. -1.
         11    1    4    4    0    0 -0.24078733763E-01  0.11258796692E-03  0.10113584561E-02  0.24105643792E-01  0.51100000000E-03 0.  1.
</event>
<event>
 8    1  0.2123879E+004  0.1043930E+01  0.7957747E-01            NaN
         13   -1    0    0    0    0  0.00000000000E+00  0.00000000000E+00  0.74505805969E-08  0.10566000000E+00  0.10566000000E+00 0. -1.
     999900   -1    0    0    0    0 -0.00000000000E+00 -0.00000000000E+00 -0.74505805969E-08  0.93827000000E+00  0.93827000000E+00 0.  1.
     999902    2    1    2    0    0  0.11943133197E-01  0.64340010805E-02  0.30818673357E-02  0.10300183967E+01  0.10299244462E+01 0.  0.
     999903    2    3    3    0    0 -0.97468119689E-01 -0.59718073854E-01  0.64325188797E-01  0.13867241240E+00  0.45011391306E-01 0.  0.
         14    1    1    2    0    0 -0.11943133197E-01 -0.64340010805E-02 -0.30818673357E-02  0.13911603313E-01  0.00000000000E+00 0. -1.
     999901    1    3    3    0    0  0.10941125289E+00  0.66152074934E-01 -0.61243321462E-01  0.89134598428E+00  0.88000000000E+00 0.  1.
        -11    1    4    4    0    0 -0.25117104571E-01  0.51505191464E-02  0.14717454040E-01  0.29567911051E-01  0.51100000000E-03 0.  1.
         11    1    4    4    0    0 -0.72351015118E-01 -0.64868593000E-01  0.49607734757E-01  0.10910450135E+00  0.51100000000E-03 0. -1.
</event>
<event>
 8    1  0.2123879E+004  0.1043930E+01  0.7957747E-01            NaN
         13   -1    0    0    0    0  0.00000000000E+00  0.00000000000E+00  0.74505805969E-08  0.10566000000E+00  0.10566000000E+00 0.  1.
     999900   -1    0    0    0    0 -0.00000000000E+00 -0.00000000000E+00 -0.74505805969E-08  0.93827000000E+00  0.93827000000E+00 0.  1.
     999902    2    1    2    0    0 -0.95930957554E-03 -0.38000111023E-02  0.12782775562E-01  0.10305598949E+01  0.10304731618E+01 0.  0.
     999903    2    3    3    0    0  0.16873512068E-01  0.12927119883E+00 -0.22631546320E-01  0.13967262334E+00  0.44726910957E-01 0.  0.
         14    1    1    2    0    0  0.95930957554E-03  0.38000111023E-02 -0.12782775562E-01  0.13370105097E-01  0.00000000000E+00 0.  1.
     999901    1    3    3    0    0 -0.17832821643E-01 -0.13307120994E+00  0.35414321882E-01  0.89088727156E+00  0.88000000000E+00 0. -1.
        -11    1    4    4    0    0 -0.31074917174E-02  0.38412109122E-01  0.12059153832E-01  0.40383547939E-01  0.51100000000E-03 0. -1.
         11    1    4    4    0    0  0.19981003785E-01  0.90859089712E-01 -0.34690700152E-01  0.99289075399E-01  0.51100000000E-03 0.  1.
</event>
<event>
 8    1  0.2123879E+004  0.1043930E+01  0.7957747E-01            NaN
         13   -1    0    0    0    0  0.00000000000E+00  0.00000000000E+00  0.74505805969E-08  0.10566000000E+00  0.10566000000E+00 0. -1.
     999900   -1    0    0    0    0 -0.00000000000E+00 -0.00000000000E+00 -0.74505805969E-08  0.93827000000E+00  0.93827000000E+00 0.  1.
     999902    2    1    2    0    0 -0.47847123987E-02 -0.12419828595E-01  0.16750326876E-02  0.10305154054E+01  0.10304280903E+01 0.  0.
     999903    2    3    3    0    0 -0.12075322050E+00 -0.23972098480E-01 -0.52056976212E-01  0.14120709065E+00  0.45535831086E-01 0.  0.
         14    1    1    2    0    0  0.47847123987E-02  0.12419828595E-01 -0.16750326876E-02  0.13414594648E-01  0.00000000000E+00 0. -1.
     999901    1    3    3    0    0  0.11596850810E+00  0.11552269885E-01  0.53732008900E-01  0.88930831470E+00  0.88000000000E+00 0.  1.
        -11    1    4    4    0    0 -0.73525480023E-01 -0.17713319755E-01 -0.54935397310E-01  0.93476825513E-01  0.51100000000E-03 0.  1.
         11    1    4    4    0    0 -0.47227740475E-01 -0.62587787247E-02  0.28784210981E-02  0.47730265141E-01  0.51100000000E-03 0. -1.
</event>
<event>
 8    1  0.2123879E+004  0.1043930E+01  0.7957747E-01            NaN
         13   -1    0    0    0    0  0.00000000000E+00  0.00000000000E+00  0.74505805969E-08  0.10566000000E+00  0.10566000000E+00 0.  1.
     999900   -1    0    0    0    0 -0.00000000000E+00 -0.00000000000E+00 -0.74505805969E-08  0.93827000000E+00  0.93827000000E+00 0. -1.
     999902    2    1    2    0    0 -0.13171941109E-01  0.69507656484E-02  0.19184145352E-02  0.10289135593E+01  0.10288039751E+01 0.  0.
     999903    2    3    3    0    0 -0.12991615110E-02  0.11063928526E+00 -0.72323884807E-01  0.13964183990E+00  0.45015107161E-01 0.  0.
         14    1    1    2    0    0  0.13171941109E-01 -0.69507656484E-02 -0.19184145352E-02  0.15016440657E-01  0.00000000000E+00 0. -1.
     999901    1    3    3    0    0 -0.11872779598E-01 -0.10368851961E+00  0.74242299343E-01  0.88927171945E+00  0.88000000000E+00 0.  1.
        -11    1    4    4    0    0  0.12993559709E-01  0.71653354831E-01 -0.64716265511E-01  0.97424288528E-01  0.51100000000E-03 0.  1.
         11    1    4    4    0    0 -0.14292721220E-01  0.38985930428E-01 -0.76076192962E-02  0.42217551369E-01  0.51100000000E-03 0. -1.
</event>
<event>
 8    1  0.2123879E+004  0.1043930E+01  0.7957747E-01            NaN
         13   -1    0    0    0    0  0.00000000000E+00  0.00000000000E+00  0.74505805969E-08  0.10566000000E+00  0.10566000000E+00 0.  1.
     999900   -1    0    0    0    0 -0.00000000000E+00 -0.00000000000E+00 -0.74505805969E-08  0.93827000000E+00  0.93827000000E+00 0.  1.
     999902    2    1    2    0    0  0.14397427168E-01  0.42828381071E-02  0.49200356193E-02  0.10281238189E+01  0.10280023111E+01 0.  0.
     999903    2    3    3    0    0  0.11475683451E+00 -0.66080164370E-01  0.35993162119E-02  0.13962806365E+00  0.44128470303E-01 0.  0.
         14    1    1    2    0    0 -0.14397427168E-01 -0.42828381071E-02 -0.49200356193E-02  0.15806181126E-01  0.00000000000E+00 0. -1.
     999901    1    3    3    0    0 -0.10035940734E+00  0.70363002477E-01  0.13207194074E-02  0.88849575523E+00  0.88000000000E+00 0.  1.
        -11    1    4    4    0    0  0.14291340434E-01 -0.28567834974E-01 -0.35759893906E-02  0.32146732767E-01  0.51100000000E-03 0. -1.
         11    1    4    4    0    0  0.10046549407E+00 -0.37512329396E-01  0.71753056025E-02  0.10748133088E+00  0.51100000000E-03 0.  1.
</event>
<event>
 8    1  0.2123879E+004  0.1043930E+01  0.7957747E-01            NaN
         13   -1    0    0    0    0  0.00000000000E+00  0.00000000000E+00  0.74505805969E-08  0.10566000000E+00  0.10566000000E+00 0.  1.
     999900   -1    0    0    0    0 -0.00000000000E+00 -0.00000000000E+00 -0.74505805969E-08  0.93827000000E+00  0.93827000000E+00 0.  1.
     999902    2    1    2    0    0 -0.12572365042E-01 -0.12531110391E-01 -0.13519867585E-01  0.10216167772E+01  0.10213730756E+01 0.  0.
     999903    2    3    3    0    0  0.10233227877E+00 -0.70853597201E-01 -0.84069953627E-02  0.13221769297E+00  0.43803119180E-01 0.  0.
         14    1    1    2    0    0  0.12572365042E-01  0.12531110391E-01  0.13519867585E-01  0.22313222759E-01  0.00000000000E+00 0.  1.
     999901    1    3    3    0    0 -0.11490464381E+00  0.58322486810E-01 -0.51128722224E-02  0.88939908427E+00  0.88000000000E+00 0.  1.
        -11    1    4    4    0    0  0.50870911839E-01 -0.93206233894E-02 -0.41818581555E-02  0.51889042681E-01  0.51100000000E-03 0.  1.
         11    1    4    4    0    0  0.51461366927E-01 -0.61532973812E-01 -0.42251372073E-02  0.80328650291E-01  0.51100000000E-03 0. -1.
</event>
<event>
 8    1  0.2123879E+004  0.1043930E+01  0.7957747E-01            NaN
         13   -1    0    0    0    0  0.00000000000E+00  0.00000000000E+00  0.74505805969E-08  0.10566000000E+00  0.10566000000E+00 0.  1.
     999900   -1    0    0    0    0 -0.00000000000E+00 -0.00000000000E+00 -0.74505805969E-08  0.93827000000E+00  0.93827000000E+00 0. -1.
     999902    2    1    2    0    0  0.24265691907E-02  0.13041556614E-01 -0.34773152057E-02  0.10302164243E+01  0.10301251471E+01 0.  0.
     999903    2    3    3    0    0  0.11319202857E+00  0.11430285174E-01 -0.69888743869E-01  0.14078848399E+00  0.44652815722E-01 0.  0.
         14    1    1    2    0    0 -0.24265691907E-02 -0.13041556614E-01  0.34773152057E-02  0.13713575682E-01  0.00000000000E+00 0.  1.
     999901    1    3    3    0    0 -0.11076545938E+00  0.16112714395E-02  0.66411428664E-01  0.88942794033E+00  0.88000000000E+00 0.  1.
        -11    1    4    4    0    0  0.67774416765E-01  0.26537583684E-01 -0.30990744213E-01  0.79109432203E-01  0.51100000000E-03 0. -1.
         11    1    4    4    0    0  0.45417611807E-01 -0.15107298510E-01 -0.38897999656E-01  0.61679051782E-01  0.51100000000E-03 0.  1.
</event>
<event>
 8    1  0.2123879E+004  0.1043930E+01  0.7957747E-01            NaN
         13   -1    0    0    0    0  0.00000000000E+00  0.00000000000E+00  0.74505805969E-08  0.10566000000E+00  0.10566000000E+00 0.  1.
     999900   -1    0    0    0    0 -0.00000000000E+00 -0.00000000000E+00 -0.74505805969E-08  0.93827000000E+00  0.93827000000E+00 0.  1.
     999902    2    1    2    0    0  0.49790461675E-02  0.26371402178E-02  0.15373288307E-01  0.10275567473E+01  0.10274262921E+01 0.  0.
     999903    2    3    3    0    0  0.10404591799E+00  0.70951383529E-01 -0.34398333868E-01  0.13797353296E+00  0.44651971402E-01 0.  0.
         14    1    1    2    0    0 -0.49790461675E-02 -0.26371402178E-02 -0.15373288307E-01  0.16373252659E-01  0.00000000000E+00 0. -1.
     999901    1    3    3    0    0 -0.99066871822E-01 -0.68314243311E-01  0.49771622175E-01  0.88958321438E+00  0.88000000000E+00 0. -1.
        -11    1    4    4    0    0  0.39325840466E-01  0.51432227940E-01 -0.73508600804E-02  0.65162044660E-01  0.51100000000E-03 0.  1.
         11    1    4    4    0    0  0.64720077523E-01  0.19519155588E-01 -0.27047473788E-01  0.72811488302E-01  0.51100000000E-03 0. -1.
</event>
<event>
 8    1  0.2123879E+004  0.1043930E+01  0.7957747E-01            NaN
         13   -1    0    0    0    0  0.00000000000E+00  0.00000000000E+00  0.74505805969E-08  0.10566000000E+00  0.10566000000E+00 0. -1.
     999900   -1    0    0    0    0 -0.00000000000E+00 -0.00000000000E+00 -0.74505805969E-08  0.93827000000E+00  0.93827000000E+00 0.  1.
     999902    2    1    2    0    0  0.80471593121E-02 -0.87156917832E-02 -0.71589759271E-02  0.10300746403E+01  0.10299814530E+01 0.  0.
     999903    2    3    3    0    0  0.18219603127E-01 -0.48952995836E-01 -0.12340699838E+00  0.14145991952E+00  0.45313042753E-01 0.  0.
         14    1    1    2    0    0 -0.80471593121E-02  0.87156917832E-02  0.71589759271E-02  0.13855359706E-01  0.00000000000E+00 0. -1.
     999901    1    3    3    0    0 -0.10172443815E-01  0.40237304053E-01  0.11624802245E+00  0.88861472077E+00  0.88000000000E+00 0. -1.
        -11    1    4    4    0    0  0.95155097847E-02  0.74214698983E-02 -0.23075122679E-01  0.26045067663E-01  0.51100000000E-03 0. -1.
         11    1    4    4    0    0  0.87040933424E-02 -0.56374465734E-01 -0.10033187570E+00  0.11541485186E+00  0.51100000000E-03 0.  1.
</event>
<event>
 8    1  0.2123879E+004  0.1043930E+01  0.7957747E-01            NaN
         13   -1    0    0    0    0  0.00000000000E+00  0.00000000000E+00  0.74505805969E-08  0.10566000000E+00  0.10566000000E+00 0.  1.
     999900   -1    0    0    0    0 -0.00000000000E+00 -0.00000000000E+00 -0.74505805969E-08  0.93827000000E+00  0.93827000000E+00 0.  1.
     999902    2    1    2    0    0  0.11369134489E-01  0.68487583190E-02 -0.16069631108E-02  0.10305604435E+01  0.10304737176E+01 0.  0.
     999903    2    3    3    0    0 -0.78701026883E-01 -0.50891114883E-01  0.90967003311E-01  0.13926000811E+00  0.48317667186E-01 0.  0.
         14    1    1    2    0    0 -0.11369134489E-01 -0.68487583190E-02  0.16069631108E-02  0.13369556462E-01  0.00000000000E+00 0. -1.
     999901    1    3    3    0    0  0.90070161372E-01  0.57739873202E-01 -0.92573966422E-01  0.89130043542E+00  0.88000000000E+00 0.  1.
        -11    1    4    4    0    0 -0.76338524695E-01 -0.33769330212E-01  0.88729725113E-01  0.12182431307E+00  0.51100000000E-03 0.  1.
         11    1    4    4    0    0 -0.23625021878E-02 -0.17121784672E-01  0.22372781978E-02  0.17435695044E-01  0.51100000000E-03 0. -1.
</event>
<event>
 8    1  0.2123879E+004  0.1043930E+01  0.7957747E-01            NaN
         13   -1    0    0    0    0  0.00000000000E+00  0.00000000000E+00  0.74505805969E-08  0.10566000000E+00  0.10566000000E+00 0. -1.
     999900   -1    0    0    0    0 -0.00000000000E+00 -0.00000000000E+00 -0.74505805969E-08  0.93827000000E+00  0.93827000000E+00 0. -1.
     999902    2    1    2    0    0 -0.86480485431E-02 -0.88821599841E-02  0.69665556595E-02  0.10297097888E+01  0.10296115941E+01 0.  0.
     999903    2    3    3    0    0 -0.49010429935E-01 -0.10590226687E+00  0.65427123759E-01  0.14153206951E+00  0.46187723543E-01 0.  0.
         14    1    1    2    0    0  0.86480485431E-02  0.88821599841E-02 -0.69665556595E-02  0.14220211227E-01  0.00000000000E+00 0.  1.
     999901    1    3    3    0    0  0.40362381392E-01  0.97020106885E-01 -0.58460568099E-01  0.88817771926E+00  0.88000000000E+00 0. -1.
        -11    1    4    4    0    0 -0.40818635268E-01 -0.10874847952E+00  0.64313451600E-01  0.13277376985E+00  0.51100000000E-03 0. -1.
         11    1    4    4    0    0 -0.81917946669E-02  0.28462126462E-02  0.11136721592E-02  0.87582996621E-02  0.51100000000E-03 0.  1.
</event>
<event>
 8    1  0.2123879E+004  0.1043930E+01  0.7957747E-01            NaN
         13   -1    0    0    0    0  0.00000000000E+00  0.00000000000E+00  0.74505805969E-08  0.10566000000E+00  0.10566000000E+00 0.  1.
     999900   -1    0    0    0    0 -0.00000000000E+00 -0.00000000000E+00 -0.74505805969E-08  0.93827000000E+00  0.93827000000E+00 0. -1.
     999902    2    1    2    0    0  0.75970689464E-02 -0.84368441463E-02  0.91623381463E-02  0.10293408178E+01  0.10292374240E+01 0.  0.
     999903    2    3    3    0    0 -0.10886331395E+00 -0.33943245123E-01  0.67219562233E-01  0.13940585474E+00  0.43728226324E-01 0.  0.
         14    1    1    2    0    0 -0.75970689464E-02  0.84368441463E-02 -0.91623381463E-02  0.14589182158E-01  0.00000000000E+00 0. -1.
     999901    1    3    3    0    0  0.11646038289E+00  0.25506400977E-01 -0.58057224086E-01  0.88993496310E+00  0.88000000000E+00 0.  1.
        -11    1    4    4    0    0 -0.97871242375E-01 -0.14986106985E-01  0.47069425318E-01  0.10963190871E+00  0.51100000000E-03 0. -1.
         11    1    4    4    0    0 -0.10992071572E-01 -0.18957138138E-01  0.20150136914E-01  0.29773946035E-01  0.51100000000E-03 0.  1.
</event>
<event>
 8    1  0.2123879E+004  0.1043930E+01  0.7957747E-01            NaN
         13   -1    0    0    0    0  0.00000000000E+00  0.00000000000E+00  0.74505805969E-08  0.10566000000E+00  0.10566000000E+00 0. -1.
     999900   -1    0    0    0    0 -0.00000000000E+00 -0.00000000000E+00 -0.74505805969E-08  0.93827000000E+00  0.93827000000E+00 0. -1.
     999902    2    1    2    0    0 -0.35070797263E-02 -0.12640331702E-01  0.32213556625E-03  0.10308082103E+01  0.10307246893E+01 0.  0.
     999903    2    3    3    0    0  0.20270070957E-01  0.92705206595E-01 -0.91695689439E-01  0.13944391022E+00  0.45070761352E-01 0.  0.
         14    1    1    2    0    0  0.35070797263E-02  0.12640331702E-01 -0.32213556625E-03  0.13121789705E-01  0.00000000000E+00 0.  1.
     999901    1    3    3    0    0 -0.23777150683E-01 -0.10534553830E+00  0.92017825005E-01  0.89136430008E+00  0.88000000000E+00 0.  1.
        -11    1    4    4    0    0  0.32555640319E-01  0.64218739334E-01 -0.50835619518E-01  0.88138740240E-01  0.51100000000E-03 0. -1.
         11    1    4    4    0    0 -0.12285569363E-01  0.28486467260E-01 -0.40860069920E-01  0.51305169978E-01  0.51100000000E-03 0.  1.
</event>
<event>
 8    1  0.2376492E+004  0.1043930E+01  0.7957747E-01            NaN
         13   -1    0    0    0    0  0.00000000000E+00  0.00000000000E+00  0.74505805969E-08  0.10566000000E+00  0.10566000000E+00 0.  1.
     999900   -1    0    0    0    0 -0.00000000000E+00 -0.00000000000E+00 -0.74505805969E-08  0.93827000000E+00  0.93827000000E+00 0.  1.
     999902    2    1    2    0    0 -0.12482055948E-01  0.31953591620E-02 -0.84682093101E-02  0.10285117443E+01  0.10283961715E+01 0.  0.
     999903    2    3    3    0    0  0.12661977195E+00  0.97027020379E-02  0.25488969956E-01  0.13691500019E+00  0.44377027972E-01 0.  0.
         14    1    1    2    0    0  0.12482055948E-01 -0.31953591620E-02  0.84682093101E-02  0.15418255731E-01  0.00000000000E+00 0. -1.
     999901    1    3    3    0    0 -0.13910182790E+00 -0.65073428759E-02 -0.33957179266E-01  0.89159674408E+00  0.88000000000E+00 0. -1.
        -11    1    4    4    0    0  0.36622307564E-01 -0.17035404262E-01  0.39284300319E-02  0.40584382380E-01  0.51100000000E-03 0.  1.
         11    1    4    4    0    0  0.89997464384E-01  0.26738106300E-01  0.21560539924E-01  0.96330617806E-01  0.51100000000E-03 0. -1.
</event>
<event>
 8    1  0.2123879E+004  0.1043930E+01  0.7957747E-01            NaN
         13   -1    0    0    0    0  0.00000000000E+00  0.00000000000E+00  0.74505805969E-08  0.10566000000E+00  0.10566000000E+00 0. -1.
     999900   -1    0    0    0    0 -0.00000000000E+00 -0.00000000000E+00 -0.74505805969E-08  0.93827000000E+00  0.93827000000E+00 0.  1.
     999902    2    1    2    0    0 -0.43477241080E-02  0.65517210619E-02 -0.12808038130E-01  0.10289009084E+01  0.10287911380E+01 0.  0.
     999903    2    3    3    0    0 -0.76099609460E-01  0.78875737317E-01 -0.70350746195E-01  0.14115642960E+00  0.54436914219E-01 0.  0.
         14    1    1    2    0    0  0.43477241080E-02 -0.65517210619E-02  0.12808038130E-01  0.15029091607E-01  0.00000000000E+00 0. -1.
     999901    1    3    3    0    0  0.71751885352E-01 -0.72324016255E-01  0.57542708065E-01  0.88774447879E+00  0.88000000000E+00 0. -1.
        -11    1    4    4    0    0 -0.37489631657E-01  0.74634356223E-01 -0.48763998724E-01  0.96715812064E-01  0.51100000000E-03 0.  1.
         11    1    4    4    0    0 -0.38609977803E-01  0.42413810937E-02 -0.21586747471E-01  0.44440617535E-01  0.51100000000E-03 0. -1.
</event>
<event>
 8    1  0.2123879E+004  0.1043930E+01  0.7957747E-01            NaN
         13   -1    0    0    0    0  0.00000000000E+00  0.00000000000E+00  0.74505805969E-08  0.10566000000E+00  0.10566000000E+00 0.  1.
     999900   -1    0    0    0    0 -0.00000000000E+00 -0.00000000000E+00 -0.74505805969E-08  0.93827000000E+00  0.93827000000E+00 0.  1.
     999902    2    1    2    0    0 -0.10295539118E-01  0.58533869384E-02  0.69934117812E-02  0.10301761615E+01  0.10300843440E+01 0.  0.
     999903    2    3    3    0    0  0.90979040770E-01 -0.69098701566E-01 -0.64248673007E-01  0.13835230518E+00  0.44290540167E-01 0.  0.
         14    1    1    2    0    0  0.10295539118E-01 -0.58533869384E-02 -0.69934117812E-02  0.13753838473E-01  0.00000000000E+00 0. -1.
     999901    1    3    3    0    0 -0.10127457989E+00  0.74952088505E-01  0.71242084788E-01  0.89182385635E+00  0.88000000000E+00 0.  1.
        -11    1    4    4    0    0  0.20672004286E-01 -0.27283880117E-01 -0.40788206838E-01  0.53251110913E-01  0.51100000000E-03 0. -1.
         11    1    4    4    0    0  0.70307036484E-01 -0.41814821449E-01 -0.23460466169E-01  0.85101194268E-01  0.51100000000E-03 0.  1.
</event>
<event>
 8    1  0.2123879E+004  0.1043930E+01  0.7957747E-01            NaN
         13   -1    0    0    0    0  0.00000000000E+00  0.00000000000E+00  0.74505805969E-08  0.10566000000E+00  0.10566000000E+00 0. -1.
     999900   -1    0    0    0    0 -0.00000000000E+00 -0.00000000000E+00 -0.74505805969E-08  0.93827000000E+00  0.93827000000E+00 0. -1.
     999902    2    1    2    0    0  0.46275015442E-02  0.87823182236E-02 -0.10194115459E-01  0.10297010551E+01  0.10296027389E+01 0.  0.
     999903    2    3    3    0    0 -0.10023538644E+00  0.16507813218E-02  0.84269464585E-01  0.13842643294E+00  0.44840572045E-01 0.  0.
         14    1    1    2    0    0 -0.46275015442E-02 -0.87823182236E-02  0.10194115459E-01  0.14228944934E-01  0.00000000000E+00 0. -1.
     999901    1    3    3    0    0  0.10486288798E+00  0.71315369018E-02 -0.94463580045E-01  0.89127462213E+00  0.88000000000E+00 0. -1.
        -11    1    4    4    0    0 -0.53165823764E-01  0.17742436707E-01  0.25933038316E-01  0.61759067951E-01  0.51100000000E-03 0. -1.
         11    1    4    4    0    0 -0.47069562674E-01 -0.16091655386E-01  0.58336426269E-01  0.76667364988E-01  0.51100000000E-03 0.  1.
</event>
<event>
 8    1  0.2123879E+004  0.1043930E+01  0.7957747E-01            NaN
         13   -1    0    0    0    0  0.00000000000E+00  0.00000000000E+00  0.74505805969E-08  0.10566000000E+00  0.10566000000E+00 0. -1.
     999900   -1    0    0    0    0 -0.00000000000E+00 -0.00000000000E+00 -0.74505805969E-08  0.93827000000E+00  0.93827000000E+00 0. -1.
     999902    2    1    2    0    0  0.42006729440E-02  0.21632154741E-02  0.13511179487E-01  0.10296164705E+01  0.10295169738E+01 0.  0.
     999903    2    3    3    0    0 -0.45114198089E-01 -0.26729151712E-01  0.12192254227E+00  0.14112350548E+00  0.47968730064E-01 0.  0.
         14    1    1    2    0    0 -0.42006729440E-02 -0.21632154741E-02 -0.13511179487E-01  0.14313529457E-01  0.00000000000E+00 0.  1.
     999901    1    3    3    0    0  0.49314871033E-01  0.28892367186E-01 -0.10841136279E+00  0.88849296506E+00  0.88000000000E+00 0. -1.
        -11    1    4    4    0    0 -0.41983720296E-01 -0.39585683587E-01  0.95824811533E-01  0.11185845851E+00  0.51100000000E-03 0. -1.
         11    1    4    4    0    0 -0.31304777932E-02  0.12856531875E-01  0.26097730740E-01  0.29265046965E-01  0.51100000000E-03 0.  1.
</event>
<event>
 7    1  0.2123879E+004  0.1043930E+01  0.7957747E-01            NaN
         13   -1    0    0    0    0  0.00000000000E+00  0.00000000000E+00  0.74505805969E-08  0.10566000000E+00  0.10566000000E+00 0. -1.
     999900   -1    0    0    0    0 -0.00000000000E+00 -0.00000000000E+00 -0.74505805969E-08  0.93827000000E+00  0.93827000000E+00 0. -1.
     999903    2    1    2    0    0  0.34082096130E-01  0.16819952372E-02  0.73955778290E-01  0.92820933071E-01  0.44517974900E-01 0.  0.
         14    1    1    2    0    0  0.31387048577E-01  0.18705207414E-01  0.47712192619E-01  0.60095631516E-01  0.00000000000E+00 0. -1.
     999901    1    1    2    0    0 -0.65469144707E-01 -0.20387202651E-01 -0.12166797091E+00  0.89101343541E+00  0.88000000000E+00 0. -1.
        -11    1    3    3    0    0  0.25193543977E-01  0.18182135214E-01  0.23395174603E-01  0.38896015410E-01  0.51100000000E-03 0. -1.
         11    1    3    3    0    0  0.88885521534E-02 -0.16500139977E-01  0.50560603687E-01  0.53924917661E-01  0.51100000000E-03 0.  1.
</event>
<event>
 7    1  0.2123879E+004  0.1043930E+01  0.7957747E-01            NaN
         13   -1    0    0    0    0  0.00000000000E+00  0.00000000000E+00  0.74505805969E-08  0.10566000000E+00  0.10566000000E+00 0.  1.
     999900   -1    0    0    0    0 -0.00000000000E+00 -0.00000000000E+00 -0.74505805969E-08  0.93827000000E+00  0.93827000000E+00 0.  1.
     999903    2    1    2    0    0 -0.35646742628E-01  0.90199253686E-01  0.27543419154E-01  0.11044774880E+00  0.45094009038E-01 0.  0.
         14    1    1    2    0    0  0.41615601436E-02 -0.16578987019E-01 -0.46605668673E-01  0.49641411603E-01  0.00000000000E+00 0. -1.
     999901    1    1    2    0    0  0.31485182484E-01 -0.73620266667E-01  0.19062249519E-01  0.88384083960E+00  0.88000000000E+00 0. -1.
        -11    1    3    3    0    0 -0.17140238450E-01  0.82364729646E-01  0.31726313120E-01  0.89914162004E-01  0.51100000000E-03 0. -1.
         11    1    3    3    0    0 -0.18506504178E-01  0.78345240407E-02 -0.41828939664E-02  0.20533586797E-01  0.51100000000E-03 0.  1.
</event>
<event>
 8    1  0.2123879E+004  0.1043930E+01  0.7957747E-01            NaN
         13   -1    0    0    0    0  0.00000000000E+00  0.00000000000E+00  0.74505805969E-08  0.10566000000E+00  0.10566000000E+00 0. -1.
     999900   -1    0    0    0    0 -0.00000000000E+00 -0.00000000000E+00 -0.74505805969E-08  0.93827000000E+00  0.93827000000E+00 0.  1.
     999902    2    1    2    0    0  0.27223069949E-02 -0.12339344128E-01 -0.12905344384E-01  0.10258684862E+01  0.10257094777E+01 0.  0.
     999903    2    3    3    0    0 -0.67394466298E-01 -0.10569901522E+00 -0.25872762951E-01  0.13806189458E+00  0.51743511361E-01 0.  0.
         14    1    1    2    0    0 -0.27223069949E-02  0.12339344128E-01  0.12905344384E-01  0.18061513850E-01  0.00000000000E+00 0. -1.
     999901    1    3    3    0    0  0.70116773293E-01  0.93359671090E-01  0.12967418567E-01  0.88780659157E+00  0.88000000000E+00 0.  1.
        -11    1    4    4    0    0 -0.31437977972E-01 -0.12805056444E-01 -0.17242769487E-01  0.38077423102E-01  0.51100000000E-03 0.  1.
         11    1    4    4    0    0 -0.35956488326E-01 -0.92893958774E-01 -0.86299934640E-02  0.99984471483E-01  0.51100000000E-03 0. -1.
</event>
<event>
 8    1  0.2123879E+004  0.1043930E+01  0.7957747E-01            NaN
         13   -1    0    0    0    0  0.00000000000E+00  0.00000000000E+00  0.74505805969E-08  0.10566000000E+00  0.10566000000E+00 0.  1.
     999900   -1    0    0    0    0 -0.00000000000E+00 -0.00000000000E+00 -0.74505805969E-08  0.93827000000E+00  0.93827000000E+00 0.  1.
     999902    2    1    2    0    0 -0.35199091293E-02 -0.43313742503E-02  0.14089478627E-01  0.10287753317E+01  0.10286637056E+01 0.  0.
     999903    2    3    3    0    0 -0.80002611663E-01 -0.81628418134E-01 -0.64182359412E-01  0.13863437803E+00  0.45127585707E-01 0.  0.
         14    1    1    2    0    0  0.35199091293E-02  0.43313742503E-02 -0.14089478627E-01  0.15154668296E-01  0.00000000000E+00 0. -1.
     999901    1    3    3    0    0  0.76482702533E-01  0.77297043883E-01  0.78271838039E-01  0.89014095368E+00  0.88000000000E+00 0. -1.
        -11    1    4    4    0    0 -0.18100123362E-01 -0.50286339381E-01 -0.29867039229E-01  0.61226069182E-01  0.51100000000E-03 0.  1.
         11    1    4    4    0    0 -0.61902488300E-01 -0.31342078753E-01 -0.34315320183E-01  0.77408308847E-01  0.51100000000E-03 0. -1.
</event>
<event>
 8    1  0.2123879E+004  0.1043930E+01  0.7957747E-01            NaN
         13   -1    0    0    0    0  0.00000000000E+00  0.00000000000E+00  0.74505805969E-08  0.10566000000E+00  0.10566000000E+00 0. -1.
     999900   -1    0    0    0    0 -0.00000000000E+00 -0.00000000000E+00 -0.74505805969E-08  0.93827000000E+00  0.93827000000E+00 0. -1.
     999902    2    1    2    0    0  0.11942596550E-01 -0.61032921065E-02 -0.66822350111E-03  0.10305015857E+01  0.10304140895E+01 0.  0.
     999903    2    3    3    0    0  0.47940164070E-01  0.25878383548E-02  0.12442574792E+00  0.14088376763E+00  0.45403887457E-01 0.  0.
         14    1    1    2    0    0 -0.11942596550E-01  0.61032921065E-02  0.66822350111E-03  0.13428414260E-01  0.00000000000E+00 0. -1.
     999901    1    3    3    0    0 -0.35997567520E-01 -0.86911304613E-02 -0.12509397142E+00  0.88961781811E+00  0.88000000000E+00 0. -1.
        -11    1    4    4    0    0  0.24577012008E-01 -0.10280252964E-01  0.10379267922E+00  0.10715826847E+00  0.51100000000E-03 0.  1.
         11    1    4    4    0    0  0.23363152062E-01  0.12868091319E-01  0.20633068703E-01  0.33725499159E-01  0.51100000000E-03 0. -1.
</event>
<event>
 8    1  0.2123879E+004  0.1043930E+01  0.7957747E-01            NaN
         13   -1    0    0    0    0  0.00000000000E+00  0.00000000000E+00  0.74505805969E-08  0.10566000000E+00  0.10566000000E+00 0. -1.
     999900   -1    0    0    0    0 -0.00000000000E+00 -0.00000000000E+00 -0.74505805969E-08  0.93827000000E+00  0.93827000000E+00 0. -1.
     999902    2    1    2    0    0  0.22168545556E-02  0.11802285828E-01  0.57106807364E-02  0.10306326217E+01  0.10305468357E+01 0.  0.
     999903    2    3    3    0    0 -0.13032553587E+00 -0.66850956376E-02 -0.14478197421E-01  0.14028613897E+00  0.49407962737E-01 0.  0.
         14    1    1    2    0    0 -0.22168545556E-02 -0.11802285828E-01 -0.57106807364E-02  0.13297378289E-01  0.00000000000E+00 0.  1.
     999901    1    3    3    0    0  0.13254239043E+00  0.18487381465E-01  0.20188878157E-01  0.89034648274E+00  0.88000000000E+00 0. -1.
        -11    1    4    4    0    0 -0.54941895595E-01 -0.25680978447E-01  0.25419967617E-02  0.60702944032E-01  0.51100000000E-03 0. -1.
         11    1    4    4    0    0 -0.75383640277E-01  0.18995882810E-01 -0.17020194182E-01  0.79583194936E-01  0.51100000000E-03 0.  1.
</event>
<event>
 7    1  0.2123879E+004  0.1043930E+01  0.7957747E-01            NaN
         13   -1    0    0    0    0  0.00000000000E+00  0.00000000000E+00  0.74505805969E-08  0.10566000000E+00  0.10566000000E+00 0.  1.
     999900   -1    0    0    0    0 -0.00000000000E+00 -0.00000000000E+00 -0.74505805969E-08  0.93827000000E+00  0.93827000000E+00 0. -1.
     999903    2    1    2    0    0  0.17839281016E-01  0.43263707325E-01  0.10489342131E+00  0.12356040177E+00  0.45547280201E-01 0.  0.
         14    1    1    2    0    0  0.10581985866E-01  0.25711053063E-01 -0.17608298867E-01  0.32910315457E-01  0.00000000000E+00 0. -1.
     999901    1    1    2    0    0 -0.28421266881E-01 -0.68974760388E-01 -0.87285122438E-01  0.88745928277E+00  0.88000000000E+00 0.  1.
        -11    1    3    3    0    0  0.90583420294E-03  0.46317691363E-01  0.87951298265E-01  0.99407449702E-01  0.51100000000E-03 0. -1.
         11    1    3    3    0    0  0.16933446813E-01 -0.30539840383E-02  0.16942123040E-01  0.24152952068E-01  0.51100000000E-03 0.  1.
</event>
<event>
 8    1  0.2123879E+004  0.1043930E+01  0.7957747E-01            NaN
         13   -1    0    0    0    0  0.00000000000E+00  0.00000000000E+00  0.74505805969E-08  0.10566000000E+00  0.10566000000E+00 0.  1.
     999900   -1    0    0    0    0 -0.00000000000E+00 -0.00000000000E+00 -0.74505805969E-08  0.93827000000E+00  0.93827000000E+00 0. -1.
     999902    2    1    2    0    0  0.12973917445E-01  0.80631535798E-02 -0.10291609382E-02  0.10286199983E+01  0.10285060548E+01 0.  0.
     999903    2    3    3    0    0 -0.37695239708E-01  0.85350648042E-01 -0.93028426719E-01  0.13901076657E+00  0.44317500240E-01 0.  0.
         14    1    1    2    0    0 -0.12973917445E-01 -0.80631535798E-02  0.10291609382E-02  0.15310001690E-01  0.00000000000E+00 0. -1.
     999901    1    3    3    0    0  0.50669157153E-01 -0.77287494462E-01  0.91999265781E-01  0.88960923174E+00  0.88000000000E+00 0.  1.
        -11    1    4    4    0    0 -0.22678530260E-01  0.25540422038E-01 -0.60029370783E-01  0.69068193623E-01  0.51100000000E-03 0. -1.
         11    1    4    4    0    0 -0.15016709447E-01  0.59810226004E-01 -0.32999055936E-01  0.69942572950E-01  0.51100000000E-03 0.  1.
</event>
<event>
 8    1  0.2123879E+004  0.1043930E+01  0.7957747E-01            NaN
         13   -1    0    0    0    0  0.00000000000E+00  0.00000000000E+00  0.74505805969E-08  0.10566000000E+00  0.10566000000E+00 0. -1.
     999900   -1    0    0    0    0 -0.00000000000E+00 -0.00000000000E+00 -0.74505805969E-08  0.93827000000E+00  0.93827000000E+00 0.  1.
     999902    2    1    2    0    0  0.52939886611E-02 -0.71630269556E-02 -0.14312724754E-01  0.10270720831E+01  0.10269337245E+01 0.  0.
     999903    2    3    3    0    0  0.12545260058E+00 -0.83837132700E-02  0.33318997910E-01  0.13762935699E+00  0.44978246318E-01 0.  0.
         14    1    1    2    0    0 -0.52939886611E-02  0.71630269556E-02  0.14312724754E-01  0.16857916864E-01  0.00000000000E+00 0. -1.
     999901    1    3    3    0    0 -0.12015861192E+00  0.12206863144E-02 -0.47631722663E-01  0.88944272615E+00  0.88000000000E+00 0.  1.
        -11    1    4    4    0    0  0.47658775016E-01 -0.86803147063E-02 -0.86852588506E-02  0.49217898591E-01  0.51100000000E-03 0. -1.
         11    1    4    4    0    0  0.77793825568E-01  0.29660143623E-03  0.42004256760E-01  0.88411458397E-01  0.51100000000E-03 0.  1.
</event>
<event>
 7    1  0.4060811E+004  0.1043930E+01  0.7957747E-01            NaN
         13   -1    0    0    0    0  0.00000000000E+00  0.00000000000E+00  0.74505805969E-08  0.10566000000E+00  0.10566000000E+00 0. -1.
     999900   -1    0    0    0    0 -0.00000000000E+00 -0.00000000000E+00 -0.74505805969E-08  0.93827000000E+00  0.93827000000E+00 0. -1.
     999903    2    1    2    0    0  0.84679799403E-01  0.44277444631E-01  0.37998346521E-02  0.10564038992E+00  0.44880872411E-01 0.  0.
         14    1    1    2    0    0 -0.53545770561E-01  0.15294145025E-01 -0.20390332438E-02  0.55724483610E-01  0.00000000000E+00 0. -1.
     999901    1    1    2    0    0 -0.31134028841E-01 -0.59571589656E-01 -0.17608014082E-02  0.88256512647E+00  0.88000000000E+00 0. -1.
        -11    1    3    3    0    0  0.42358476234E-01  0.27677553263E-03  0.12025393967E-01  0.44036216170E-01  0.51100000000E-03 0. -1.
         11    1    3    3    0    0  0.42321323169E-01  0.44000669098E-01 -0.82255593150E-02  0.61604173746E-01  0.51100000000E-03 0.  1.
</event>
<event>
 8    1  0.2123879E+004  0.1043930E+01  0.7957747E-01            NaN
         13   -1    0    0    0    0  0.00000000000E+00  0.00000000000E+00  0.74505805969E-08  0.10566000000E+00  0.10566000000E+00 0. -1.
     999900   -1    0    0    0    0 -0.00000000000E+00 -0.00000000000E+00 -0.74505805969E-08  0.93827000000E+00  0.93827000000E+00 0.  1.
     999902    2    1    2    0    0  0.10474250303E-01  0.29177141972E-02  0.87791453730E-02  0.10299551523E+01  0.10298603397E+01 0.  0.
     999903    2    3    3    0    0  0.10390891391E+00 -0.64258088630E-01 -0.53671559046E-01  0.14026828863E+00  0.43224902572E-01 0.  0.
         14    1    1    2    0    0 -0.10474250303E-01 -0.29177141972E-02 -0.87791453730E-02  0.13974847728E-01  0.00000000000E+00 0.  1.
     999901    1    3    3    0    0 -0.93434663603E-01  0.67175802827E-01  0.62450704419E-01  0.88968686364E+00  0.88000000000E+00 0. -1.
        -11    1    4    4    0    0  0.39566133675E-01 -0.13297064399E-02 -0.16614807811E-01  0.42936697740E-01  0.51100000000E-03 0. -1.
         11    1    4    4    0    0  0.64342780231E-01 -0.62928382190E-01 -0.37056751235E-01  0.97331590894E-01  0.51100000000E-03 0.  1.
</event>
<event>
 8    1  0.2123879E+004  0.1043930E+01  0.7957747E-01            NaN
         13   -1    0    0    0    0  0.00000000000E+00  0.00000000000E+00  0.74505805969E-08  0.10566000000E+00  0.10566000000E+00 0. -1.
     999900   -1    0    0    0    0 -0.00000000000E+00 -0.00000000000E+00 -0.74505805969E-08  0.93827000000E+00  0.93827000000E+00 0.  1.
     999902    2    1    2    0    0 -0.13401371466E-01 -0.45219393870E-02  0.10130750641E-02  0.10297500489E+01  0.10296524133E+01 0.  0.
     999903    2    3    3    0    0  0.66351735869E-01 -0.10336878822E+00  0.50011998498E-01  0.13928267038E+00  0.42553531506E-01 0.  0.
         14    1    1    2    0    0  0.13401371466E-01  0.45219393870E-02 -0.10130750641E-02  0.14179951131E-01  0.00000000000E+00 0. -1.
     999901    1    3    3    0    0 -0.79753107335E-01  0.98846848833E-01 -0.48998923434E-01  0.89046737849E+00  0.88000000000E+00 0.  1.
        -11    1    4    4    0    0  0.29388886415E-01 -0.81037030984E-01  0.26920453729E-01  0.90308797940E-01  0.51100000000E-03 0.  1.
         11    1    4    4    0    0  0.36962849454E-01 -0.22331757236E-01  0.23091544769E-01  0.48973872441E-01  0.51100000000E-03 0. -1.
</event>
<event>
 8    1  0.2123879E+004  0.1043930E+01  0.7957747E-01            NaN
         13   -1    0    0    0    0  0.00000000000E+00  0.00000000000E+00  0.74505805969E-08  0.10566000000E+00  0.10566000000E+00 0.  1.
     999900   -1    0    0    0    0 -0.00000000000E+00 -0.00000000000E+00 -0.74505805969E-08  0.93827000000E+00  0.93827000000E+00 0.  1.
     999902    2    1    2    0    0  0.10608969582E-01  0.43954525992E-02 -0.22047833397E-01  0.10190708529E+01  0.10187676015E+01 0.  0.
     999903    2    3    3    0    0 -0.65451898488E-02  0.11807332551E+00  0.29360765404E-01  0.13010529222E+00  0.45619982583E-01 0.  0.
         14    1    1    2    0    0 -0.10608969582E-01 -0.43954525992E-02  0.22047833397E-01  0.24859147142E-01  0.00000000000E+00 0.  1.
     999901    1    3    3    0    0  0.17154159431E-01 -0.11367787291E+00 -0.51408598801E-01  0.88896556064E+00  0.88000000000E+00 0.  1.
        -11    1    4    4    0    0 -0.18501503488E-01  0.68690342757E-01 -0.55135649839E-03  0.71142349795E-01  0.51100000000E-03 0. -1.
         11    1    4    4    0    0  0.11956313639E-01  0.49382982752E-01  0.29912121903E-01  0.58962942422E-01  0.51100000000E-03 0.  1.
</event>
<event>
 8    1  0.2123879E+004  0.1043930E+01  0.7957747E-01            NaN
         13   -1    0    0    0    0  0.00000000000E+00  0.00000000000E+00  0.74505805969E-08  0.10566000000E+00  0.10566000000E+00 0. -1.
     999900   -1    0    0    0    0 -0.00000000000E+00 -0.00000000000E+00 -0.74505805969E-08  0.93827000000E+00  0.93827000000E+00 0. -1.
     999902    2    1    2    0    0  0.13148637702E-01  0.27573813537E-02  0.42567337845E-02  0.10298371079E+01  0.10297406757E+01 0.  0.
     999903    2    3    3    0    0  0.69423091592E-01 -0.92209737533E-01 -0.64501409015E-01  0.14027921207E+00  0.46857488527E-01 0.  0.
         14    1    1    2    0    0 -0.13148637702E-01 -0.27573813537E-02 -0.42567337845E-02  0.14092892104E-01  0.00000000000E+00 0.  1.
     999901    1    3    3    0    0 -0.56274453890E-01  0.94967118887E-01  0.68758142799E-01  0.88955789583E+00  0.88000000000E+00 0.  1.
        -11    1    4    4    0    0  0.62680978097E-01 -0.67634501354E-01 -0.29179869134E-01  0.96721541925E-01  0.51100000000E-03 0. -1.
         11    1    4    4    0    0  0.67421134949E-02 -0.24575236179E-01 -0.35321539881E-01  0.43557670142E-01  0.51100000000E-03 0.  1.
</event>
<event>
 8    1  0.2123879E+004  0.1043930E+01  0.7957747E-01            NaN
         13   -1    0    0    0    0  0.00000000000E+00  0.00000000000E+00  0.74505805969E-08  0.10566000000E+00  0.10566000000E+00 0. -1.
     999900   -1    0    0    0    0 -0.00000000000E+00 -0.00000000000E+00 -0.74505805969E-08  0.93827000000E+00  0.93827000000E+00 0. -1.
     999902    2    1    2    0    0 -0.23133189612E-02 -0.15836724408E-02 -0.11965132157E-01  0.10316408238E+01  0.10315676253E+01 0.  0.
     999903    2    3    3    0    0  0.58029128658E-02  0.11665252930E+00 -0.66020152846E-01  0.14205236963E+00  0.46676854488E-01 0.  0.
         14    1    1    2    0    0  0.23133189612E-02  0.15836724408E-02  0.11965132157E-01  0.12289176154E-01  0.00000000000E+00 0. -1.
     999901    1    3    3    0    0 -0.81162318270E-02 -0.11823620174E+00  0.54055020690E-01  0.88958845422E+00  0.88000000000E+00 0.  1.
        -11    1    4    4    0    0  0.23017931750E-01  0.33958043426E-01 -0.26097765050E-01  0.48624359708E-01  0.51100000000E-03 0. -1.
         11    1    4    4    0    0 -0.17215018884E-01  0.82694485872E-01 -0.39922387797E-01  0.93428009918E-01  0.51100000000E-03 0.  1.
</event>
<event>
 8    1  0.2123879E+004  0.1043930E+01  0.7957747E-01            NaN
         13   -1    0    0    0    0  0.00000000000E+00  0.00000000000E+00  0.74505805969E-08  0.10566000000E+00  0.10566000000E+00 0.  1.
     999900   -1    0    0    0    0 -0.00000000000E+00 -0.00000000000E+00 -0.74505805969E-08  0.93827000000E+00  0.93827000000E+00 0. -1.
     999902    2    1    2    0    0 -0.12367149723E-01  0.31712255959E-02 -0.56253906839E-02  0.10299783662E+01  0.10298838706E+01 0.  0.
     999903    2    3    3    0    0  0.11759194812E+00 -0.24755991224E-01  0.50804616018E-01  0.13820841710E+00  0.45604080787E-01 0.  0.
         14    1    1    2    0    0  0.12367149723E-01 -0.31712255959E-02  0.56253906839E-02  0.13951633753E-01  0.00000000000E+00 0. -1.
     999901    1    3    3    0    0 -0.12995909784E+00  0.27927216820E-01 -0.56430006702E-01  0.89176994915E+00  0.88000000000E+00 0.  1.
        -11    1    4    4    0    0  0.10634093046E+00 -0.11474917055E-01  0.30018407476E-01  0.11109200295E+00  0.51100000000E-03 0. -1.
         11    1    4    4    0    0  0.11251017660E-01 -0.13281074169E-01  0.20786208542E-01  0.27116414144E-01  0.51100000000E-03 0.  1.
</event>
<event>
 8    1  0.2123879E+004  0.1043930E+01  0.7957747E-01            NaN
         13   -1    0    0    0    0  0.00000000000E+00  0.00000000000E+00  0.74505805969E-08  0.10566000000E+00  0.10566000000E+00 0.  1.
     999900   -1    0    0    0    0 -0.00000000000E+00 -0.00000000000E+00 -0.74505805969E-08  0.93827000000E+00  0.93827000000E+00 0.  1.
     999902    2    1    2    0    0 -0.97809741664E-02  0.87201131935E-02 -0.18718114578E-02  0.10306932516E+01  0.10306082512E+01 0.  0.
     999903    2    3    3    0    0  0.12032401630E+00  0.25385078432E-01  0.48182618036E-01  0.13956448677E+00  0.45104436399E-01 0.  0.
         14    1    1    2    0    0  0.97809741664E-02 -0.87201131935E-02  0.18718114578E-02  0.13236748388E-01  0.00000000000E+00 0.  1.
     999901    1    3    3    0    0 -0.13010499046E+00 -0.16664965239E-01 -0.50054429494E-01  0.89112876484E+00  0.88000000000E+00 0. -1.
        -11    1    4    4    0    0  0.21933032475E-01  0.12564901783E-01 -0.67249922618E-02  0.26161447060E-01  0.51100000000E-03 0. -1.
         11    1    4    4    0    0  0.98390983822E-01  0.12820176650E-01  0.54907610298E-01  0.11340303971E+00  0.51100000000E-03 0.  1.
</event>
<event>
 8    1  0.2123879E+004  0.1043930E+01  0.7957747E-01            NaN
         13   -1    0    0    0    0  0.00000000000E+00  0.00000000000E+00  0.74505805969E-08  0.10566000000E+00  0.10566000000E+00 0.  1.
     999900   -1    0    0    0    0 -0.00000000000E+00 -0.00000000000E+00 -0.74505805969E-08  0.93827000000E+00  0.93827000000E+00 0.  1.
     999902    2    1    2    0    0  0.66346658616E-03  0.87858484753E-02 -0.10073259955E-01  0.10305471047E+01  0.10304602045E+01 0.  0.
     999903    2    3    3    0    0  0.10453577993E+00  0.61183138397E-01  0.55315915684E-01  0.14048492832E+00  0.44777883467E-01 0.  0.
         14    1    1    2    0    0 -0.66346658616E-03 -0.87858484753E-02  0.10073259955E-01  0.13382895332E-01  0.00000000000E+00 0.  1.
     999901    1    3    3    0    0 -0.10387231334E+00 -0.52397289922E-01 -0.65389175640E-01  0.89006217635E+00  0.88000000000E+00 0.  1.
        -11    1    4    4    0    0  0.75955509975E-01  0.20979749660E-01  0.25404060385E-01  0.82795028814E-01  0.51100000000E-03 0. -1.
         11    1    4    4    0    0  0.28580269956E-01  0.40203388738E-01  0.29911855300E-01  0.57689899508E-01  0.51100000000E-03 0.  1.
</event>
<event>
 8    1  0.2123879E+004  0.1043930E+01  0.7957747E-01            NaN
         13   -1    0    0    0    0  0.00000000000E+00  0.00000000000E+00  0.74505805969E-08  0.10566000000E+00  0.10566000000E+00 0.  1.
     999900   -1    0    0    0    0 -0.00000000000E+00 -0.00000000000E+00 -0.74505805969E-08  0.93827000000E+00  0.93827000000E+00 0.  1.
     999902    2    1    2    0    0 -0.12316385340E-01  0.37119310266E-02  0.59564859823E-02  0.10297542635E+01  0.10296566863E+01 0.  0.
     999903    2    3    3    0    0 -0.77394516082E-01 -0.60413072730E-02  0.10908631185E+00  0.14129151823E+00  0.45133814146E-01 0.  0.
         14    1    1    2    0    0  0.12316385340E-01 -0.37119310266E-02 -0.59564859823E-02  0.14175736491E-01  0.00000000000E+00 0.  1.
     999901    1    3    3    0    0  0.65078130742E-01  0.97532382996E-02 -0.10312982587E+00  0.88846274527E+00  0.88000000000E+00 0.  1.
        -11    1    4    4    0    0 -0.18788312904E-01  0.17901278574E-01  0.38960480350E-01  0.46814918845E-01  0.51100000000E-03 0. -1.
         11    1    4    4    0    0 -0.58606203178E-01 -0.23942585847E-01  0.70125831497E-01  0.94476599389E-01  0.51100000000E-03 0.  1.
</event>
<event>
 8    1  0.2123879E+004  0.1043930E+01  0.7957747E-01            NaN
         13   -1    0    0    0    0  0.00000000000E+00  0.00000000000E+00  0.74505805969E-08  0.10566000000E+00  0.10566000000E+00 0.  1.
     999900   -1    0    0    0    0 -0.00000000000E+00 -0.00000000000E+00 -0.74505805969E-08  0.93827000000E+00  0.93827000000E+00 0.  1.
     999902    2    1    2    0    0 -0.32384687627E-02 -0.75152803206E-02 -0.10676333036E-01  0.10304781895E+01  0.10303903861E+01 0.  0.
     999903    2    3    3    0    0 -0.23670433461E-01 -0.16306733466E-01  0.12877555497E+00  0.13921976240E+00  0.44416209968E-01 0.  0.
         14    1    1    2    0    0  0.32384687627E-02  0.75152803206E-02  0.10676333036E-01  0.13451810485E-01  0.00000000000E+00 0.  1.
     999901    1    3    3    0    0  0.20431964699E-01  0.87914531449E-02 -0.13945188801E+00  0.89125842711E+00  0.88000000000E+00 0.  1.
        -11    1    4    4    0    0 -0.33379108308E-02 -0.28822189353E-01  0.69679666218E-01  0.75480972788E-01  0.51100000000E-03 0. -1.
         11    1    4    4    0    0 -0.20332522630E-01  0.12515455887E-01  0.59095888756E-01  0.63738789614E-01  0.51100000000E-03 0.  1.
</event>
<event>
 8    1  0.2123879E+004  0.1043930E+01  0.7957747E-01            NaN
         13   -1    0    0    0    0  0.00000000000E+00  0.00000000000E+00  0.74505805969E-08  0.10566000000E+00  0.10566000000E+00 0.  1.
     999900   -1    0    0    0    0 -0.00000000000E+00 -0.00000000000E+00 -0.74505805969E-08  0.93827000000E+00  0.93827000000E+00 0. -1.
     999902    2    1    2    0    0 -0.10553412964E-01 -0.96747616062E-02  0.13704885224E-02  0.10295475880E+01  0.10294471245E+01 0.  0.
     999903    2    3    3    0    0 -0.12069352538E+00  0.50430991001E-01  0.20290165006E-01  0.14044607519E+00  0.46938228746E-01 0.  0.
         14    1    1    2    0    0  0.10553412964E-01  0.96747616062E-02 -0.13704885224E-02  0.14382412041E-01  0.00000000000E+00 0. -1.
     999901    1    3    3    0    0  0.11014011241E+00 -0.60105752607E-01 -0.18919676483E-01  0.88910151277E+00  0.88000000000E+00 0.  1.
        -11    1    4    4    0    0 -0.51344043097E-01  0.45751681069E-01  0.17085118949E-01  0.70863174447E-01  0.51100000000E-03 0.  1.
         11    1    4    4    0    0 -0.69349482279E-01  0.46793099312E-02  0.32050460567E-02  0.69582900738E-01  0.51100000000E-03 0. -1.
</event>
<event>
 8    1  0.2123879E+004  0.1043930E+01  0.7957747E-01            NaN
         13   -1    0    0    0    0  0.00000000000E+00  0.00000000000E+00  0.74505805969E-08  0.10566000000E+00  0.10566000000E+00 0.  1.
     999900   -1    0    0    0    0 -0.00000000000E+00 -0.00000000000E+00 -0.74505805969E-08  0.93827000000E+00  0.93827000000E+00 0.  1.
     999902    2    1    2    0    0 -0.81097437527E-02  0.11023647292E-01  0.28961594710E-02  0.10299415589E+01  0.10298465606E+01 0.  0.
     999903    2    3    3    0    0  0.40769600854E-01  0.13938657441E-01 -0.12473420500E+00  0.13938712628E+00  0.44874297220E-01 0.  0.
         14    1    1    2    0    0  0.81097437527E-02 -0.11023647292E-01 -0.28961594710E-02  0.13988441051E-01  0.00000000000E+00 0. -1.
     999901    1    3    3    0    0 -0.48879344607E-01 -0.29150101497E-02  0.12763036447E+00  0.89055443267E+00  0.88000000000E+00 0. -1.
        -11    1    4    4    0    0  0.33138592477E-01 -0.96960767350E-02 -0.51084931273E-01  0.61661264498E-01  0.51100000000E-03 0.  1.
         11    1    4    4    0    0  0.76310083775E-02  0.23634734176E-01 -0.73649273725E-01  0.77725861781E-01  0.51100000000E-03 0. -1.
</event>
<event>
 8    1  0.2123879E+004  0.1043930E+01  0.7957747E-01            NaN
         13   -1    0    0    0    0  0.00000000000E+00  0.00000000000E+00  0.74505805969E-08  0.10566000000E+00  0.10566000000E+00 0.  1.
     999900   -1    0    0    0    0 -0.00000000000E+00 -0.00000000000E+00 -0.74505805969E-08  0.93827000000E+00  0.93827000000E+00 0. -1.
     999902    2    1    2    0    0  0.96976770808E-03  0.14576838784E-01  0.74388861184E-02  0.10275360467E+01  0.10274052587E+01 0.  0.
     999903    2    3    3    0    0 -0.12297231932E+00 -0.91885673854E-02 -0.40300539707E-01  0.13725210983E+00  0.44803873290E-01 0.  0.
         14    1    1    2    0    0 -0.96976770808E-03 -0.14576838784E-01 -0.74388861184E-02  0.16393953307E-01  0.00000000000E+00 0. -1.
     999901    1    3    3    0    0  0.12394208703E+00  0.23765406169E-01  0.47739425826E-01  0.89028393687E+00  0.88000000000E+00 0. -1.
        -11    1    4    4    0    0 -0.10970188378E+00  0.46173730121E-02 -0.24693158686E-01  0.11254259925E+00  0.51100000000E-03 0.  1.
         11    1    4    4    0    0 -0.13270435536E-01 -0.13805940398E-01 -0.15607381022E-01  0.24709510577E-01  0.51100000000E-03 0. -1.
</event>
<event>
 8    1  0.2123879E+004  0.1043930E+01  0.7957747E-01            NaN
         13   -1    0    0    0    0  0.00000000000E+00  0.00000000000E+00  0.74505805969E-08  0.10566000000E+00  0.10566000000E+00 0. -1.
     999900   -1    0    0    0    0 -0.00000000000E+00 -0.00000000000E+00 -0.74505805969E-08  0.93827000000E+00  0.93827000000E+00 0.  1.
     999902    2    1    2    0    0 -0.65315510549E-02  0.42089275961E-02 -0.11840389883E-01  0.10297676886E+01  0.10296702975E+01 0.  0.
     999903    2    3    3    0    0 -0.55476941249E-01 -0.71378447798E-01  0.96148497350E-01  0.13860513202E+00  0.42358886427E-01 0.  0.
         14    1    1    2    0    0  0.65315510549E-02 -0.42089275961E-02  0.11840389883E-01  0.14162311368E-01  0.00000000000E+00 0.  1.
     999901    1    3    3    0    0  0.48945390194E-01  0.75587375395E-01 -0.10798888723E+00  0.89116255661E+00  0.88000000000E+00 0.  1.
        -11    1    4    4    0    0 -0.26417150485E-01 -0.59279289755E-01  0.46589259041E-01  0.79891928332E-01  0.51100000000E-03 0.  1.
         11    1    4    4    0    0 -0.29059790764E-01 -0.12099158044E-01  0.49559238309E-01  0.58713203689E-01  0.51100000000E-03 0. -1.
</event>
<event>
 8    1  0.2123879E+004  0.1043930E+01  0.7957747E-01            NaN
         13   -1    0    0    0    0  0.00000000000E+00  0.00000000000E+00  0.74505805969E-08  0.10566000000E+00  0.10566000000E+00 0.  1.
     999900   -1    0    0    0    0 -0.00000000000E+00 -0.00000000000E+00 -0.74505805969E-08  0.93827000000E+00  0.93827000000E+00 0.  1.
     999902    2    1    2    0    0  0.22643948271E-02  0.11017303010E-01 -0.79030293799E-02  0.10301834978E+01  0.10300917788E+01 0.  0.
     999903    2    3    3    0    0 -0.13930522615E-01  0.87018732772E-01 -0.10147319216E+00  0.14181765646E+00  0.45267202755E-01 0.  0.
         14    1    1    2    0    0 -0.22643948271E-02 -0.11017303010E-01  0.79030293799E-02  0.13746502207E-01  0.00000000000E+00 0.  1.
     999901    1    3    3    0    0  0.16194917443E-01 -0.76001429761E-01  0.93570162776E-01  0.88836584133E+00  0.88000000000E+00 0. -1.
        -11    1    4    4    0    0 -0.23112165823E-01  0.48292814810E-01 -0.80899370663E-01  0.97012048045E-01  0.51100000000E-03 0.  1.
         11    1    4    4    0    0  0.91816432079E-02  0.38725917962E-01 -0.20573821493E-01  0.44805608419E-01  0.51100000000E-03 0. -1.
</event>
<event>
 8    1  0.2123879E+004  0.1043930E+01  0.7957747E-01            NaN
         13   -1    0    0    0    0  0.00000000000E+00  0.00000000000E+00  0.74505805969E-08  0.10566000000E+00  0.10566000000E+00 0.  1.
     999900   -1    0    0    0    0 -0.00000000000E+00 -0.00000000000E+00 -0.74505805969E-08  0.93827000000E+00  0.93827000000E+00 0. -1.
     999902    2    1    2    0    0  0.12063885223E-01 -0.62918526496E-02 -0.13195522885E-01  0.10249761993E+01  0.10248009380E+01 0.  0.
     999903    2    3    3    0    0 -0.18046527893E-01  0.98850047267E-01 -0.79064131015E-01  0.13576299111E+00  0.45644757953E-01 0.  0.
         14    1    1    2    0    0 -0.12063885223E-01  0.62918526496E-02  0.13195522885E-01  0.18953800691E-01  0.00000000000E+00 0.  1.
     999901    1    3    3    0    0  0.30110413117E-01 -0.10514189992E+00  0.65868608131E-01  0.88921320820E+00  0.88000000000E+00 0. -1.
        -11    1    4    4    0    0 -0.32298220076E-01  0.77394160075E-01 -0.66865380309E-01  0.10725796585E+00  0.51100000000E-03 0. -1.
         11    1    4    4    0    0  0.14251692182E-01  0.21455887192E-01 -0.12198750706E-01  0.28505025259E-01  0.51100000000E-03 0.  1.
</event>
<event>
 8    1  0.2123879E+004  0.1043930E+01  0.7957747E-01            NaN
         13   -1    0    0    0    0  0.00000000000E+00  0.00000000000E+00  0.74505805969E-08  0.10566000000E+00  0.10566000000E+00 0.  1.
     999900   -1    0    0    0    0 -0.00000000000E+00 -0.00000000000E+00 -0.74505805969E-08  0.93827000000E+00  0.93827000000E+00 0.  1.
     999902    2    1    2    0    0 -0.49472024195E-02 -0.11668706487E-01 -0.64464456371E-02  0.10297106405E+01  0.10296124577E+01 0.  0.
     999903    2    3    3    0    0 -0.30136937045E-01  0.52452833762E-01  0.11593384065E+00  0.13857483205E+00  0.45856231038E-01 0.  0.
         14    1    1    2    0    0  0.49472024195E-02  0.11668706487E-01  0.64464456371E-02  0.14219359487E-01  0.00000000000E+00 0. -1.
     999901    1    3    3    0    0  0.25189734626E-01 -0.64121540250E-01 -0.12238028629E+00  0.89113580846E+00  0.88000000000E+00 0.  1.
        -11    1    4    4    0    0 -0.37200820300E-01  0.50345878624E-01  0.78430242158E-01  0.10035024928E+00  0.51100000000E-03 0. -1.
         11    1    4    4    0    0  0.70638832544E-02  0.21069551380E-02  0.37503598494E-01  0.38224582765E-01  0.51100000000E-03 0.  1.
</event>
<event>
 8    1  0.2123879E+004  0.1043930E+01  0.7957747E-01            NaN
         13   -1    0    0    0    0  0.00000000000E+00  0.00000000000E+00  0.74505805969E-08  0.10566000000E+00  0.10566000000E+00 0. -1.
     999900   -1    0    0    0    0 -0.00000000000E+00 -0.00000000000E+00 -0.74505805969E-08  0.93827000000E+00  0.93827000000E+00 0. -1.
     999902    2    1    2    0    0  0.54676581502E-02 -0.30376905861E-02  0.12472638558E-01  0.10299768798E+01  0.10298823639E+01 0.  0.
     999903    2    3    3    0    0 -0.32840954650E-01 -0.12832487210E+00 -0.63449875675E-02  0.14007883471E+00  0.45122277919E-01 0.  0.
         14    1    1    2    0    0 -0.54676581502E-02  0.30376905861E-02 -0.12472638558E-01  0.13953120165E-01  0.00000000000E+00 0.  1.
     999901    1    3    3    0    0  0.38308612800E-01  0.12528718151E+00  0.18817626125E-01  0.88989804513E+00  0.88000000000E+00 0. -1.
        -11    1    4    4    0    0 -0.28196306740E-01 -0.63486178672E-01  0.16094722815E-01  0.71307978653E-01  0.51100000000E-03 0.  1.
         11    1    4    4    0    0 -0.46446479093E-02 -0.64838693428E-01 -0.22439710382E-01  0.68770856056E-01  0.51100000000E-03 0. -1.
</event>
<event>
 7    1  0.2123879E+004  0.1043930E+01  0.7957747E-01            NaN
         13   -1    0    0    0    0  0.00000000000E+00  0.00000000000E+00  0.74505805969E-08  0.10566000000E+00  0.10566000000E+00 0.  1.
     999900   -1    0    0    0    0 -0.00000000000E+00 -0.00000000000E+00 -0.74505805969E-08  0.93827000000E+00  0.93827000000E+00 0. -1.
     999903    2    1    2    0    0  0.61801794409E-01 -0.69834726621E-01 -0.56045947776E-01  0.11748167790E+00  0.44322066134E-01 0.  0.
         14    1    1    2    0    0  0.16031199105E-01  0.23387139975E-01 -0.25379292752E-01  0.38053464514E-01  0.00000000000E+00 0. -1.
     999901    1    1    2    0    0 -0.77832993514E-01  0.46447586647E-01  0.81425240528E-01  0.88839485758E+00  0.88000000000E+00 0.  1.
        -11    1    3    3    0    0  0.36056763371E-01 -0.44510162207E-01 -0.57727154045E-01  0.81326073062E-01  0.51100000000E-03 0. -1.
         11    1    3    3    0    0  0.25745031038E-01 -0.25324564414E-01  0.16812062695E-02  0.36155604841E-01  0.51100000000E-03 0.  1.
</event>
<event>
 8    1  0.2123879E+004  0.1043930E+01  0.7957747E-01            NaN
         13   -1    0    0    0    0  0.00000000000E+00  0.00000000000E+00  0.74505805969E-08  0.10566000000E+00  0.10566000000E+00 0. -1.
     999900   -1    0    0    0    0 -0.00000000000E+00 -0.00000000000E+00 -0.74505805969E-08  0.93827000000E+00  0.93827000000E+00 0. -1.
     999902    2    1    2    0    0  0.25389680929E-02 -0.11553453061E-01  0.32955214191E-02  0.10316503788E+01  0.10315772947E+01 0.  0.
     999903    2    3    3    0    0  0.43077278805E-01 -0.88043219944E-01 -0.92904535212E-01  0.14218509558E+00  0.44475703639E-01 0.  0.
         14    1    1    2    0    0 -0.25389680929E-02  0.11553453061E-01 -0.32955214191E-02  0.12279621250E-01  0.00000000000E+00 0.  1.
     999901    1    3    3    0    0 -0.40538310712E-01  0.76489766883E-01  0.96200056631E-01  0.88946528317E+00  0.88000000000E+00 0.  1.
        -11    1    4    4    0    0 -0.25560206384E-02 -0.29952523718E-01 -0.45068471919E-01  0.54176703486E-01  0.51100000000E-03 0.  1.
         11    1    4    4    0    0  0.45633299443E-01 -0.58090696227E-01 -0.47836063293E-01  0.88008392092E-01  0.51100000000E-03 0. -1.
</event>
<event>
 8    1  0.2123879E+004  0.1043930E+01  0.7957747E-01            NaN
         13   -1    0    0    0    0  0.00000000000E+00  0.00000000000E+00  0.74505805969E-08  0.10566000000E+00  0.10566000000E+00 0. -1.
     999900   -1    0    0    0    0 -0.00000000000E+00 -0.00000000000E+00 -0.74505805969E-08  0.93827000000E+00  0.93827000000E+00 0.  1.
     999902    2    1    2    0    0 -0.14006625107E-01  0.86741407668E-04  0.43981355583E-02  0.10292488329E+01  0.10291441218E+01 0.  0.
     999903    2    3    3    0    0  0.44895460400E-01  0.80869654160E-01 -0.92205966978E-01  0.13833487112E+00  0.45597071102E-01 0.  0.
         14    1    1    2    0    0  0.14006625107E-01 -0.86741407668E-04 -0.43981355583E-02  0.14681167098E-01  0.00000000000E+00 0.  1.
     999901    1    3    3    0    0 -0.58902085508E-01 -0.80782912752E-01  0.96604102537E-01  0.89091396178E+00  0.88000000000E+00 0. -1.
        -11    1    4    4    0    0  0.23588876731E-01  0.33178429888E-01 -0.71229765035E-01  0.82043792350E-01  0.51100000000E-03 0.  1.
         11    1    4    4    0    0  0.21306583669E-01  0.47691224271E-01 -0.20976201944E-01  0.56291078771E-01  0.51100000000E-03 0. -1.
</event>
<event>
 8    1  0.2123879E+004  0.1043930E+01  0.7957747E-01            NaN
         13   -1    0    0    0    0  0.00000000000E+00  0.00000000000E+00  0.74505805969E-08  0.10566000000E+00  0.10566000000E+00 0. -1.
     999900   -1    0    0    0    0 -0.00000000000E+00 -0.00000000000E+00 -0.74505805969E-08  0.93827000000E+00  0.93827000000E+00 0.  1.
     999902    2    1    2    0    0 -0.10743579097E-02 -0.13408065052E-01 -0.37632640413E-02  0.10299624444E+01  0.10298677314E+01 0.  0.
     999903    2    3    3    0    0  0.94662198697E-01 -0.74824980206E-01  0.55484693937E-01  0.14066617978E+00  0.46354216064E-01 0.  0.
         14    1    1    2    0    0  0.10743579097E-02  0.13408065052E-01  0.37632640413E-02  0.13967555606E-01  0.00000000000E+00 0.  1.
     999901    1    3    3    0    0 -0.95736556607E-01  0.61416915154E-01 -0.59247957978E-01  0.88929626462E+00  0.88000000000E+00 0.  1.
        -11    1    4    4    0    0  0.55395835177E-01 -0.40935591462E-01  0.62755136147E-02  0.69166931372E-01  0.51100000000E-03 0. -1.
         11    1    4    4    0    0  0.39266363520E-01 -0.33889388743E-01  0.49209180322E-01  0.71499248405E-01  0.51100000000E-03 0.  1.
</event>
<event>
 8    1  0.2123879E+004  0.1043930E+01  0.7957747E-01            NaN
         13   -1    0    0    0    0  0.00000000000E+00  0.00000000000E+00  0.74505805969E-08  0.10566000000E+00  0.10566000000E+00 0.  1.
     999900   -1    0    0    0    0 -0.00000000000E+00 -0.00000000000E+00 -0.74505805969E-08  0.93827000000E+00  0.93827000000E+00 0. -1.
     999902    2    1    2    0    0  0.13725633526E-01 -0.32399279098E-03 -0.50070651553E-02  0.10293160105E+01  0.10292122623E+01 0.  0.
     999903    2    3    3    0    0 -0.44485035892E-01  0.31485430909E-01  0.11848456741E+00  0.13822089507E+00  0.45783974707E-01 0.  0.
         14    1    1    2    0    0 -0.13725633526E-01  0.32399279098E-03  0.50070651553E-02  0.14613989479E-01  0.00000000000E+00 0. -1.
     999901    1    3    3    0    0  0.58210669419E-01 -0.31809423700E-01 -0.12349163257E+00  0.89109511545E+00  0.88000000000E+00 0. -1.
        -11    1    4    4    0    0 -0.18802002127E-01  0.35096371594E-01  0.95856290450E-01  0.10379768843E+00  0.51100000000E-03 0.  1.
         11    1    4    4    0    0 -0.25683033765E-01 -0.36109406845E-02  0.22628276965E-01  0.34423206641E-01  0.51100000000E-03 0. -1.
</event>
<event>
 8    1  0.2123879E+004  0.1043930E+01  0.7957747E-01            NaN
         13   -1    0    0    0    0  0.00000000000E+00  0.00000000000E+00  0.74505805969E-08  0.10566000000E+00  0.10566000000E+00 0. -1.
     999900   -1    0    0    0    0 -0.00000000000E+00 -0.00000000000E+00 -0.74505805969E-08  0.93827000000E+00  0.93827000000E+00 0. -1.
     999902    2    1    2    0    0 -0.23753195124E-02  0.85154312455E-02  0.87112516627E-02  0.10315186899E+01  0.10314440203E+01 0.  0.
     999903    2    3    3    0    0 -0.13397340136E-01  0.76609536116E-01  0.11116147212E+00  0.14289371857E+00  0.44869055878E-01 0.  0.
         14    1    1    2    0    0  0.23753195124E-02 -0.85154312455E-02 -0.87112516627E-02  0.12411310068E-01  0.00000000000E+00 0.  1.
     999901    1    3    3    0    0  0.11022020624E-01 -0.68094104870E-01 -0.10245022046E+00  0.88862497136E+00  0.88000000000E+00 0.  1.
        -11    1    4    4    0    0  0.13250074244E-01  0.35623257896E-01  0.31225708779E-01  0.49192346766E-01  0.51100000000E-03 0. -1.
         11    1    4    4    0    0 -0.26647414380E-01  0.40986278220E-01  0.79935763344E-01  0.93701371803E-01  0.51100000000E-03 0.  1.
</event>
<event>
 8    1  0.2123879E+004  0.1043930E+01  0.7957747E-01            NaN
         13   -1    0    0    0    0  0.00000000000E+00  0.00000000000E+00  0.74505805969E-08  0.10566000000E+00  0.10566000000E+00 0.  1.
     999900   -1    0    0    0    0 -0.00000000000E+00 -0.00000000000E+00 -0.74505805969E-08  0.93827000000E+00  0.93827000000E+00 0. -1.
     999902    2    1    2    0    0  0.10504578752E-01 -0.81806987001E-02  0.26883230139E-03  0.10306130080E+01  0.10305269671E+01 0.  0.
     999903    2    3    3    0    0 -0.81341906319E-01 -0.95223760028E-01 -0.44926218546E-01  0.14041366851E+00  0.44872742226E-01 0.  0.
         14    1    1    2    0    0 -0.10504578752E-01  0.81806987001E-02 -0.26883230139E-03  0.13316992032E-01  0.00000000000E+00 0.  1.
     999901    1    3    3    0    0  0.91846485070E-01  0.87043061328E-01  0.45195050848E-01  0.89019933946E+00  0.88000000000E+00 0.  1.
        -11    1    4    4    0    0 -0.50817962875E-01 -0.25788386624E-01 -0.23026422801E-01  0.61465303249E-01  0.51100000000E-03 0.  1.
         11    1    4    4    0    0 -0.30523943443E-01 -0.69435373405E-01 -0.21899795745E-01  0.78948365264E-01  0.51100000000E-03 0. -1.
</event>
<event>
 8    1  0.2123879E+004  0.1043930E+01  0.7957747E-01            NaN
         13   -1    0    0    0    0  0.00000000000E+00  0.00000000000E+00  0.74505805969E-08  0.10566000000E+00  0.10566000000E+00 0.  1.
     999900   -1    0    0    0    0 -0.00000000000E+00 -0.00000000000E+00 -0.74505805969E-08  0.93827000000E+00  0.93827000000E+00 0. -1.
     999902    2    1    2    0    0 -0.49359507691E-02  0.95940425208E-02 -0.82316375973E-02  0.10303591076E+01  0.10302697324E+01 0.  0.
     999903    2    3    3    0    0 -0.55951949335E-01  0.11101124546E+00  0.49377423566E-01  0.14119833191E+00  0.45218599309E-01 0.  0.
         14    1    1    2    0    0  0.49359507691E-02 -0.95940425208E-02  0.82316375973E-02  0.13570892359E-01  0.00000000000E+00 0. -1.
     999901    1    3    3    0    0  0.51015998566E-01 -0.10141720294E+00 -0.57609061163E-01  0.88916077573E+00  0.88000000000E+00 0. -1.
        -11    1    4    4    0    0 -0.30334579078E-01  0.17064052795E-01  0.10648402509E-01  0.36400799203E-01  0.51100000000E-03 0.  1.
         11    1    4    4    0    0 -0.25617370257E-01  0.93947192669E-01  0.38729021057E-01  0.10479753271E+00  0.51100000000E-03 0. -1.
</event>
<event>
 8    1  0.2123879E+004  0.1043930E+01  0.7957747E-01            NaN
         13   -1    0    0    0    0  0.00000000000E+00  0.00000000000E+00  0.74505805969E-08  0.10566000000E+00  0.10566000000E+00 0.  1.
     999900   -1    0    0    0    0 -0.00000000000E+00 -0.00000000000E+00 -0.74505805969E-08  0.93827000000E+00  0.93827000000E+00 0. -1.
     999902    2    1    2    0    0 -0.12671019655E-01 -0.40708624806E-02 -0.56945250696E-02  0.10294540104E+01  0.10293522260E+01 0.  0.
     999903    2    3    3    0    0  0.13657880581E-01 -0.11665860355E+00 -0.62382137811E-01  0.14008193082E+00  0.43996008223E-01 0.  0.
         14    1    1    2    0    0  0.12671019655E-01  0.40708624806E-02  0.56945250696E-02  0.14475989645E-01  0.00000000000E+00 0. -1.
     999901    1    3    3    0    0 -0.26328900236E-01  0.11258774107E+00  0.56687612742E-01  0.88937207954E+00  0.88000000000E+00 0. -1.
        -11    1    4    4    0    0 -0.14386016119E-01 -0.32216989580E-01 -0.26551742301E-01  0.44160480269E-01  0.51100000000E-03 0. -1.
         11    1    4    4    0    0  0.28043896700E-01 -0.84441613968E-01 -0.35830395511E-01  0.95921450547E-01  0.51100000000E-03 0.  1.
</event>
<event>
 8    1  0.2123879E+004  0.1043930E+01  0.7957747E-01            NaN
         13   -1    0    0    0    0  0.00000000000E+00  0.00000000000E+00  0.74505805969E-08  0.10566000000E+00  0.10566000000E+00 0. -1.
     999900   -1    0    0    0    0 -0.00000000000E+00 -0.00000000000E+00 -0.74505805969E-08  0.93827000000E+00  0.93827000000E+00 0.  1.
     999902    2    1    2    0    0 -0.97052406841E-02 -0.77648874989E-02  0.51368136577E-02  0.10304811328E+01  0.10303933681E+01 0.  0.
     999903    2    3    3    0    0 -0.13412884675E+00 -0.24041266460E-02 -0.44812748082E-02  0.14166029644E+00  0.45290511250E-01 0.  0.
         14    1    1    2    0    0  0.97052406841E-02  0.77648874989E-02 -0.51368136577E-02  0.13448867207E-01  0.00000000000E+00 0. -1.
     999901    1    3    3    0    0  0.12442360607E+00 -0.53607608529E-02  0.96180884660E-02  0.88882083635E+00  0.88000000000E+00 0. -1.
        -11    1    4    4    0    0 -0.11280262853E+00  0.13124108532E-01 -0.12072307122E-01  0.11420453996E+00  0.51100000000E-03 0.  1.
         11    1    4    4    0    0 -0.21326218219E-01 -0.15528235178E-01  0.75910323133E-02  0.27455756479E-01  0.51100000000E-03 0. -1.
</event>
<event>
 8    1  0.2123879E+004  0.1043930E+01  0.7957747E-01            NaN
         13   -1    0    0    0    0  0.00000000000E+00  0.00000000000E+00  0.74505805969E-08  0.10566000000E+00  0.10566000000E+00 0.  1.
     999900   -1    0    0    0    0 -0.00000000000E+00 -0.00000000000E+00 -0.74505805969E-08  0.93827000000E+00  0.93827000000E+00 0.  1.
     999902    2    1    2    0    0 -0.98876992248E-03 -0.97964526805E-02  0.96411195705E-02  0.10301496031E+01  0.10300574283E+01 0.  0.
     999903    2    3    3    0    0  0.75284728463E-01  0.20490281763E-02  0.11010831185E+00  0.14107614234E+00  0.45898243357E-01 0.  0.
         14    1    1    2    0    0  0.98876992248E-03  0.97964526805E-02 -0.96411195705E-02  0.13780396861E-01  0.00000000000E+00 0. -1.
     999901    1    3    3    0    0 -0.76273498385E-01 -0.11845480857E-01 -0.10046719228E+00  0.88907346080E+00  0.88000000000E+00 0.  1.
        -11    1    4    4    0    0  0.63933530402E-01 -0.68010956331E-02  0.56587725395E-01  0.85651520698E-01  0.51100000000E-03 0.  1.
         11    1    4    4    0    0  0.11351198061E-01  0.88501238094E-02  0.53520586453E-01  0.55424621642E-01  0.51100000000E-03 0. -1.
</event>
<event>
 8    1  0.2123879E+004  0.1043930E+01  0.7957747E-01            NaN
         13   -1    0    0    0    0  0.00000000000E+00  0.00000000000E+00  0.74505805969E-08  0.10566000000E+00  0.10566000000E+00 0.  1.
     999900   -1    0    0    0    0 -0.00000000000E+00 -0.00000000000E+00 -0.74505805969E-08  0.93827000000E+00  0.93827000000E+00 0. -1.
     999902    2    1    2    0    0  0.61937578616E-02 -0.10330342546E-01  0.58761789467E-02  0.10305282056E+01  0.10304410582E+01 0.  0.
     999903    2    3    3    0    0  0.90569830258E-01 -0.57042275277E-01 -0.79780071933E-01  0.14112485530E+00  0.45767341885E-01 0.  0.
         14    1    1    2    0    0 -0.61937578616E-02  0.10330342546E-01 -0.58761789467E-02  0.13401794379E-01  0.00000000000E+00 0. -1.
     999901    1    3    3    0    0 -0.84376072396E-01  0.46711932732E-01  0.85656250880E-01  0.88940335032E+00  0.88000000000E+00 0.  1.
        -11    1    4    4    0    0  0.92854536845E-01 -0.43590639316E-01 -0.67798680774E-01  0.12295946928E+00  0.51100000000E-03 0.  1.
         11    1    4    4    0    0 -0.22847065873E-02 -0.13451635962E-01 -0.11981391159E-01  0.18165386022E-01  0.51100000000E-03 0. -1.
</event>
<event>
 8    1  0.2123879E+004  0.1043930E+01  0.7957747E-01            NaN
         13   -1    0    0    0    0  0.00000000000E+00  0.00000000000E+00  0.74505805969E-08  0.10566000000E+00  0.10566000000E+00 0.  1.
     999900   -1    0    0    0    0 -0.00000000000E+00 -0.00000000000E+00 -0.74505805969E-08  0.93827000000E+00  0.93827000000E+00 0. -1.
     999902    2    1    2    0    0  0.11236392505E-02  0.53036018758E-03 -0.13532427858E-01  0.10303406494E+01  0.10302510293E+01 0.  0.
     999903    2    3    3    0    0 -0.16274408953E-01  0.62890862905E-01  0.11635239814E+00  0.13845411375E+00  0.37570520840E-01 0.  0.
         14    1    1    2    0    0 -0.11236392505E-02 -0.53036018758E-03  0.13532427858E-01  0.13589350640E-01  0.00000000000E+00 0.  1.
     999901    1    3    3    0    0  0.17398048203E-01 -0.62360502717E-01 -0.12988482600E+00  0.89188653561E+00  0.88000000000E+00 0. -1.
        -11    1    4    4    0    0  0.18533356083E-02 -0.30044821362E-02  0.20046483322E-01  0.20361345249E-01  0.51100000000E-03 0.  1.
         11    1    4    4    0    0 -0.18127744561E-01  0.65895345041E-01  0.96305914822E-01  0.11809276850E+00  0.51100000000E-03 0. -1.
</event>
<event>
 7    1  0.2123879E+004  0.1043930E+01  0.7957747E-01            NaN
         13   -1    0    0    0    0  0.00000000000E+00  0.00000000000E+00  0.74505805969E-08  0.10566000000E+00  0.10566000000E+00 0. -1.
     999900   -1    0    0    0    0 -0.00000000000E+00 -0.00000000000E+00 -0.74505805969E-08  0.93827000000E+00  0.93827000000E+00 0. -1.
     999903    2    1    2    0    0  0.91696371342E-01  0.27657681871E-01 -0.49832098023E-01  0.11682439511E+00  0.44626555057E-01 0.  0.
         14    1    1    2    0    0  0.22623310789E-01  0.21885147711E-01  0.21043756877E-01  0.37863090007E-01  0.00000000000E+00 0. -1.
     999901    1    1    2    0    0 -0.11431968213E+00 -0.49542829581E-01  0.28788341146E-01  0.88924251488E+00  0.88000000000E+00 0.  1.
        -11    1    3    3    0    0  0.69237160194E-02  0.16997188099E-01 -0.94364056185E-03  0.18384608381E-01  0.51100000000E-03 0. -1.
         11    1    3    3    0    0  0.84772655322E-01  0.10660493772E-01 -0.48888457461E-01  0.98439786732E-01  0.51100000000E-03 0.  1.
</event>
<event>
 8    1  0.2123879E+004  0.1043930E+01  0.7957747E-01            NaN
         13   -1    0    0    0    0  0.00000000000E+00  0.00000000000E+00  0.74505805969E-08  0.10566000000E+00  0.10566000000E+00 0. -1.
     999900   -1    0    0    0    0 -0.00000000000E+00 -0.00000000000E+00 -0.74505805969E-08  0.93827000000E+00  0.93827000000E+00 0.  1.
     999902    2    1    2    0    0 -0.20906269609E-01  0.41501681365E-02  0.12351858613E-01  0.10192953818E+01  0.10189976501E+01 0.  0.
     999903    2    3    3    0    0  0.54744928471E-01 -0.42363753802E-01 -0.97299608023E-01  0.12805462145E+00  0.46250162420E-01 0.  0.
         14    1    1    2    0    0  0.20906269609E-01 -0.41501681365E-02 -0.12351858613E-01  0.24634618238E-01  0.00000000000E+00 0.  1.
     999901    1    3    3    0    0 -0.75651198080E-01  0.46513921938E-01  0.10965146664E+00  0.89124076031E+00  0.88000000000E+00 0. -1.
        -11    1    4    4    0    0  0.12162938380E-01 -0.30736608701E-01 -0.18898332293E-01  0.38079972018E-01  0.51100000000E-03 0.  1.
         11    1    4    4    0    0  0.42581990092E-01 -0.11627145101E-01 -0.78401275730E-01  0.89974649432E-01  0.51100000000E-03 0. -1.
</event>
<event>
 8    1  0.2123879E+004  0.1043930E+01  0.7957747E-01            NaN
         13   -1    0    0    0    0  0.00000000000E+00  0.00000000000E+00  0.74505805969E-08  0.10566000000E+00  0.10566000000E+00 0.  1.
     999900   -1    0    0    0    0 -0.00000000000E+00 -0.00000000000E+00 -0.74505805969E-08  0.93827000000E+00  0.93827000000E+00 0.  1.
     999902    2    1    2    0    0  0.11143178891E-01  0.28695662295E-02  0.78644207359E-02  0.10299924981E+01  0.10298981950E+01 0.  0.
     999903    2    3    3    0    0 -0.43518983360E-01  0.12248921874E+00 -0.22759656711E-01  0.13969218506E+00  0.45808230419E-01 0.  0.
         14    1    1    2    0    0 -0.11143178891E-01 -0.28695662295E-02 -0.78644207359E-02  0.13937501916E-01  0.00000000000E+00 0. -1.
     999901    1    3    3    0    0  0.54662162251E-01 -0.11961965251E+00  0.30624077447E-01  0.89030031302E+00  0.88000000000E+00 0.  1.
        -11    1    4    4    0    0 -0.10651582548E-01  0.92889359253E-01 -0.13064328214E-01  0.94407770156E-01  0.51100000000E-03 0.  1.
         11    1    4    4    0    0 -0.32867400813E-01  0.29599859485E-01 -0.96953284964E-02  0.45284414906E-01  0.51100000000E-03 0. -1.
</event>
<event>
 8    1  0.2123879E+004  0.1043930E+01  0.7957747E-01            NaN
         13   -1    0    0    0    0  0.00000000000E+00  0.00000000000E+00  0.74505805969E-08  0.10566000000E+00  0.10566000000E+00 0.  1.
     999900   -1    0    0    0    0 -0.00000000000E+00 -0.00000000000E+00 -0.74505805969E-08  0.93827000000E+00  0.93827000000E+00 0.  1.
     999902    2    1    2    0    0  0.38567259369E-02  0.16644175330E-02 -0.91109061777E-02  0.10338973916E+01  0.10338487138E+01 0.  0.
     999903    2    3    3    0    0 -0.10325055064E+00 -0.15113256017E-01 -0.87847061097E-01  0.14375535732E+00  0.45380721685E-01 0.  0.
         14    1    1    2    0    0 -0.38567259369E-02 -0.16644175330E-02  0.91109061777E-02  0.10032608437E-01  0.00000000000E+00 0.  1.
     999901    1    3    3    0    0  0.10710727658E+00  0.16777673550E-01  0.78736154920E-01  0.89014203424E+00  0.88000000000E+00 0.  1.
        -11    1    4    4    0    0 -0.25658648205E-01 -0.14402147491E-01 -0.43160711027E-02  0.29743531579E-01  0.51100000000E-03 0. -1.
         11    1    4    4    0    0 -0.77591902438E-01 -0.71110852628E-03 -0.83530989995E-01  0.11401182575E+00  0.51100000000E-03 0.  1.
</event>
<event>
 8    1  0.2123879E+004  0.1043930E+01  0.7957747E-01            NaN
         13   -1    0    0    0    0  0.00000000000E+00  0.00000000000E+00  0.74505805969E-08  0.10566000000E+00  0.10566000000E+00 0. -1.
     999900   -1    0    0    0    0 -0.00000000000E+00 -0.00000000000E+00 -0.74505805969E-08  0.93827000000E+00  0.93827000000E+00 0.  1.
     999902    2    1    2    0    0 -0.12852041976E-02  0.88047275399E-02 -0.10958128485E-01  0.10298142090E+01  0.10297174610E+01 0.  0.
     999903    2    3    3    0    0  0.61867631690E-02 -0.50959215362E-02 -0.13354436974E+00  0.14117679984E+00  0.45083762810E-01 0.  0.
         14    1    1    2    0    0  0.12852041976E-02 -0.88047275399E-02  0.10958128485E-01  0.14115791044E-01  0.00000000000E+00 0.  1.
     999901    1    3    3    0    0 -0.74719673666E-02  0.13900649076E-01  0.12258624125E+00  0.88863740912E+00  0.88000000000E+00 0. -1.
        -11    1    4    4    0    0  0.10861688087E-01 -0.15460785933E-01 -0.12625229836E+00  0.12765937542E+00  0.51100000000E-03 0. -1.
         11    1    4    4    0    0 -0.46749249181E-02  0.10364864397E-01 -0.72920713735E-02  0.13517424417E-01  0.51100000000E-03 0.  1.
</event>
<event>
 8    1  0.2123879E+004  0.1043930E+01  0.7957747E-01            NaN
         13   -1    0    0    0    0  0.00000000000E+00  0.00000000000E+00  0.74505805969E-08  0.10566000000E+00  0.10566000000E+00 0. -1.
     999900   -1    0    0    0    0 -0.00000000000E+00 -0.00000000000E+00 -0.74505805969E-08  0.93827000000E+00  0.93827000000E+00 0.  1.
     999902    2    1    2    0    0 -0.11582051526E-02  0.11218363124E-01 -0.36881581661E-02  0.10320642669E+01  0.10319960540E+01 0.  0.
     999903    2    3    3    0    0 -0.13318451339E-02 -0.75971269616E-01  0.10912406404E+00  0.14058871501E+00  0.45647758086E-01 0.  0.
         14    1    1    2    0    0  0.11582051526E-02 -0.11218363124E-01  0.36881581661E-02  0.11865733059E-01  0.00000000000E+00 0. -1.
     999901    1    3    3    0    0  0.17363998132E-03  0.87189632740E-01 -0.11281222220E+00  0.89147555193E+00  0.88000000000E+00 0.  1.
        -11    1    4    4    0    0 -0.23048965986E-01 -0.46083843654E-01  0.67729715595E-01  0.85103178404E-01  0.51100000000E-03 0.  1.
         11    1    4    4    0    0  0.21717120852E-01 -0.29887425962E-01  0.41394348442E-01  0.55485536608E-01  0.51100000000E-03 0. -1.
</event>
<event>
 8    1  0.2123879E+004  0.1043930E+01  0.7957747E-01            NaN
         13   -1    0    0    0    0  0.00000000000E+00  0.00000000000E+00  0.74505805969E-08  0.10566000000E+00  0.10566000000E+00 0. -1.
     999900   -1    0    0    0    0 -0.00000000000E+00 -0.00000000000E+00 -0.74505805969E-08  0.93827000000E+00  0.93827000000E+00 0. -1.
     999902    2    1    2    0    0 -0.11713241396E-02 -0.13382221047E-01 -0.45891328428E-02  0.10297343676E+01  0.10296365144E+01 0.  0.
     999903    2    3    3    0    0 -0.59935838830E-01  0.47317234362E-01  0.10699874108E+00  0.13867345735E+00  0.44163013244E-01 0.  0.
         14    1    1    2    0    0  0.11713241396E-02  0.13382221047E-01  0.45891328428E-02  0.14195632449E-01  0.00000000000E+00 0.  1.
     999901    1    3    3    0    0  0.58764514690E-01 -0.60699455408E-01 -0.11158787392E+00  0.89106091020E+00  0.88000000000E+00 0. -1.
        -11    1    4    4    0    0  0.29846780971E-02  0.17244631291E-01  0.30412407970E-01  0.35092182766E-01  0.51100000000E-03 0.  1.
         11    1    4    4    0    0 -0.62920516927E-01  0.30072603071E-01  0.76586333106E-01  0.10358127459E+00  0.51100000000E-03 0. -1.
</event>
<event>
 8    1  0.2123879E+004  0.1043930E+01  0.7957747E-01            NaN
         13   -1    0    0    0    0  0.00000000000E+00  0.00000000000E+00  0.74505805969E-08  0.10566000000E+00  0.10566000000E+00 0. -1.
     999900   -1    0    0    0    0 -0.00000000000E+00 -0.00000000000E+00 -0.74505805969E-08  0.93827000000E+00  0.93827000000E+00 0. -1.
     999902    2    1    2    0    0 -0.32025862094E-02  0.65892434680E-02 -0.11625452811E-01  0.10301886085E+01  0.10300969582E+01 0.  0.
     999903    2    3    3    0    0  0.29030001194E-01  0.12948112804E-02  0.12798052950E+00  0.13858510860E+00  0.44524138268E-01 0.  0.
         14    1    1    2    0    0  0.32025862094E-02 -0.65892434680E-02  0.11625452811E-01  0.13741391523E-01  0.00000000000E+00 0. -1.
     999901    1    3    3    0    0 -0.32232587404E-01  0.52944321877E-02 -0.13960598231E+00  0.89160349988E+00  0.88000000000E+00 0. -1.
        -11    1    4    4    0    0  0.15519734131E-01 -0.85716549699E-03  0.12305812387E+00  0.12403692939E+00  0.51100000000E-03 0.  1.
         11    1    4    4    0    0  0.13510267063E-01  0.21519767774E-02  0.49224056284E-02  0.14548179210E-01  0.51100000000E-03 0. -1.
</event>
<event>
 8    1  0.2123879E+004  0.1043930E+01  0.7957747E-01            NaN
         13   -1    0    0    0    0  0.00000000000E+00  0.00000000000E+00  0.74505805969E-08  0.10566000000E+00  0.10566000000E+00 0. -1.
     999900   -1    0    0    0    0 -0.00000000000E+00 -0.00000000000E+00 -0.74505805969E-08  0.93827000000E+00  0.93827000000E+00 0. -1.
     999902    2    1    2    0    0  0.10265588280E-01  0.39904636091E-02 -0.73647373623E-02  0.10306806431E+01  0.10305954796E+01 0.  0.
     999903    2    3    3    0    0 -0.38502415317E-01 -0.16429991402E-01  0.12484913819E+00  0.13923472657E+00  0.45239597430E-01 0.  0.
         14    1    1    2    0    0 -0.10265588280E-01 -0.39904636091E-02  0.73647373623E-02  0.13249356926E-01  0.00000000000E+00 0. -1.
     999901    1    3    3    0    0  0.48768003597E-01  0.20420455011E-01 -0.13221387555E+00  0.89144591650E+00  0.88000000000E+00 0. -1.
        -11    1    4    4    0    0  0.22667648511E-02 -0.19784224402E-01  0.51993070936E-01  0.55678490500E-01  0.51100000000E-03 0. -1.
         11    1    4    4    0    0 -0.40769180168E-01  0.33542330001E-02  0.72856067250E-01  0.83556236073E-01  0.51100000000E-03 0.  1.
</event>
<event>
 8    1  0.2123879E+004  0.1043930E+01  0.7957747E-01            NaN
         13   -1    0    0    0    0  0.00000000000E+00  0.00000000000E+00  0.74505805969E-08  0.10566000000E+00  0.10566000000E+00 0. -1.
     999900   -1    0    0    0    0 -0.00000000000E+00 -0.00000000000E+00 -0.74505805969E-08  0.93827000000E+00  0.93827000000E+00 0. -1.
     999902    2    1    2    0    0 -0.22551633855E-02  0.30868962698E-03  0.13315317759E-01  0.10304215309E+01  0.10303329814E+01 0.  0.
     999903    2    3    3    0    0 -0.33068596086E-02  0.45981810311E-02 -0.13098654065E+00  0.13865781096E+00  0.45126889096E-01 0.  0.
         14    1    1    2    0    0  0.22551633855E-02 -0.30868962698E-03 -0.13315317759E-01  0.13508469129E-01  0.00000000000E+00 0.  1.
     999901    1    3    3    0    0  0.10516962231E-02 -0.42894914041E-02  0.14430185841E+00  0.89176371991E+00  0.88000000000E+00 0.  1.
        -11    1    4    4    0    0  0.13998614224E-01  0.18386321355E-01 -0.73919157342E-01  0.77448827985E-01  0.51100000000E-03 0.  1.
         11    1    4    4    0    0 -0.17305473833E-01 -0.13788140323E-01 -0.57067383312E-01  0.61208982978E-01  0.51100000000E-03 0. -1.
</event>
<event>
 7    1  0.2123879E+004  0.1043930E+01  0.7957747E-01            NaN
         13   -1    0    0    0    0  0.00000000000E+00  0.00000000000E+00  0.74505805969E-08  0.10566000000E+00  0.10566000000E+00 0.  1.
     999900   -1    0    0    0    0 -0.00000000000E+00 -0.00000000000E+00 -0.74505805969E-08  0.93827000000E+00  0.93827000000E+00 0.  1.
     999903    2    1    2    0    0 -0.41778262115E-01 -0.92523625656E-01  0.65002954457E-02  0.11130542195E+00  0.45172985565E-01 0.  0.
         14    1    1    2    0    0 -0.38115409859E-01 -0.15240566177E-01 -0.10805479513E-01  0.42447823426E-01  0.00000000000E+00 0. -1.
     999901    1    1    2    0    0  0.79893671974E-01  0.10776419183E+00  0.43051840672E-02  0.89017675462E+00  0.88000000000E+00 0. -1.
        -11    1    3    3    0    0 -0.12722527672E-01 -0.35942170467E-01  0.24347534595E-01  0.45241196824E-01  0.51100000000E-03 0.  1.
         11    1    3    3    0    0 -0.29055734443E-01 -0.56581455189E-01 -0.17847239149E-01  0.66064225126E-01  0.51100000000E-03 0. -1.
</event>
<event>
 8    1  0.2123879E+004  0.1043930E+01  0.7957747E-01            NaN
         13   -1    0    0    0    0  0.00000000000E+00  0.00000000000E+00  0.74505805969E-08  0.10566000000E+00  0.10566000000E+00 0.  1.
     999900   -1    0    0    0    0 -0.00000000000E+00 -0.00000000000E+00 -0.74505805969E-08  0.93827000000E+00  0.93827000000E+00 0. -1.
     999902    2    1    2    0    0  0.13926439602E-01  0.19714970479E-02  0.21593661482E-02  0.10296999128E+01  0.10296015807E+01 0.  0.
     999903    2    3    3    0    0  0.11344606510E-01 -0.90647951827E-01  0.96087667741E-01  0.13986422343E+00  0.44535489628E-01 0.  0.
         14    1    1    2    0    0 -0.13926439602E-01 -0.19714970479E-02 -0.21593661482E-02  0.14230087237E-01  0.00000000000E+00 0. -1.
     999901    1    3    3    0    0  0.25818330927E-02  0.92619448874E-01 -0.93928301593E-01  0.88983568933E+00  0.88000000000E+00 0. -1.
        -11    1    4    4    0    0 -0.48185274882E-02 -0.36560688843E-01  0.66707134216E-01  0.76223389141E-01  0.51100000000E-03 0.  1.
         11    1    4    4    0    0  0.16163133998E-01 -0.54087262984E-01  0.29380533525E-01  0.63640834289E-01  0.51100000000E-03 0. -1.
</event>
<event>
 8    1  0.2123879E+004  0.1043930E+01  0.7957747E-01            NaN
         13   -1    0    0    0    0  0.00000000000E+00  0.00000000000E+00  0.74505805969E-08  0.10566000000E+00  0.10566000000E+00 0.  1.
     999900   -1    0    0    0    0 -0.00000000000E+00 -0.00000000000E+00 -0.74505805969E-08  0.93827000000E+00  0.93827000000E+00 0. -1.
     999902    2    1    2    0    0 -0.12270014980E-01  0.61338016865E-02  0.45524133537E-04  0.10302121699E+01  0.10301208357E+01 0.  0.
     999903    2    3    3    0    0 -0.34938903299E-01  0.94165679823E-01 -0.88283793259E-01  0.14113086967E+00  0.45121968068E-01 0.  0.
         14    1    1    2    0    0  0.12270014980E-01 -0.61338016865E-02 -0.45524133537E-04  0.13717830120E-01  0.00000000000E+00 0. -1.
     999901    1    3    3    0    0  0.22668888319E-01 -0.88031878137E-01  0.88329317392E-01  0.88908130021E+00  0.88000000000E+00 0. -1.
        -11    1    4    4    0    0 -0.41432076484E-01  0.48860094898E-01 -0.56356385965E-01  0.85324259125E-01  0.51100000000E-03 0. -1.
         11    1    4    4    0    0  0.64931731844E-02  0.45305584926E-01 -0.31927407294E-01  0.55806610549E-01  0.51100000000E-03 0.  1.
</event>
<event>
 8    1  0.2123879E+004  0.1043930E+01  0.7957747E-01            NaN
         13   -1    0    0    0    0  0.00000000000E+00  0.00000000000E+00  0.74505805969E-08  0.10566000000E+00  0.10566000000E+00 0. -1.
     999900   -1    0    0    0    0 -0.00000000000E+00 -0.00000000000E+00 -0.74505805969E-08  0.93827000000E+00  0.93827000000E+00 0. -1.
     999902    2    1    2    0    0 -0.93154445548E-02 -0.87067564984E-02 -0.52851360992E-02  0.10301271822E+01  0.10300347051E+01 0.  0.
     999903    2    3    3    0    0  0.48480326188E-01 -0.10558300102E+00  0.64284917360E-01  0.14020283135E+00  0.45013011328E-01 0.  0.
         14    1    1    2    0    0  0.93154445548E-02  0.87067564984E-02  0.52851360992E-02  0.13802817812E-01  0.00000000000E+00 0. -1.
     999901    1    3    3    0    0 -0.57795770743E-01  0.96876244518E-01 -0.69570053459E-01  0.88992435083E+00  0.88000000000E+00 0. -1.
        -11    1    4    4    0    0  0.39754307317E-01 -0.37074155224E-01  0.18864257548E-01  0.57541456965E-01  0.51100000000E-03 0. -1.
         11    1    4    4    0    0  0.87260188711E-02 -0.68508845792E-01  0.45420659813E-01  0.82661374390E-01  0.51100000000E-03 0.  1.
</event>
<event>
 8    1  0.2123879E+004  0.1043930E+01  0.7957747E-01            NaN
         13   -1    0    0    0    0  0.00000000000E+00  0.00000000000E+00  0.74505805969E-08  0.10566000000E+00  0.10566000000E+00 0.  1.
     999900   -1    0    0    0    0 -0.00000000000E+00 -0.00000000000E+00 -0.74505805969E-08  0.93827000000E+00  0.93827000000E+00 0. -1.
     999902    2    1    2    0    0  0.82014143863E-04  0.10687924604E-01  0.10948502051E-01  0.10286294067E+01  0.10285156042E+01 0.  0.
     999903    2    3    3    0    0 -0.12253497471E+00 -0.44216536383E-01 -0.11606186802E-01  0.13814743619E+00  0.44498184636E-01 0.  0.
         14    1    1    2    0    0 -0.82014143863E-04 -0.10687924604E-01 -0.10948502051E-01  0.15300593316E-01  0.00000000000E+00 0. -1.
     999901    1    3    3    0    0  0.12261698885E+00  0.54904460987E-01  0.22554688853E-01  0.89048197050E+00  0.88000000000E+00 0.  1.
        -11    1    4    4    0    0 -0.73391923963E-01 -0.49035799694E-01 -0.66379849791E-02  0.88516710966E-01  0.51100000000E-03 0.  1.
         11    1    4    4    0    0 -0.49143050747E-01  0.48192633107E-02 -0.49682018226E-02  0.49630725221E-01  0.51100000000E-03 0. -1.
</event>
<event>
 8    1  0.2123879E+004  0.1043930E+01  0.7957747E-01            NaN
         13   -1    0    0    0    0  0.00000000000E+00  0.00000000000E+00  0.74505805969E-08  0.10566000000E+00  0.10566000000E+00 0. -1.
     999900   -1    0    0    0    0 -0.00000000000E+00 -0.00000000000E+00 -0.74505805969E-08  0.93827000000E+00  0.93827000000E+00 0.  1.
     999902    2    1    2    0    0 -0.13680312786E-01  0.57931729572E-03 -0.33758045237E-02  0.10298274250E+01  0.10297308593E+01 0.  0.
     999903    2    3    3    0    0 -0.25048953293E-01 -0.10471572820E+00 -0.78029889236E-01  0.14033907487E+00  0.44872692430E-01 0.  0.
         14    1    1    2    0    0  0.13680312786E-01 -0.57931729572E-03  0.33758045237E-02  0.14102575036E-01  0.00000000000E+00 0.  1.
     999901    1    3    3    0    0  0.11368640507E-01  0.10529504550E+00  0.74654084712E-01  0.88948835010E+00  0.88000000000E+00 0. -1.
        -11    1    4    4    0    0 -0.31215864130E-01 -0.37219799281E-01 -0.37466170790E-01  0.61349154082E-01  0.51100000000E-03 0.  1.
         11    1    4    4    0    0  0.61669108364E-02 -0.67495928924E-01 -0.40563718446E-01  0.78989920786E-01  0.51100000000E-03 0. -1.
</event>
<event>
 8    1  0.2123879E+004  0.1043930E+01  0.7957747E-01            NaN
         13   -1    0    0    0    0  0.00000000000E+00  0.00000000000E+00  0.74505805969E-08  0.10566000000E+00  0.10566000000E+00 0. -1.
     999900   -1    0    0    0    0 -0.00000000000E+00 -0.00000000000E+00 -0.74505805969E-08  0.93827000000E+00  0.93827000000E+00 0. -1.
     999902    2    1    2    0    0  0.58945108785E-02  0.11225272103E-01  0.59721527834E-02  0.10299150579E+01  0.10298196968E+01 0.  0.
     999903    2    3    3    0    0 -0.10349703705E+00  0.28449838156E-01 -0.79974670289E-01  0.13882019607E+00  0.36797676307E-01 0.  0.
         14    1    1    2    0    0 -0.58945108785E-02 -0.11225272103E-01 -0.59721527834E-02  0.14014942067E-01  0.00000000000E+00 0. -1.
     999901    1    3    3    0    0  0.10939154793E+00 -0.17224566053E-01  0.85946823072E-01  0.89109486186E+00  0.88000000000E+00 0.  1.
        -11    1    4    4    0    0 -0.10109139852E+00  0.18152814674E-01 -0.70170802792E-01  0.12439131087E+00  0.51100000000E-03 0. -1.
         11    1    4    4    0    0 -0.24056385308E-02  0.10297023481E-01 -0.98038674971E-02  0.14428885204E-01  0.51100000000E-03 0.  1.
</event>
<event>
 8    1  0.2123879E+004  0.1043930E+01  0.7957747E-01            NaN
         13   -1    0    0    0    0  0.00000000000E+00  0.00000000000E+00  0.74505805969E-08  0.10566000000E+00  0.10566000000E+00 0. -1.
     999900   -1    0    0    0    0 -0.00000000000E+00 -0.00000000000E+00 -0.74505805969E-08  0.93827000000E+00  0.93827000000E+00 0. -1.
     999902    2    1    2    0    0  0.78729434180E-02 -0.11565965107E-01 -0.32346393826E-03  0.10299350218E+01  0.10298399340E+01 0.  0.
     999903    2    3    3    0    0  0.10782770242E+00 -0.46486907290E-01 -0.64373545901E-01  0.14127713537E+00  0.45026987550E-01 0.  0.
         14    1    1    2    0    0 -0.78729434180E-02  0.11565965107E-01  0.32346393826E-03  0.13994978236E-01  0.00000000000E+00 0.  1.
     999901    1    3    3    0    0 -0.99954759002E-01  0.34920942183E-01  0.64050081963E-01  0.88865788639E+00  0.88000000000E+00 0.  1.
        -11    1    4    4    0    0  0.84865063592E-01 -0.44155650366E-01 -0.68713683913E-01  0.11778638273E+00  0.51100000000E-03 0.  1.
         11    1    4    4    0    0  0.22962638828E-01 -0.23312569239E-02  0.43401380126E-02  0.23490752644E-01  0.51100000000E-03 0. -1.
</event>
<event>
 8    1  0.2123879E+004  0.1043930E+01  0.7957747E-01            NaN
         13   -1    0    0    0    0  0.00000000000E+00  0.00000000000E+00  0.74505805969E-08  0.10566000000E+00  0.10566000000E+00 0.  1.
     999900   -1    0    0    0    0 -0.00000000000E+00 -0.00000000000E+00 -0.74505805969E-08  0.93827000000E+00  0.93827000000E+00 0.  1.
     999902    2    1    2    0    0  0.10874778209E-01 -0.79655076361E-02 -0.40367119317E-02  0.10298585695E+01  0.10297624328E+01 0.  0.
     999903    2    3    3    0    0  0.62426502103E-01 -0.77911442145E-01 -0.89504479419E-01  0.14145846073E+00  0.45079743722E-01 0.  0.
         14    1    1    2    0    0 -0.10874778209E-01  0.79655076361E-02  0.40367119317E-02  0.14071430496E-01  0.00000000000E+00 0. -1.
     999901    1    3    3    0    0 -0.51551723895E-01  0.69945934509E-01  0.85467767487E-01  0.88840010877E+00  0.88000000000E+00 0. -1.
        -11    1    4    4    0    0  0.21177123147E-01 -0.81105857259E-02 -0.41333682887E-01  0.47148558913E-01  0.51100000000E-03 0.  1.
         11    1    4    4    0    0  0.41249378957E-01 -0.69800856419E-01 -0.48170796531E-01  0.94309901816E-01  0.51100000000E-03 0. -1.
</event>
<event>
 8    1  0.2123879E+004  0.1043930E+01  0.7957747E-01            NaN
         13   -1    0    0    0    0  0.00000000000E+00  0.00000000000E+00  0.74505805969E-08  0.10566000000E+00  0.10566000000E+00 0. -1.
     999900   -1    0    0    0    0 -0.00000000000E+00 -0.00000000000E+00 -0.74505805969E-08  0.93827000000E+00  0.93827000000E+00 0. -1.
     999902    2    1    2    0    0  0.84998306830E-02 -0.71386109516E-02  0.11528929508E-01  0.10279261535E+01  0.10278015635E+01 0.  0.
     999903    2    3    3    0    0  0.34143219527E-01 -0.12105544201E+00 -0.37308203315E-01  0.13887064715E+00  0.45529936593E-01 0.  0.
         14    1    1    2    0    0 -0.84998306830E-02  0.71386109516E-02 -0.11528929508E-01  0.16003846524E-01  0.00000000000E+00 0.  1.
     999901    1    3    3    0    0 -0.25643388844E-01  0.11391683105E+00  0.48837132823E-01  0.88905550633E+00  0.88000000000E+00 0. -1.
        -11    1    4    4    0    0 -0.60109319912E-02 -0.42823010313E-01  0.25546467774E-03  0.43246594073E-01  0.51100000000E-03 0. -1.
         11    1    4    4    0    0  0.40154151518E-01 -0.78232431692E-01 -0.37563667992E-01  0.95624053076E-01  0.51100000000E-03 0.  1.
</event>
<event>
 8    1  0.2123879E+004  0.1043930E+01  0.7957747E-01            NaN
         13   -1    0    0    0    0  0.00000000000E+00  0.00000000000E+00  0.74505805969E-08  0.10566000000E+00  0.10566000000E+00 0. -1.
     999900   -1    0    0    0    0 -0.00000000000E+00 -0.00000000000E+00 -0.74505805969E-08  0.93827000000E+00  0.93827000000E+00 0.  1.
     999902    2    1    2    0    0 -0.19796755059E-02 -0.92321589795E-02  0.10388730366E-01  0.10298915673E+01  0.10297958840E+01 0.  0.
     999903    2    3    3    0    0 -0.96711252609E-02 -0.93246457283E-01  0.96136943353E-01  0.14170784938E+00  0.45281014111E-01 0.  0.
         14    1    1    2    0    0  0.19796755059E-02  0.92321589795E-02 -0.10388730366E-01  0.14038432717E-01  0.00000000000E+00 0.  1.
     999901    1    3    3    0    0  0.76914497550E-02  0.84014298303E-01 -0.85748212987E-01  0.88818371790E+00  0.88000000000E+00 0.  1.
        -11    1    4    4    0    0  0.59038923284E-04 -0.93127083335E-01  0.92630314465E-01  0.13135179258E+00  0.51100000000E-03 0.  1.
         11    1    4    4    0    0 -0.97301641842E-02 -0.11937394712E-03  0.35066288876E-02  0.10356056795E-01  0.51100000000E-03 0. -1.
</event>
<event>
 8    1  0.2123879E+004  0.1043930E+01  0.7957747E-01            NaN
         13   -1    0    0    0    0  0.00000000000E+00  0.00000000000E+00  0.74505805969E-08  0.10566000000E+00  0.10566000000E+00 0.  1.
     999900   -1    0    0    0    0 -0.00000000000E+00 -0.00000000000E+00 -0.74505805969E-08  0.93827000000E+00  0.93827000000E+00 0.  1.
     999902    2    1    2    0    0  0.91705777257E-02 -0.76970735621E-02  0.15734308092E-02  0.10318543997E+01  0.10317837381E+01 0.  0.
     999903    2    3    3    0    0  0.12074901934E+00  0.54780228638E-01  0.25779880431E-01  0.14228196641E+00  0.44702982118E-01 0.  0.
         14    1    1    2    0    0 -0.91705777257E-02  0.76970735621E-02 -0.15734308092E-02  0.12075600265E-01  0.00000000000E+00 0.  1.
     999901    1    3    3    0    0 -0.11157844161E+00 -0.62477302200E-01 -0.24206449622E-01  0.88957243332E+00  0.88000000000E+00 0. -1.
        -11    1    4    4    0    0  0.32936847672E-01  0.54730840461E-02 -0.10860460179E-01  0.35114118241E-01  0.51100000000E-03 0. -1.
         11    1    4    4    0    0  0.87812171668E-01  0.49307144592E-01  0.36640340610E-01  0.10716784817E+00  0.51100000000E-03 0.  1.
</event>
<event>
 8    1  0.2123879E+004  0.1043930E+01  0.7957747E-01            NaN
         13   -1    0    0    0    0  0.00000000000E+00  0.00000000000E+00  0.74505805969E-08  0.10566000000E+00  0.10566000000E+00 0.  1.
     999900   -1    0    0    0    0 -0.00000000000E+00 -0.00000000000E+00 -0.74505805969E-08  0.93827000000E+00  0.93827000000E+00 0. -1.
     999902    2    1    2    0    0 -0.59174243488E-02  0.10274564776E-01  0.67650816962E-02  0.10302790322E+01  0.10301885921E+01 0.  0.
     999903    2    3    3    0    0 -0.52697700025E-01 -0.49278562972E-01 -0.11034703990E+00  0.13929630605E+00  0.44961842817E-01 0.  0.
         14    1    1    2    0    0  0.59174243488E-02 -0.10274564776E-01 -0.67650816962E-02  0.13650967827E-01  0.00000000000E+00 0. -1.
     999901    1    3    3    0    0  0.46780275676E-01  0.59553127748E-01  0.11711212159E+00  0.89098272612E+00  0.88000000000E+00 0.  1.
        -11    1    4    4    0    0 -0.14140273977E-01 -0.42104007671E-01 -0.46055591459E-01  0.63984946946E-01  0.51100000000E-03 0. -1.
         11    1    4    4    0    0 -0.38557426048E-01 -0.71745553015E-02 -0.64291448440E-01  0.75311359108E-01  0.51100000000E-03 0.  1.
</event>
<event>
 8    1  0.2123879E+004  0.1043930E+01  0.7957747E-01            NaN
         13   -1    0    0    0    0  0.00000000000E+00  0.00000000000E+00  0.74505805969E-08  0.10566000000E+00  0.10566000000E+00 0.  1.
     999900   -1    0    0    0    0 -0.00000000000E+00 -0.00000000000E+00 -0.74505805969E-08  0.93827000000E+00  0.93827000000E+00 0. -1.
     999902    2    1    2    0    0 -0.15747252156E-02 -0.68792519067E-02  0.14596818034E-01  0.10277167041E+01  0.10275888054E+01 0.  0.
     999903    2    3    3    0    0 -0.94464125188E-01 -0.62452476041E-01 -0.63862034273E-01  0.13761973448E+00  0.45133681284E-01 0.  0.
         14    1    1    2    0    0  0.15747252156E-02  0.68792519067E-02 -0.14596818034E-01  0.16213295871E-01  0.00000000000E+00 0. -1.
     999901    1    3    3    0    0  0.92889399973E-01  0.55573224134E-01  0.78458852307E-01  0.89009696965E+00  0.88000000000E+00 0.  1.
        -11    1    4    4    0    0 -0.64606348538E-01 -0.36021637335E-01 -0.63886178250E-01  0.97740695313E-01  0.51100000000E-03 0.  1.
         11    1    4    4    0    0 -0.29857776650E-01 -0.26430838706E-01  0.24143976948E-04  0.39879039170E-01  0.51100000000E-03 0. -1.
</event>
<event>
 8    1  0.2123879E+004  0.1043930E+01  0.7957747E-01            NaN
         13   -1    0    0    0    0  0.00000000000E+00  0.00000000000E+00  0.74505805969E-08  0.10566000000E+00  0.10566000000E+00 0. -1.
     999900   -1    0    0    0    0 -0.00000000000E+00 -0.00000000000E+00 -0.74505805969E-08  0.93827000000E+00  0.93827000000E+00 0.  1.
     999902    2    1    2    0    0  0.33248059050E-02 -0.10271723968E-01  0.86551199339E-02  0.10300925960E+01  0.10299996518E+01 0.  0.
     999903    2    3    3    0    0  0.30756193304E-01 -0.12416790159E+00  0.41541305654E-01  0.14171974553E+00  0.44667605565E-01 0.  0.
         14    1    1    2    0    0 -0.33248059050E-02  0.10271723968E-01 -0.86551199339E-02  0.13837403970E-01  0.00000000000E+00 0. -1.
     999901    1    3    3    0    0 -0.27431387399E-01  0.11389617762E+00 -0.32886185720E-01  0.88837285050E+00  0.88000000000E+00 0. -1.
        -11    1    4    4    0    0  0.43672213991E-03 -0.70933244579E-01  0.37704232615E-01  0.80334215567E-01  0.51100000000E-03 0. -1.
         11    1    4    4    0    0  0.30319471164E-01 -0.53234657008E-01  0.38370730391E-02  0.61385529964E-01  0.51100000000E-03 0.  1.
</event>
<event>
 8    1  0.2123879E+004  0.1043930E+01  0.7957747E-01            NaN
         13   -1    0    0    0    0  0.00000000000E+00  0.00000000000E+00  0.74505805969E-08  0.10566000000E+00  0.10566000000E+00 0. -1.
     999900   -1    0    0    0    0 -0.00000000000E+00 -0.00000000000E+00 -0.74505805969E-08  0.93827000000E+00  0.93827000000E+00 0. -1.
     999902    2    1    2    0    0  0.96413198057E-02  0.23851629714E-02 -0.70609496780E-02  0.10317438989E+01  0.10316719303E+01 0.  0.
     999903    2    3    3    0    0  0.34821664508E-01 -0.30767832377E-01 -0.12726775517E+00  0.14259664058E+00  0.44469231736E-01 0.  0.
         14    1    1    2    0    0 -0.96413198057E-02 -0.23851629714E-02  0.70609496780E-02  0.12186101114E-01  0.00000000000E+00 0. -1.
     999901    1    3    3    0    0 -0.25180344702E-01  0.33152995349E-01  0.12020680549E+00  0.88914725830E+00  0.88000000000E+00 0.  1.
        -11    1    4    4    0    0  0.15693551457E-01 -0.11346648595E-01 -0.92444785737E-02  0.21465215973E-01  0.51100000000E-03 0.  1.
         11    1    4    4    0    0  0.19128113051E-01 -0.19421183782E-01 -0.11802327660E+00  0.12113142461E+00  0.51100000000E-03 0. -1.
</event>
<event>
 8    1  0.2123879E+004  0.1043930E+01  0.7957747E-01            NaN
         13   -1    0    0    0    0  0.00000000000E+00  0.00000000000E+00  0.74505805969E-08  0.10566000000E+00  0.10566000000E+00 0. -1.
     999900   -1    0    0    0    0 -0.00000000000E+00 -0.00000000000E+00 -0.74505805969E-08  0.93827000000E+00  0.93827000000E+00 0. -1.
     999902    2    1    2    0    0 -0.11824755295E-01  0.19569047045E-02  0.48093545367E-02  0.10310155041E+01  0.10309346174E+01 0.  0.
     999903    2    3    3    0    0  0.12559886780E+00  0.39718156569E-01 -0.10379172131E-01  0.13942038539E+00  0.44471441331E-01 0.  0.
         14    1    1    2    0    0  0.11824755295E-01 -0.19569047045E-02 -0.48093545367E-02  0.12914495920E-01  0.00000000000E+00 0.  1.
     999901    1    3    3    0    0 -0.13742362310E+00 -0.37761251864E-01  0.15188526668E-01  0.89159511869E+00  0.88000000000E+00 0.  1.
        -11    1    4    4    0    0  0.74896909822E-01  0.44957255401E-01 -0.13301126140E-01  0.88362226045E-01  0.51100000000E-03 0. -1.
         11    1    4    4    0    0  0.50701957980E-01 -0.52390988320E-02  0.29219540082E-02  0.51058159346E-01  0.51100000000E-03 0.  1.
</event>
<event>
 8    1  0.2123879E+004  0.1043930E+01  0.7957747E-01            NaN
         13   -1    0    0    0    0  0.00000000000E+00  0.00000000000E+00  0.74505805969E-08  0.10566000000E+00  0.10566000000E+00 0. -1.
     999900   -1    0    0    0    0 -0.00000000000E+00 -0.00000000000E+00 -0.74505805969E-08  0.93827000000E+00  0.93827000000E+00 0.  1.
     999902    2    1    2    0    0  0.50437729515E-02 -0.11205534870E-01  0.65077075327E-02  0.10300248242E+01  0.10299309610E+01 0.  0.
     999903    2    3    3    0    0 -0.12038206604E+00 -0.38045410074E-01  0.40517425148E-01  0.14007612853E+00  0.45170399530E-01 0.  0.
         14    1    1    2    0    0 -0.50437729515E-02  0.11205534870E-01 -0.65077075327E-02  0.13905175822E-01  0.00000000000E+00 0.  1.
     999901    1    3    3    0    0  0.12542583899E+00  0.26839875204E-01 -0.34009717615E-01  0.88994869564E+00  0.88000000000E+00 0.  1.
        -11    1    4    4    0    0 -0.79153598511E-01 -0.34106521005E-01  0.46968736110E-01  0.98157374787E-01  0.51100000000E-03 0.  1.
         11    1    4    4    0    0 -0.41228467525E-01 -0.39388890693E-02 -0.64513109626E-02  0.41918753747E-01  0.51100000000E-03 0. -1.
</event>
<event>
 8    1  0.2123879E+004  0.1043930E+01  0.7957747E-01            NaN
         13   -1    0    0    0    0  0.00000000000E+00  0.00000000000E+00  0.74505805969E-08  0.10566000000E+00  0.10566000000E+00 0.  1.
     999900   -1    0    0    0    0 -0.00000000000E+00 -0.00000000000E+00 -0.74505805969E-08  0.93827000000E+00  0.93827000000E+00 0. -1.
     999902    2    1    2    0    0  0.35658064698E-02 -0.83052926044E-02 -0.10552482370E-01  0.10300358377E+01  0.10299421242E+01 0.  0.
     999903    2    3    3    0    0  0.32349110309E-01  0.56655202265E-01  0.11357864702E+00  0.13848837306E+00  0.44973809399E-01 0.  0.
         14    1    1    2    0    0 -0.35658064698E-02  0.83052926044E-02  0.10552482370E-01  0.13894162270E-01  0.00000000000E+00 0.  1.
     999901    1    3    3    0    0 -0.28783303839E-01 -0.64960494869E-01 -0.12413112939E+00  0.89154746467E+00  0.88000000000E+00 0. -1.
        -11    1    4    4    0    0  0.32538863853E-01  0.21389502527E-01  0.83498867477E-01  0.92133655469E-01  0.51100000000E-03 0. -1.
         11    1    4    4    0    0 -0.18975354416E-03  0.35265699738E-01  0.30079779547E-01  0.46354717592E-01  0.51100000000E-03 0.  1.
</event>
<event>
 8    1  0.2123879E+004  0.1043930E+01  0.7957747E-01            NaN
         13   -1    0    0    0    0  0.00000000000E+00  0.00000000000E+00  0.74505805969E-08  0.10566000000E+00  0.10566000000E+00 0. -1.
     999900   -1    0    0    0    0 -0.00000000000E+00 -0.00000000000E+00 -0.74505805969E-08  0.93827000000E+00  0.93827000000E+00 0. -1.
     999902    2    1    2    0    0 -0.10895620065E-01  0.81371966881E-02  0.77216689207E-02  0.10282918199E+01  0.10281729009E+01 0.  0.
     999903    2    3    3    0    0 -0.43110980062E-01 -0.10233708374E+00 -0.67610303140E-01  0.13760820486E+00  0.45093565416E-01 0.  0.
         14    1    1    2    0    0  0.10895620065E-01 -0.81371966881E-02 -0.77216689207E-02  0.15638180120E-01  0.00000000000E+00 0.  1.
     999901    1    3    3    0    0  0.32215359997E-01  0.11047428043E+00  0.75331972061E-01  0.89068361502E+00  0.88000000000E+00 0.  1.
        -11    1    4    4    0    0 -0.32978797907E-01 -0.47251742902E-01 -0.56106797381E-01  0.80427371908E-01  0.51100000000E-03 0.  1.
         11    1    4    4    0    0 -0.10132182155E-01 -0.55085340843E-01 -0.11503505760E-01  0.57180832949E-01  0.51100000000E-03 0. -1.
</event>
<event>
 8    1  0.2123879E+004  0.1043930E+01  0.7957747E-01            NaN
         13   -1    0    0    0    0  0.00000000000E+00  0.00000000000E+00  0.74505805969E-08  0.10566000000E+00  0.10566000000E+00 0. -1.
     999900   -1    0    0    0    0 -0.00000000000E+00 -0.00000000000E+00 -0.74505805969E-08  0.93827000000E+00  0.93827000000E+00 0. -1.
     999902    2    1    2    0    0 -0.97153351340E-02  0.40891655112E-02 -0.97891887837E-02  0.10295446871E+01  0.10294441828E+01 0.  0.
     999903    2    3    3    0    0 -0.12170478360E+00 -0.50800170436E-01 -0.20794100657E-01  0.14068272711E+00  0.44345500524E-01 0.  0.
         14    1    1    2    0    0  0.97153351340E-02 -0.40891655112E-02  0.97891887837E-02  0.14385312940E-01  0.00000000000E+00 0. -1.
     999901    1    3    3    0    0  0.11198944846E+00  0.54889335947E-01  0.11004911873E-01  0.88886195995E+00  0.88000000000E+00 0.  1.
        -11    1    4    4    0    0 -0.39352126955E-01 -0.38530045755E-01 -0.15668413047E-01  0.57261807605E-01  0.51100000000E-03 0. -1.
         11    1    4    4    0    0 -0.82352656643E-01 -0.12270124681E-01 -0.51256876103E-02  0.83420919501E-01  0.51100000000E-03 0.  1.
</event>
<event>
 8    1  0.2123879E+004  0.1043930E+01  0.7957747E-01            NaN
         13   -1    0    0    0    0  0.00000000000E+00  0.00000000000E+00  0.74505805969E-08  0.10566000000E+00  0.10566000000E+00 0. -1.
     999900   -1    0    0    0    0 -0.00000000000E+00 -0.00000000000E+00 -0.74505805969E-08  0.93827000000E+00  0.93827000000E+00 0.  1.
     999902    2    1    2    0    0 -0.64543645677E-02 -0.96482891631E-02  0.82083548322E-02  0.10297129189E+01  0.10296147678E+01 0.  0.
     999903    2    3    3    0    0  0.20244345811E-01 -0.12194660655E+00 -0.48916270043E-01  0.14033844435E+00  0.44958526450E-01 0.  0.
         14    1    1    2    0    0  0.64543645677E-02  0.96482891631E-02 -0.82083548322E-02  0.14217081093E-01  0.00000000000E+00 0.  1.
     999901    1    3    3    0    0 -0.26698710379E-01  0.11229831739E+00  0.57124624875E-01  0.88937447456E+00  0.88000000000E+00 0. -1.
        -11    1    4    4    0    0 -0.10162364111E-01 -0.40986623607E-01 -0.27889998788E-02  0.42322766927E-01  0.51100000000E-03 0. -1.
         11    1    4    4    0    0  0.30406709922E-01 -0.80959982947E-01 -0.46127270164E-01  0.98015677424E-01  0.51100000000E-03 0.  1.
</event>
<event>
 8    1  0.2123879E+004  0.1043930E+01  0.7957747E-01            NaN
         13   -1    0    0    0    0  0.00000000000E+00  0.00000000000E+00  0.74505805969E-08  0.10566000000E+00  0.10566000000E+00 0. -1.
     999900   -1    0    0    0    0 -0.00000000000E+00 -0.00000000000E+00 -0.74505805969E-08  0.93827000000E+00  0.93827000000E+00 0. -1.
     999902    2    1    2    0    0  0.12200274298E-01 -0.12233861364E-02 -0.59654843773E-02  0.10302943713E+01  0.10302041357E+01 0.  0.
     999903    2    3    3    0    0  0.12442310936E-01  0.10763783888E+00  0.76244418921E-01  0.13978367899E+00  0.44559511166E-01 0.  0.
         14    1    1    2    0    0 -0.12200274298E-01  0.12233861364E-02  0.59654843773E-02  0.13635628715E-01  0.00000000000E+00 0.  1.
     999901    1    3    3    0    0 -0.24203663843E-03 -0.10886122501E+00 -0.82209903299E-01  0.89051069230E+00  0.88000000000E+00 0. -1.
        -11    1    4    4    0    0  0.21391979546E-01  0.51763492653E-01  0.18636089833E-01  0.59030847239E-01  0.51100000000E-03 0. -1.
         11    1    4    4    0    0 -0.89496686096E-02  0.55874346225E-01  0.57608329088E-01  0.80752831750E-01  0.51100000000E-03 0.  1.
</event>
<event>
 8    1  0.2123879E+004  0.1043930E+01  0.7957747E-01            NaN
         13   -1    0    0    0    0  0.00000000000E+00  0.00000000000E+00  0.74505805969E-08  0.10566000000E+00  0.10566000000E+00 0.  1.
     999900   -1    0    0    0    0 -0.00000000000E+00 -0.00000000000E+00 -0.74505805969E-08  0.93827000000E+00  0.93827000000E+00 0.  1.
     999902    2    1    2    0    0 -0.31340384882E-03  0.13072539266E-01 -0.50696043977E-02  0.10299053648E+01  0.10298098708E+01 0.  0.
     999903    2    3    3    0    0 -0.81037172468E-01 -0.68922475369E-01  0.76648302222E-01  0.13866054682E+00  0.45104922993E-01 0.  0.
         14    1    1    2    0    0  0.31340384882E-03 -0.13072539266E-01  0.50696043977E-02  0.14024635239E-01  0.00000000000E+00 0.  1.
     999901    1    3    3    0    0  0.80723768619E-01  0.81995014636E-01 -0.81717906620E-01  0.89124481794E+00  0.88000000000E+00 0.  1.
        -11    1    4    4    0    0 -0.37137066608E-01 -0.36595645241E-01  0.64255348287E-01  0.82749101937E-01  0.51100000000E-03 0. -1.
         11    1    4    4    0    0 -0.43900105860E-01 -0.32326830128E-01  0.12392953935E-01  0.55911444883E-01  0.51100000000E-03 0.  1.
</event>
<event>
 8    1  0.2123879E+004  0.1043930E+01  0.7957747E-01            NaN
         13   -1    0    0    0    0  0.00000000000E+00  0.00000000000E+00  0.74505805969E-08  0.10566000000E+00  0.10566000000E+00 0.  1.
     999900   -1    0    0    0    0 -0.00000000000E+00 -0.00000000000E+00 -0.74505805969E-08  0.93827000000E+00  0.93827000000E+00 0. -1.
     999902    2    1    2    0    0  0.12002856752E-01  0.36094623846E-02  0.46812861359E-02  0.10305504922E+01  0.10304636363E+01 0.  0.
     999903    2    3    3    0    0  0.72403337158E-01 -0.32810220788E-01 -0.10684958337E+00  0.14071132348E+00  0.45432249218E-01 0.  0.
         14    1    1    2    0    0 -0.12002856752E-01 -0.36094623846E-02 -0.46812861359E-02  0.13379507794E-01  0.00000000000E+00 0.  1.
     999901    1    3    3    0    0 -0.60400480407E-01  0.36419683173E-01  0.11153086950E+00  0.88983916873E+00  0.88000000000E+00 0.  1.
        -11    1    4    4    0    0  0.23113721787E-01  0.93947195073E-02 -0.18376309239E-01  0.30991204425E-01  0.51100000000E-03 0. -1.
         11    1    4    4    0    0  0.49289615372E-01 -0.42204940296E-01 -0.88473274126E-01  0.10972011905E+00  0.51100000000E-03 0.  1.
</event>
<event>
 7    1  0.2123879E+004  0.1043930E+01  0.7957747E-01            NaN
         13   -1    0    0    0    0  0.00000000000E+00  0.00000000000E+00  0.74505805969E-08  0.10566000000E+00  0.10566000000E+00 0. -1.
     999900   -1    0    0    0    0 -0.00000000000E+00 -0.00000000000E+00 -0.74505805969E-08  0.93827000000E+00  0.93827000000E+00 0.  1.
     999902    2    1    2    0    0  0.69654175483E-02 -0.75847233173E-02 -0.57444662714E-02  0.10321383096E+01  0.10320709502E+01 0.  0.
         14    1    1    2    0    0 -0.69654175483E-02  0.75847233173E-02  0.57444662714E-02  0.11791690386E-01  0.00000000000E+00 0. -1.
     999901    1    3    3    0    0 -0.12018901918E+00 -0.39479099951E-01 -0.56217562783E-01  0.89082232461E+00  0.88000000000E+00 0. -1.
        -11    1    3    3    0    0  0.83231539825E-01  0.18315535467E-01  0.25308234277E-01  0.88902845311E-01  0.51100000000E-03 0.  1.
         11    1    3    3    0    0  0.43922896904E-01  0.13578841167E-01  0.25164862235E-01  0.52413139690E-01  0.51100000000E-03 0. -1.
</event>
<event>
 8    1  0.2123879E+004  0.1043930E+01  0.7957747E-01            NaN
         13   -1    0    0    0    0  0.00000000000E+00  0.00000000000E+00  0.74505805969E-08  0.10566000000E+00  0.10566000000E+00 0.  1.
     999900   -1    0    0    0    0 -0.00000000000E+00 -0.00000000000E+00 -0.74505805969E-08  0.93827000000E+00  0.93827000000E+00 0. -1.
     999902    2    1    2    0    0 -0.85798947639E-03  0.14278175923E-01  0.60708956211E-02  0.10283910738E+01  0.10282736710E+01 0.  0.
     999903    2    3    3    0    0 -0.12849082993E+00  0.21478211432E-01 -0.12065245605E-01  0.13896940660E+00  0.46858498448E-01 0.  0.
         14    1    1    2    0    0  0.85798947639E-03 -0.14278175923E-01 -0.60708956211E-02  0.15538926195E-01  0.00000000000E+00 0. -1.
     999901    1    3    3    0    0  0.12763284045E+00 -0.72000355086E-02  0.18136141226E-01  0.88942166720E+00  0.88000000000E+00 0. -1.
        -11    1    4    4    0    0 -0.88983113947E-01  0.61535262662E-02 -0.28312739482E-01  0.93582759049E-01  0.51100000000E-03 0. -1.
         11    1    4    4    0    0 -0.39507715984E-01  0.15324685166E-01  0.16247493878E-01  0.45386647552E-01  0.51100000000E-03 0.  1.
</event>
<event>
 8    1  0.2123879E+004  0.1043930E+01  0.7957747E-01            NaN
         13   -1    0    0    0    0  0.00000000000E+00  0.00000000000E+00  0.74505805969E-08  0.10566000000E+00  0.10566000000E+00 0.  1.
     999900   -1    0    0    0    0 -0.00000000000E+00 -0.00000000000E+00 -0.74505805969E-08  0.93827000000E+00  0.93827000000E+00 0. -1.
     999902    2    1    2    0    0 -0.14656752343E-01 -0.98808749181E-03  0.10913172984E-02  0.10291994983E+01  0.10290940772E+01 0.  0.
     999903    2    3    3    0    0  0.75417230612E-01  0.31801927069E-01 -0.10176464009E+00  0.13803853900E+00  0.44715489893E-01 0.  0.
         14    1    1    2    0    0  0.14656752343E-01  0.98808749181E-03 -0.10913172984E-02  0.14730501674E-01  0.00000000000E+00 0. -1.
     999901    1    3    3    0    0 -0.90073982955E-01 -0.32790014560E-01  0.10285595739E+00  0.89116095933E+00  0.88000000000E+00 0.  1.
        -11    1    4    4    0    0  0.17598356147E-01  0.22798259056E-01 -0.58686108669E-01  0.65374178593E-01  0.51100000000E-03 0. -1.
         11    1    4    4    0    0  0.57818874465E-01  0.90036680124E-02 -0.43078531425E-01  0.72664360404E-01  0.51100000000E-03 0.  1.
</event>
<event>
 8    1  0.2123879E+004  0.1043930E+01  0.7957747E-01            NaN
         13   -1    0    0    0    0  0.00000000000E+00  0.00000000000E+00  0.74505805969E-08  0.10566000000E+00  0.10566000000E+00 0. -1.
     999900   -1    0    0    0    0 -0.00000000000E+00 -0.00000000000E+00 -0.74505805969E-08  0.93827000000E+00  0.93827000000E+00 0.  1.
     999902    2    1    2    0    0 -0.91830217080E-02  0.10793634320E-01  0.56073184827E-02  0.10286895128E+01  0.10285766093E+01 0.  0.
     999903    2    3    3    0    0  0.68334531771E-01  0.86365698590E-01  0.73634531043E-01  0.13944949478E+00  0.43537056720E-01 0.  0.
         14    1    1    2    0    0  0.91830217080E-02 -0.10793634320E-01 -0.56073184827E-02  0.15240487200E-01  0.00000000000E+00 0.  1.
     999901    1    3    3    0    0 -0.77517553479E-01 -0.75572064270E-01 -0.68027212560E-01  0.88924001802E+00  0.88000000000E+00 0.  1.
        -11    1    4    4    0    0  0.71115878511E-01  0.77057640588E-01  0.75917748250E-01  0.12945699583E+00  0.51100000000E-03 0.  1.
         11    1    4    4    0    0 -0.27813467406E-02  0.93080580021E-02 -0.22832172073E-02  0.99924989506E-02  0.51100000000E-03 0. -1.
</event>
<event>
 8    1  0.2123879E+004  0.1043930E+01  0.7957747E-01            NaN
         13   -1    0    0    0    0  0.00000000000E+00  0.00000000000E+00  0.74505805969E-08  0.10566000000E+00  0.10566000000E+00 0. -1.
     999900   -1    0    0    0    0 -0.00000000000E+00 -0.00000000000E+00 -0.74505805969E-08  0.93827000000E+00  0.93827000000E+00 0. -1.
     999902    2    1    2    0    0 -0.43362822288E-02  0.26245432927E-02  0.12638907134E-01  0.10303126014E+01  0.10302226085E+01 0.  0.
     999903    2    3    3    0    0  0.43164984252E-01 -0.66291118310E-01  0.10799471759E+00  0.14121279299E+00  0.44949590038E-01 0.  0.
         14    1    1    2    0    0  0.43362822288E-02 -0.26245432927E-02 -0.12638907134E-01  0.13617398599E-01  0.00000000000E+00 0.  1.
     999901    1    3    3    0    0 -0.47501266481E-01  0.68915661603E-01 -0.95355810453E-01  0.88909980841E+00  0.88000000000E+00 0. -1.
        -11    1    4    4    0    0  0.15257542128E-02 -0.46169334711E-03  0.33136509827E-01  0.33178765667E-01  0.51100000000E-03 0. -1.
         11    1    4    4    0    0  0.41639230039E-01 -0.65829424963E-01  0.74858207760E-01  0.10803402732E+00  0.51100000000E-03 0.  1.
</event>
<event>
 8    1  0.2123879E+004  0.1043930E+01  0.7957747E-01            NaN
         13   -1    0    0    0    0  0.00000000000E+00  0.00000000000E+00  0.74505805969E-08  0.10566000000E+00  0.10566000000E+00 0. -1.
     999900   -1    0    0    0    0 -0.00000000000E+00 -0.00000000000E+00 -0.74505805969E-08  0.93827000000E+00  0.93827000000E+00 0.  1.
     999902    2    1    2    0    0  0.75352289649E-02  0.58227244747E-02  0.10370977041E-01  0.10298501932E+01  0.10297539412E+01 0.  0.
     999903    2    3    3    0    0 -0.18745579376E-02  0.94865551523E-01  0.94986200255E-01  0.14126879276E+00  0.43948910517E-01 0.  0.
         14    1    1    2    0    0 -0.75352289649E-02 -0.58227244747E-02 -0.10370977041E-01  0.14079806840E-01  0.00000000000E+00 0.  1.
     999901    1    3    3    0    0  0.94097869025E-02 -0.89042827048E-01 -0.84615223214E-01  0.88858140040E+00  0.88000000000E+00 0.  1.
        -11    1    4    4    0    0  0.16770718329E-01  0.15842874423E-01  0.25599744955E-01  0.34465369953E-01  0.51100000000E-03 0.  1.
         11    1    4    4    0    0 -0.18645276266E-01  0.79022677100E-01  0.69386455300E-01  0.10680342281E+00  0.51100000000E-03 0. -1.
</event>
<event>
 8    1  0.2123879E+004  0.1043930E+01  0.7957747E-01            NaN
         13   -1    0    0    0    0  0.00000000000E+00  0.00000000000E+00  0.74505805969E-08  0.10566000000E+00  0.10566000000E+00 0. -1.
     999900   -1    0    0    0    0 -0.00000000000E+00 -0.00000000000E+00 -0.74505805969E-08  0.93827000000E+00  0.93827000000E+00 0. -1.
     999902    2    1    2    0    0  0.75655985788E-02  0.22259663530E-02 -0.11359033598E-01  0.10301017372E+01  0.10300089165E+01 0.  0.
     999903    2    3    3    0    0  0.88401386837E-01 -0.85071023474E-01 -0.52919095812E-01  0.14112343157E+00  0.45425851738E-01 0.  0.
         14    1    1    2    0    0 -0.75655985788E-02 -0.22259663530E-02  0.11359033598E-01  0.13828262810E-01  0.00000000000E+00 0. -1.
     999901    1    3    3    0    0 -0.80835788259E-01  0.87296989827E-01  0.41560062213E-01  0.88897830562E+00  0.88000000000E+00 0.  1.
        -11    1    4    4    0    0  0.44005511121E-01 -0.38336334913E-01 -0.49570038310E-01  0.76574208469E-01  0.51100000000E-03 0. -1.
         11    1    4    4    0    0  0.44395875716E-01 -0.46734688560E-01 -0.33490575022E-02  0.64549223098E-01  0.51100000000E-03 0.  1.
</event>
<event>
 8    1  0.2123879E+004  0.1043930E+01  0.7957747E-01            NaN
         13   -1    0    0    0    0  0.00000000000E+00  0.00000000000E+00  0.74505805969E-08  0.10566000000E+00  0.10566000000E+00 0.  1.
     999900   -1    0    0    0    0 -0.00000000000E+00 -0.00000000000E+00 -0.74505805969E-08  0.93827000000E+00  0.93827000000E+00 0. -1.
     999902    2    1    2    0    0  0.65163630380E-02  0.10197826904E-03  0.12532164342E-01  0.10298045432E+01  0.10297076617E+01 0.  0.
     999903    2    3    3    0    0 -0.73373207626E-01  0.92548133970E-01 -0.56767908607E-01  0.13866418651E+00  0.45347287397E-01 0.  0.
         14    1    1    2    0    0 -0.65163630380E-02 -0.10197826904E-03 -0.12532164342E-01  0.14125456803E-01  0.00000000000E+00 0. -1.
     999901    1    3    3    0    0  0.79889570664E-01 -0.92446155701E-01  0.69300072948E-01  0.89114035669E+00  0.88000000000E+00 0. -1.
        -11    1    4    4    0    0 -0.43557805682E-01  0.24825233129E-01 -0.36265318248E-01  0.61878987260E-01  0.51100000000E-03 0. -1.
         11    1    4    4    0    0 -0.29815401944E-01  0.67722900841E-01 -0.20502590359E-01  0.76785199250E-01  0.51100000000E-03 0.  1.
</event>
<event>
 8    1  0.2123879E+004  0.1043930E+01  0.7957747E-01            NaN
         13   -1    0    0    0    0  0.00000000000E+00  0.00000000000E+00  0.74505805969E-08  0.10566000000E+00  0.10566000000E+00 0.  1.
     999900   -1    0    0    0    0 -0.00000000000E+00 -0.00000000000E+00 -0.74505805969E-08  0.93827000000E+00  0.93827000000E+00 0. -1.
     999902    2    1    2    0    0 -0.62957320534E-02 -0.12914473537E-01  0.35382912845E-02  0.10291333999E+01  0.10290270237E+01 0.  0.
     999903    2    3    3    0    0 -0.10938603942E+00  0.40030675628E-01  0.62129461419E-01  0.13960334111E+00  0.45401126219E-01 0.  0.
         14    1    1    2    0    0  0.62957320534E-02  0.12914473537E-01 -0.35382912845E-02  0.14796600084E-01  0.00000000000E+00 0. -1.
     999901    1    3    3    0    0  0.10309030737E+00 -0.52945149165E-01 -0.58591170135E-01  0.88953005880E+00  0.88000000000E+00 0. -1.
        -11    1    4    4    0    0 -0.60721199821E-01  0.19172156599E-01  0.58597662884E-01  0.86536598690E-01  0.51100000000E-03 0.  1.
         11    1    4    4    0    0 -0.48664839603E-01  0.20858519029E-01  0.35317985356E-02  0.53066742425E-01  0.51100000000E-03 0. -1.
</event>
<event>
 8    1  0.2123879E+004  0.1043930E+01  0.7957747E-01            NaN
         13   -1    0    0    0    0  0.00000000000E+00  0.00000000000E+00  0.74505805969E-08  0.10566000000E+00  0.10566000000E+00 0.  1.
     999900   -1    0    0    0    0 -0.00000000000E+00 -0.00000000000E+00 -0.74505805969E-08  0.93827000000E+00  0.93827000000E+00 0.  1.
     999902    2    1    2    0    0  0.64084345930E-03 -0.12904980606E-01  0.18515192695E-02  0.10308771333E+01  0.10307944929E+01 0.  0.
     999903    2    3    3    0    0  0.12419083065E+00 -0.25502412199E-01 -0.43424939008E-01  0.14100452880E+00  0.43849930088E-01 0.  0.
         14    1    1    2    0    0 -0.64084345930E-03  0.12904980606E-01 -0.18515192695E-02  0.13052866673E-01  0.00000000000E+00 0. -1.
     999901    1    3    3    0    0 -0.12354998719E+00  0.12597431594E-01  0.45276458277E-01  0.88987260453E+00  0.88000000000E+00 0.  1.
        -11    1    4    4    0    0  0.14070195729E-02  0.14793833134E-02  0.56666091269E-02  0.60448208462E-02  0.51100000000E-03 0.  1.
         11    1    4    4    0    0  0.12278381108E+00 -0.26981795513E-01 -0.49091548135E-01  0.13495970795E+00  0.51100000000E-03 0. -1.
</event>
<event>
 8    1  0.2123879E+004  0.1043930E+01  0.7957747E-01            NaN
         13   -1    0    0    0    0  0.00000000000E+00  0.00000000000E+00  0.74505805969E-08  0.10566000000E+00  0.10566000000E+00 0.  1.
     999900   -1    0    0    0    0 -0.00000000000E+00 -0.00000000000E+00 -0.74505805969E-08  0.93827000000E+00  0.93827000000E+00 0.  1.
     999902    2    1    2    0    0 -0.12689042577E-01 -0.69559708522E-03  0.20009068907E-02  0.10310653475E+01  0.10309850879E+01 0.  0.
     999903    2    3    3    0    0  0.80652246721E-01 -0.10111671337E+00  0.29648622820E-01  0.14002023463E+00  0.44690610287E-01 0.  0.
         14    1    1    2    0    0  0.12689042577E-01  0.69559708522E-03 -0.20009068907E-02  0.12864652549E-01  0.00000000000E+00 0. -1.
     999901    1    3    3    0    0 -0.93341289298E-01  0.10042111628E+00 -0.27647715930E-01  0.89104511282E+00  0.88000000000E+00 0. -1.
        -11    1    4    4    0    0  0.54793289065E-02 -0.16356186628E-02 -0.79301445694E-02  0.97901280670E-02  0.51100000000E-03 0.  1.
         11    1    4    4    0    0  0.75172917814E-01 -0.99481094705E-01  0.37578767390E-01  0.13023010656E+00  0.51100000000E-03 0. -1.
</event>
<event>
 8    1  0.2123879E+004  0.1043930E+01  0.7957747E-01            NaN
         13   -1    0    0    0    0  0.00000000000E+00  0.00000000000E+00  0.74505805969E-08  0.10566000000E+00  0.10566000000E+00 0.  1.
     999900   -1    0    0    0    0 -0.00000000000E+00 -0.00000000000E+00 -0.74505805969E-08  0.93827000000E+00  0.93827000000E+00 0. -1.
     999902    2    1    2    0    0  0.53050226771E-02  0.13136866008E-01 -0.27720654071E-02  0.10294937657E+01  0.10293925436E+01 0.  0.
     999903    2    3    3    0    0  0.67239692841E-01  0.78744584104E-01 -0.84719083222E-01  0.14109318614E+00  0.44811586596E-01 0.  0.
         14    1    1    2    0    0 -0.53050226771E-02 -0.13136866008E-01  0.27720654071E-02  0.14436234299E-01  0.00000000000E+00 0.  1.
     999901    1    3    3    0    0 -0.61934670164E-01 -0.65607718096E-01  0.81947017814E-01  0.88840057956E+00  0.88000000000E+00 0.  1.
        -11    1    4    4    0    0  0.45278037121E-01  0.23415971346E-01 -0.25023094292E-01  0.56787540258E-01  0.51100000000E-03 0.  1.
         11    1    4    4    0    0  0.21961655719E-01  0.55328612758E-01 -0.59695988930E-01  0.84305645878E-01  0.51100000000E-03 0. -1.
</event>
<event>
 8    1  0.2123879E+004  0.1043930E+01  0.7957747E-01            NaN
         13   -1    0    0    0    0  0.00000000000E+00  0.00000000000E+00  0.74505805969E-08  0.10566000000E+00  0.10566000000E+00 0. -1.
     999900   -1    0    0    0    0 -0.00000000000E+00 -0.00000000000E+00 -0.74505805969E-08  0.93827000000E+00  0.93827000000E+00 0.  1.
     999902    2    1    2    0    0  0.17148617380E-02  0.11094425000E-01  0.10217792062E-01  0.10287500695E+01  0.10286380681E+01 0.  0.
     999903    2    3    3    0    0 -0.76313011725E-01  0.69083530302E-01 -0.80837626361E-01  0.13872637617E+00  0.45979078862E-01 0.  0.
         14    1    1    2    0    0 -0.17148617380E-02 -0.11094425000E-01 -0.10217792062E-01  0.15179930549E-01  0.00000000000E+00 0.  1.
     999901    1    3    3    0    0  0.78027873463E-01 -0.57989105303E-01  0.91055418423E-01  0.89002369328E+00  0.88000000000E+00 0. -1.
        -11    1    4    4    0    0 -0.72245863406E-01  0.74691337564E-01 -0.81035419049E-01  0.13177731576E+00  0.51100000000E-03 0.  1.
         11    1    4    4    0    0 -0.40671483192E-02 -0.56078072621E-02  0.19779268780E-03  0.69490604175E-02  0.51100000000E-03 0. -1.
</event>
<event>
 8    1  0.2123879E+004  0.1043930E+01  0.7957747E-01            NaN
         13   -1    0    0    0    0  0.00000000000E+00  0.00000000000E+00  0.74505805969E-08  0.10566000000E+00  0.10566000000E+00 0. -1.
     999900   -1    0    0    0    0 -0.00000000000E+00 -0.00000000000E+00 -0.74505805969E-08  0.93827000000E+00  0.93827000000E+00 0.  1.
     999902    2    1    2    0    0 -0.22462395031E-02 -0.67508137846E-03 -0.14156753102E-01  0.10295802618E+01  0.10294802575E+01 0.  0.
     999903    2    3    3    0    0  0.52102001757E-01  0.23139051549E-01  0.11773730933E+00  0.13777485260E+00  0.43241203789E-01 0.  0.
         14    1    1    2    0    0  0.22462395031E-02  0.67508137846E-03  0.14156753102E-01  0.14349738156E-01  0.00000000000E+00 0. -1.
     999901    1    3    3    0    0 -0.54348241261E-01 -0.23814132927E-01 -0.13189406244E+00  0.89180540925E+00  0.88000000000E+00 0.  1.
        -11    1    4    4    0    0  0.37778433442E-01  0.32627776051E-02  0.10156641233E+00  0.10841518799E+00  0.51100000000E-03 0. -1.
         11    1    4    4    0    0  0.14323568315E-01  0.19876273944E-01  0.16170897001E-01  0.29359664609E-01  0.51100000000E-03 0.  1.
</event>
<event>
 8    1  0.2123879E+004  0.1043930E+01  0.7957747E-01            NaN
         13   -1    0    0    0    0  0.00000000000E+00  0.00000000000E+00  0.74505805969E-08  0.10566000000E+00  0.10566000000E+00 0.  1.
     999900   -1    0    0    0    0 -0.00000000000E+00 -0.00000000000E+00 -0.74505805969E-08  0.93827000000E+00  0.93827000000E+00 0. -1.
     999902    2    1    2    0    0  0.75049035314E-02 -0.11652654554E-01  0.37247068803E-03  0.10300646955E+01  0.10299713735E+01 0.  0.
     999903    2    3    3    0    0  0.49005888934E-01  0.11798079851E+00  0.31796532942E-01  0.13904582046E+00  0.44740079502E-01 0.  0.
         14    1    1    2    0    0 -0.75049035314E-02  0.11652654554E-01 -0.37247068803E-03  0.13865304526E-01  0.00000000000E+00 0.  1.
     999901    1    3    3    0    0 -0.41500985402E-01 -0.12963345306E+00 -0.31424062254E-01  0.89101887501E+00  0.88000000000E+00 0. -1.
        -11    1    4    4    0    0  0.26324601689E-01  0.93675045227E-01  0.39332543938E-01  0.10495384169E+00  0.51100000000E-03 0. -1.
         11    1    4    4    0    0  0.22681287245E-01  0.24305753280E-01 -0.75360109962E-02  0.34091978768E-01  0.51100000000E-03 0.  1.
</event>
<event>
 8    1  0.2123879E+004  0.1043930E+01  0.7957747E-01            NaN
         13   -1    0    0    0    0  0.00000000000E+00  0.00000000000E+00  0.74505805969E-08  0.10566000000E+00  0.10566000000E+00 0. -1.
     999900   -1    0    0    0    0 -0.00000000000E+00 -0.00000000000E+00 -0.74505805969E-08  0.93827000000E+00  0.93827000000E+00 0.  1.
     999902    2    1    2    0    0  0.10974165708E-01 -0.84327651444E-02  0.16582231593E-02  0.10299910781E+01  0.10298967557E+01 0.  0.
     999903    2    3    3    0    0  0.54978559518E-01 -0.12071681865E+00  0.13927520452E-01  0.14168109218E+00  0.47795017994E-01 0.  0.
         14    1    1    2    0    0 -0.10974165708E-01  0.84327651444E-02 -0.16582231593E-02  0.13938921946E-01  0.00000000000E+00 0. -1.
     999901    1    3    3    0    0 -0.44004393810E-01  0.11228405350E+00 -0.12269297292E-01  0.88830998587E+00  0.88000000000E+00 0.  1.
        -11    1    4    4    0    0  0.39428165124E-01 -0.31742899280E-01  0.68163293096E-02  0.51077542286E-01  0.51100000000E-03 0.  1.
         11    1    4    4    0    0  0.15550394395E-01 -0.88973919366E-01  0.71111911421E-02  0.90603549895E-01  0.51100000000E-03 0. -1.
</event>
<event>
 8    1  0.2123879E+004  0.1043930E+01  0.7957747E-01            NaN
         13   -1    0    0    0    0  0.00000000000E+00  0.00000000000E+00  0.74505805969E-08  0.10566000000E+00  0.10566000000E+00 0. -1.
     999900   -1    0    0    0    0 -0.00000000000E+00 -0.00000000000E+00 -0.74505805969E-08  0.93827000000E+00  0.93827000000E+00 0.  1.
     999902    2    1    2    0    0 -0.24503448543E-02 -0.13461021598E-01 -0.56976044810E-02  0.10291088668E+01  0.10290021350E+01 0.  0.
     999903    2    3    3    0    0 -0.88912486443E-01 -0.87335469077E-01  0.45882460715E-01  0.14029300340E+00  0.45210753110E-01 0.  0.
         14    1    1    2    0    0  0.24503448543E-02  0.13461021598E-01  0.56976044810E-02  0.14821133195E-01  0.00000000000E+00 0.  1.
     999901    1    3    3    0    0  0.86462141589E-01  0.73874447479E-01 -0.51580065196E-01  0.88881586341E+00  0.88000000000E+00 0.  1.
        -11    1    4    4    0    0 -0.71678187711E-01 -0.41739551831E-01  0.21006683650E-01  0.85565732975E-01  0.51100000000E-03 0. -1.
         11    1    4    4    0    0 -0.17234298731E-01 -0.45595917247E-01  0.24875777065E-01  0.54727270423E-01  0.51100000000E-03 0.  1.
</event>
<event>
 8    1  0.2123879E+004  0.1043930E+01  0.7957747E-01            NaN
         13   -1    0    0    0    0  0.00000000000E+00  0.00000000000E+00  0.74505805969E-08  0.10566000000E+00  0.10566000000E+00 0. -1.
     999900   -1    0    0    0    0 -0.00000000000E+00 -0.00000000000E+00 -0.74505805969E-08  0.93827000000E+00  0.93827000000E+00 0.  1.
     999902    2    1    2    0    0  0.29241106606E-02 -0.10453582512E-01  0.18481265488E-03  0.10330735749E+01  0.10330165290E+01 0.  0.
     999903    2    3    3    0    0  0.15259042020E-01  0.74548462128E-01  0.11232870685E+00  0.14180832193E+00  0.41249851112E-01 0.  0.
         14    1    1    2    0    0 -0.29241106606E-02  0.10453582512E-01 -0.18481265488E-03  0.10856425112E-01  0.00000000000E+00 0.  1.
     999901    1    3    3    0    0 -0.12334931359E-01 -0.85002044640E-01 -0.11214389420E+00  0.89126525296E+00  0.88000000000E+00 0.  1.
        -11    1    4    4    0    0 -0.12113139760E-01  0.19326330261E-01  0.45478496200E-01  0.50880152652E-01  0.51100000000E-03 0.  1.
         11    1    4    4    0    0  0.27372181780E-01  0.55222131866E-01  0.66850210651E-01  0.90928169279E-01  0.51100000000E-03 0. -1.
</event>
<event>
 8    1  0.2123879E+004  0.1043930E+01  0.7957747E-01            NaN
         13   -1    0    0    0    0  0.00000000000E+00  0.00000000000E+00  0.74505805969E-08  0.10566000000E+00  0.10566000000E+00 0. -1.
     999900   -1    0    0    0    0 -0.00000000000E+00 -0.00000000000E+00 -0.74505805969E-08  0.93827000000E+00  0.93827000000E+00 0. -1.
     999902    2    1    2    0    0  0.13067084953E-02  0.17032208967E-02 -0.13875693518E-01  0.10298892265E+01  0.10297935112E+01 0.  0.
     999903    2    3    3    0    0 -0.60992140809E-01  0.68670354312E-01 -0.96036785693E-01  0.14134199165E+00  0.48154289476E-01 0.  0.
         14    1    1    2    0    0 -0.13067084953E-02 -0.17032208967E-02  0.13875693518E-01  0.14040773452E-01  0.00000000000E+00 0. -1.
     999901    1    3    3    0    0  0.62298849304E-01 -0.66967133415E-01  0.82161092175E-01  0.88854723490E+00  0.88000000000E+00 0.  1.
        -11    1    4    4    0    0 -0.24389658760E-01  0.48700617962E-01 -0.27254863296E-01  0.60907260146E-01  0.51100000000E-03 0.  1.
         11    1    4    4    0    0 -0.36602482049E-01  0.19969736350E-01 -0.68781922397E-01  0.80434731501E-01  0.51100000000E-03 0. -1.
</event>
<event>
 8    1  0.2123879E+004  0.1043930E+01  0.7957747E-01            NaN
         13   -1    0    0    0    0  0.00000000000E+00  0.00000000000E+00  0.74505805969E-08  0.10566000000E+00  0.10566000000E+00 0.  1.
     999900   -1    0    0    0    0 -0.00000000000E+00 -0.00000000000E+00 -0.74505805969E-08  0.93827000000E+00  0.93827000000E+00 0.  1.
     999902    2    1    2    0    0  0.74821494350E-02  0.10935278668E-01 -0.46671794013E-02  0.10298820306E+01  0.10297862164E+01 0.  0.
     999903    2    3    3    0    0  0.22208127396E-02  0.13042023255E+00  0.30575977480E-01  0.14109273278E+00  0.44248161307E-01 0.  0.
         14    1    1    2    0    0 -0.74821494350E-02 -0.10935278668E-01  0.46671794013E-02  0.14047969365E-01  0.00000000000E+00 0.  1.
     999901    1    3    3    0    0  0.52613366954E-02 -0.11948495388E+00 -0.35243156882E-01  0.88878929785E+00  0.88000000000E+00 0. -1.
        -11    1    4    4    0    0  0.21751328519E-01  0.71113067369E-01  0.84468613811E-02  0.74845168389E-01  0.51100000000E-03 0. -1.
         11    1    4    4    0    0 -0.19530515780E-01  0.59307165177E-01  0.22129116099E-01  0.66247564395E-01  0.51100000000E-03 0.  1.
</event>
<event>
 8    1  0.2123879E+004  0.1043930E+01  0.7957747E-01            NaN
         13   -1    0    0    0    0  0.00000000000E+00  0.00000000000E+00  0.74505805969E-08  0.10566000000E+00  0.10566000000E+00 0.  1.
     999900   -1    0    0    0    0 -0.00000000000E+00 -0.00000000000E+00 -0.74505805969E-08  0.93827000000E+00  0.93827000000E+00 0.  1.
     999902    2    1    2    0    0  0.47641097308E-02  0.11111341540E-01 -0.62680921376E-02  0.10303120842E+01  0.10302220844E+01 0.  0.
     999903    2    3    3    0    0  0.11712039003E+00 -0.58004018988E-01 -0.22157573321E-01  0.14033829670E+00  0.46067640339E-01 0.  0.
         14    1    1    2    0    0 -0.47641097308E-02 -0.11111341540E-01  0.62680921376E-02  0.13617915824E-01  0.00000000000E+00 0. -1.
     999901    1    3    3    0    0 -0.11235628029E+00  0.69115360529E-01  0.15889481184E-01  0.88997378748E+00  0.88000000000E+00 0.  1.
        -11    1    4    4    0    0  0.34095069115E-01  0.48307912548E-02 -0.64095320557E-02  0.35030750838E-01  0.51100000000E-03 0. -1.
         11    1    4    4    0    0  0.83025320910E-01 -0.62834810243E-01 -0.15748041266E-01  0.10530754586E+00  0.51100000000E-03 0.  1.
</event>
<event>
 8    1  0.2123879E+004  0.1043930E+01  0.7957747E-01            NaN
         13   -1    0    0    0    0  0.00000000000E+00  0.00000000000E+00  0.74505805969E-08  0.10566000000E+00  0.10566000000E+00 0.  1.
     999900   -1    0    0    0    0 -0.00000000000E+00 -0.00000000000E+00 -0.74505805969E-08  0.93827000000E+00  0.93827000000E+00 0.  1.
     999902    2    1    2    0    0 -0.78134047216E-02 -0.99888224911E-02 -0.51466448668E-02  0.10302437360E+01  0.10301528245E+01 0.  0.
     999903    2    3    3    0    0 -0.12428009667E+00 -0.35346619478E-01  0.45375678731E-01  0.14077197516E+00  0.32601699866E-01 0.  0.
         14    1    1    2    0    0  0.78134047216E-02  0.99888224911E-02  0.51466448668E-02  0.13686263971E-01  0.00000000000E+00 0. -1.
     999901    1    3    3    0    0  0.11646669195E+00  0.25357796987E-01 -0.50522323598E-01  0.88947176087E+00  0.88000000000E+00 0.  1.
        -11    1    4    4    0    0 -0.54256272305E-01 -0.27947662430E-01  0.32643361312E-01  0.69214630523E-01  0.51100000000E-03 0. -1.
         11    1    4    4    0    0 -0.70023824362E-01 -0.73989570483E-02  0.12732317419E-01  0.71557344637E-01  0.51100000000E-03 0.  1.
</event>
<event>
 8    1  0.2123879E+004  0.1043930E+01  0.7957747E-01            NaN
         13   -1    0    0    0    0  0.00000000000E+00  0.00000000000E+00  0.74505805969E-08  0.10566000000E+00  0.10566000000E+00 0. -1.
     999900   -1    0    0    0    0 -0.00000000000E+00 -0.00000000000E+00 -0.74505805969E-08  0.93827000000E+00  0.93827000000E+00 0.  1.
     999902    2    1    2    0    0 -0.34613282325E-03  0.12034013672E-01 -0.69237630899E-02  0.10300420272E+01  0.10299483977E+01 0.  0.
     999903    2    3    3    0    0 -0.96097747898E-01  0.92468294870E-01  0.96053851682E-02  0.14104750634E+00  0.44910721598E-01 0.  0.
         14    1    1    2    0    0  0.34613282325E-03 -0.12034013672E-01  0.69237630899E-02  0.13887972793E-01  0.00000000000E+00 0.  1.
     999901    1    3    3    0    0  0.95751615075E-01 -0.80434281198E-01 -0.16529148258E-01  0.88899452086E+00  0.88000000000E+00 0. -1.
        -11    1    4    4    0    0 -0.14232908667E-01  0.31293712447E-01  0.17434694215E-01  0.38549991067E-01  0.51100000000E-03 0. -1.
         11    1    4    4    0    0 -0.81864839231E-01  0.61174582423E-01 -0.78293090472E-02  0.10249751528E+00  0.51100000000E-03 0.  1.
</event>
<event>
 8    1  0.2123879E+004  0.1043930E+01  0.7957747E-01            NaN
         13   -1    0    0    0    0  0.00000000000E+00  0.00000000000E+00  0.74505805969E-08  0.10566000000E+00  0.10566000000E+00 0. -1.
     999900   -1    0    0    0    0 -0.00000000000E+00 -0.00000000000E+00 -0.74505805969E-08  0.93827000000E+00  0.93827000000E+00 0.  1.
     999902    2    1    2    0    0  0.72188270364E-03 -0.82296614305E-02 -0.11049118370E-01  0.10301339332E+01  0.10300415472E+01 0.  0.
     999903    2    3    3    0    0 -0.12501447016E+00 -0.37423688072E-01 -0.27397123321E-01  0.14056708419E+00  0.44489915865E-01 0.  0.
         14    1    1    2    0    0 -0.72188270364E-03  0.82296614305E-02  0.11049118370E-01  0.13796066782E-01  0.00000000000E+00 0. -1.
     999901    1    3    3    0    0  0.12573635286E+00  0.29194026642E-01  0.16348004951E-01  0.88956684903E+00  0.88000000000E+00 0.  1.
        -11    1    4    4    0    0 -0.20995659122E-01 -0.12910424297E-01  0.11018224641E-01  0.27002947112E-01  0.51100000000E-03 0. -1.
         11    1    4    4    0    0 -0.10401881104E+00 -0.24513263775E-01 -0.38415347962E-01  0.11356413708E+00  0.51100000000E-03 0.  1.
</event>
<event>
 8    1  0.2123879E+004  0.1043930E+01  0.7957747E-01            NaN
         13   -1    0    0    0    0  0.00000000000E+00  0.00000000000E+00  0.74505805969E-08  0.10566000000E+00  0.10566000000E+00 0.  1.
     999900   -1    0    0    0    0 -0.00000000000E+00 -0.00000000000E+00 -0.74505805969E-08  0.93827000000E+00  0.93827000000E+00 0.  1.
     999902    2    1    2    0    0 -0.69776874627E-02 -0.10850546701E-01 -0.29583015745E-03  0.10310261246E+01  0.10309453717E+01 0.  0.
     999903    2    3    3    0    0  0.72713513801E-01 -0.50880669274E-01  0.10133026725E+00  0.14069980126E+00  0.40651118312E-01 0.  0.
         14    1    1    2    0    0  0.69776874627E-02  0.10850546701E-01  0.29583015745E-03  0.12903875446E-01  0.00000000000E+00 0. -1.
     999901    1    3    3    0    0 -0.79691201264E-01  0.40030122572E-01 -0.10162609740E+00  0.89032632329E+00  0.88000000000E+00 0. -1.
        -11    1    4    4    0    0  0.53698339395E-01 -0.20518994568E-01  0.81544440539E-01  0.99771226793E-01  0.51100000000E-03 0.  1.
         11    1    4    4    0    0  0.19015174407E-01 -0.30361674706E-01  0.19785826707E-01  0.40928574470E-01  0.51100000000E-03 0. -1.
</event>
<event>
 8    1  0.2123879E+004  0.1043930E+01  0.7957747E-01            NaN
         13   -1    0    0    0    0  0.00000000000E+00  0.00000000000E+00  0.74505805969E-08  0.10566000000E+00  0.10566000000E+00 0.  1.
     999900   -1    0    0    0    0 -0.00000000000E+00 -0.00000000000E+00 -0.74505805969E-08  0.93827000000E+00  0.93827000000E+00 0.  1.
     999902    2    1    2    0    0 -0.12085072226E-01 -0.56859475125E-02  0.50691055157E-02  0.10296445248E+01  0.10295454204E+01 0.  0.
     999903    2    3    3    0    0  0.11189347346E+00 -0.68445471845E-01  0.51225646645E-02  0.13874080359E+00  0.44920350549E-01 0.  0.
         14    1    1    2    0    0  0.12085072226E-01  0.56859475125E-02 -0.50691055157E-02  0.14285475160E-01  0.00000000000E+00 0. -1.
     999901    1    3    3    0    0 -0.12397854568E+00  0.62759524332E-01 -0.53459148723E-04  0.89090372125E+00  0.88000000000E+00 0.  1.
        -11    1    4    4    0    0  0.38986905890E-01 -0.29339503371E-01  0.23238077356E-01  0.54046782042E-01  0.51100000000E-03 0.  1.
         11    1    4    4    0    0  0.72906567565E-01 -0.39105968474E-01 -0.18115512691E-01  0.84694021545E-01  0.51100000000E-03 0. -1.
</event>
<event>
 8    1  0.2123879E+004  0.1043930E+01  0.7957747E-01            NaN
         13   -1    0    0    0    0  0.00000000000E+00  0.00000000000E+00  0.74505805969E-08  0.10566000000E+00  0.10566000000E+00 0. -1.
     999900   -1    0    0    0    0 -0.00000000000E+00 -0.00000000000E+00 -0.74505805969E-08  0.93827000000E+00  0.93827000000E+00 0. -1.
     999902    2    1    2    0    0 -0.13060725766E-01 -0.34759472515E-02  0.83870716778E-02  0.10280237830E+01  0.10279007203E+01 0.  0.
     999903    2    3    3    0    0 -0.73487247555E-01 -0.95369943443E-01  0.54922117277E-01  0.13995769228E+00  0.45562210194E-01 0.  0.
         14    1    1    2    0    0  0.13060725766E-01  0.34759472515E-02 -0.83870716778E-02  0.15906216965E-01  0.00000000000E+00 0.  1.
     999901    1    3    3    0    0  0.60426521790E-01  0.91893996191E-01 -0.46535045599E-01  0.88806609075E+00  0.88000000000E+00 0.  1.
        -11    1    4    4    0    0 -0.21989786720E-01 -0.28330386340E-01 -0.51718551183E-02  0.36237697450E-01  0.51100000000E-03 0.  1.
         11    1    4    4    0    0 -0.51497460836E-01 -0.67039557103E-01  0.60093972395E-01  0.10371999483E+00  0.51100000000E-03 0. -1.
</event>
<event>
 8    1  0.2123879E+004  0.1043930E+01  0.7957747E-01            NaN
         13   -1    0    0    0    0  0.00000000000E+00  0.00000000000E+00  0.74505805969E-08  0.10566000000E+00  0.10566000000E+00 0.  1.
     999900   -1    0    0    0    0 -0.00000000000E+00 -0.00000000000E+00 -0.74505805969E-08  0.93827000000E+00  0.93827000000E+00 0. -1.
     999902    2    1    2    0    0 -0.67858092794E-02  0.11265787466E-01 -0.42475284886E-02  0.10301094836E+01  0.10300167676E+01 0.  0.
     999903    2    3    3    0    0 -0.12983752873E+00  0.29071930390E-01  0.14546362536E-01  0.14117079354E+00  0.44884688727E-01 0.  0.
         14    1    1    2    0    0  0.67858092794E-02 -0.11265787466E-01  0.42475284886E-02  0.13820516382E-01  0.00000000000E+00 0. -1.
     999901    1    3    3    0    0  0.12305171945E+00 -0.17806142923E-01 -0.18793891025E-01  0.88893869008E+00  0.88000000000E+00 0. -1.
        -11    1    4    4    0    0 -0.95761461760E-01  0.17739951301E-01  0.30237554176E-01  0.10197810664E+00  0.51100000000E-03 0.  1.
         11    1    4    4    0    0 -0.34076066966E-01  0.11331979088E-01 -0.15691191640E-01  0.39192686895E-01  0.51100000000E-03 0. -1.
</event>
<event>
 8    1  0.2123879E+004  0.1043930E+01  0.7957747E-01            NaN
         13   -1    0    0    0    0  0.00000000000E+00  0.00000000000E+00  0.74505805969E-08  0.10566000000E+00  0.10566000000E+00 0. -1.
     999900   -1    0    0    0    0 -0.00000000000E+00 -0.00000000000E+00 -0.74505805969E-08  0.93827000000E+00  0.93827000000E+00 0. -1.
     999902    2    1    2    0    0 -0.10813876861E-01  0.61552576041E-02 -0.69184441896E-02  0.10296930060E+01  0.10295945778E+01 0.  0.
     999903    2    3    3    0    0 -0.12663361479E+00 -0.69274876430E-02 -0.42579354844E-01  0.14129159306E+00  0.45456026347E-01 0.  0.
         14    1    1    2    0    0  0.10813876861E-01 -0.61552576041E-02  0.69184441896E-02  0.14236994027E-01  0.00000000000E+00 0. -1.
     999901    1    3    3    0    0  0.11581973793E+00  0.13082745247E-01  0.35660910654E-01  0.88840141291E+00  0.88000000000E+00 0. -1.
        -11    1    4    4    0    0 -0.12240055601E+00 -0.28968942837E-02 -0.28029634270E-01  0.12560338222E+00  0.51100000000E-03 0. -1.
         11    1    4    4    0    0 -0.42330587785E-02 -0.40305933592E-02 -0.14549720574E-01  0.15688210836E-01  0.51100000000E-03 0.  1.
</event>
<event>
 8    1  0.2123879E+004  0.1043930E+01  0.7957747E-01            NaN
         13   -1    0    0    0    0  0.00000000000E+00  0.00000000000E+00  0.74505805969E-08  0.10566000000E+00  0.10566000000E+00 0.  1.
     999900   -1    0    0    0    0 -0.00000000000E+00 -0.00000000000E+00 -0.74505805969E-08  0.93827000000E+00  0.93827000000E+00 0. -1.
     999902    2    1    2    0    0 -0.10112877640E-01  0.38912714505E-02  0.57606642579E-03  0.10330790028E+01  0.10330220142E+01 0.  0.
     999903    2    3    3    0    0  0.11511653638E+00 -0.14825830864E-01 -0.67038355741E-01  0.14144878453E+00  0.45188442055E-01 0.  0.
         14    1    1    2    0    0  0.10112877640E-01 -0.38912714505E-02 -0.57606642579E-03  0.10850997198E-01  0.00000000000E+00 0. -1.
     999901    1    3    3    0    0 -0.12522941402E+00  0.18717102315E-01  0.67614422166E-01  0.89163021827E+00  0.88000000000E+00 0.  1.
        -11    1    4    4    0    0  0.46269951167E-01 -0.28344762082E-01 -0.26086114781E-01  0.60208640774E-01  0.51100000000E-03 0.  1.
         11    1    4    4    0    0  0.68846585212E-01  0.13518931217E-01 -0.40952240960E-01  0.81240143754E-01  0.51100000000E-03 0. -1.
</event>
<event>
 8    1  0.2123879E+004  0.1043930E+01  0.7957747E-01            NaN
         13   -1    0    0    0    0  0.00000000000E+00  0.00000000000E+00  0.74505805969E-08  0.10566000000E+00  0.10566000000E+00 0. -1.
     999900   -1    0    0    0    0 -0.00000000000E+00 -0.00000000000E+00 -0.74505805969E-08  0.93827000000E+00  0.93827000000E+00 0.  1.
     999902    2    1    2    0    0 -0.13156733069E-01  0.33100011414E-02  0.47845663633E-02  0.10295443193E+01  0.10294438099E+01 0.  0.
     999903    2    3    3    0    0  0.86358789807E-01  0.93955896352E-01  0.31336378332E-01  0.13891251196E+00  0.45046268827E-01 0.  0.
         14    1    1    2    0    0  0.13156733069E-01 -0.33100011414E-02 -0.47845663633E-02  0.14385680654E-01  0.00000000000E+00 0.  1.
     999901    1    3    3    0    0 -0.99515522876E-01 -0.90645895211E-01 -0.26551811969E-01  0.89063180739E+00  0.88000000000E+00 0.  1.
        -11    1    4    4    0    0  0.17442711555E-01  0.10705987537E-01  0.22586054127E-01  0.30483722174E-01  0.51100000000E-03 0. -1.
         11    1    4    4    0    0  0.68916078252E-01  0.83249908815E-01  0.87503242046E-02  0.10842878978E+00  0.51100000000E-03 0.  1.
</event>
<event>
 8    1  0.2123879E+004  0.1043930E+01  0.7957747E-01            NaN
         13   -1    0    0    0    0  0.00000000000E+00  0.00000000000E+00  0.74505805969E-08  0.10566000000E+00  0.10566000000E+00 0. -1.
     999900   -1    0    0    0    0 -0.00000000000E+00 -0.00000000000E+00 -0.74505805969E-08  0.93827000000E+00  0.93827000000E+00 0. -1.
     999902    2    1    2    0    0  0.76949894818E-02  0.10963844619E-01  0.22150595554E-02  0.10303533568E+01  0.10302639053E+01 0.  0.
     999903    2    3    3    0    0 -0.32384315974E-01 -0.12473683217E+00  0.24010255159E-01  0.13878392318E+00  0.45568231904E-01 0.  0.
         14    1    1    2    0    0 -0.76949894818E-02 -0.10963844619E-01 -0.22150595554E-02  0.13576643207E-01  0.00000000000E+00 0.  1.
     999901    1    3    3    0    0  0.40079305456E-01  0.13570067679E+00 -0.21795195603E-01  0.89156943362E+00  0.88000000000E+00 0. -1.
        -11    1    4    4    0    0 -0.23570396000E-01 -0.91868392836E-01 -0.36682178967E-02  0.94916184676E-01  0.51100000000E-03 0. -1.
         11    1    4    4    0    0 -0.88139199738E-02 -0.32868439333E-01  0.27678473055E-01  0.43867738501E-01  0.51100000000E-03 0.  1.
</event>
<event>
 8    1  0.2123879E+004  0.1043930E+01  0.7957747E-01            NaN
         13   -1    0    0    0    0  0.00000000000E+00  0.00000000000E+00  0.74505805969E-08  0.10566000000E+00  0.10566000000E+00 0.  1.
     999900   -1    0    0    0    0 -0.00000000000E+00 -0.00000000000E+00 -0.74505805969E-08  0.93827000000E+00  0.93827000000E+00 0. -1.
     999902    2    1    2    0    0  0.11020344864E-01  0.51228766246E-02  0.70296003725E-02  0.10298905147E+01  0.10297948170E+01 0.  0.
     999903    2    3    3    0    0 -0.97672545635E-01  0.46953695828E-01 -0.74278191223E-01  0.13850119525E+00  0.43826426621E-01 0.  0.
         14    1    1    2    0    0 -0.11020344864E-01 -0.51228766246E-02 -0.70296003725E-02  0.14039485290E-01  0.00000000000E+00 0.  1.
     999901    1    3    3    0    0  0.10869289050E+00 -0.41830819203E-01  0.81307791595E-01  0.89138931946E+00  0.88000000000E+00 0.  1.
        -11    1    4    4    0    0 -0.72925543951E-01  0.51479947414E-01 -0.68914480172E-01  0.11277316456E+00  0.51100000000E-03 0.  1.
         11    1    4    4    0    0 -0.24747001684E-01 -0.45262515859E-02 -0.53637110512E-02  0.25728030687E-01  0.51100000000E-03 0. -1.
</event>
<event>
 8    1  0.2123879E+004  0.1043930E+01  0.7957747E-01            NaN
         13   -1    0    0    0    0  0.00000000000E+00  0.00000000000E+00  0.74505805969E-08  0.10566000000E+00  0.10566000000E+00 0.  1.
     999900   -1    0    0    0    0 -0.00000000000E+00 -0.00000000000E+00 -0.74505805969E-08  0.93827000000E+00  0.93827000000E+00 0.  1.
     999902    2    1    2    0    0  0.12674284167E-01 -0.63887295914E-02 -0.21059145268E-02  0.10295811944E+01  0.10294812032E+01 0.  0.
     999903    2    3    3    0    0 -0.46056784474E-01 -0.12340248831E+00  0.11131462013E-01  0.13979650909E+00  0.45494538025E-01 0.  0.
         14    1    1    2    0    0 -0.12674284167E-01  0.63887295914E-02  0.21059145268E-02  0.14348805557E-01  0.00000000000E+00 0.  1.
     999901    1    3    3    0    0  0.58731068640E-01  0.11701375872E+00 -0.13237376540E-01  0.88978468535E+00  0.88000000000E+00 0.  1.
        -11    1    4    4    0    0 -0.13099395075E-01 -0.45693159656E-01  0.25852444459E-01  0.54111634573E-01  0.51100000000E-03 0. -1.
         11    1    4    4    0    0 -0.32957389399E-01 -0.77709328652E-01 -0.14720982446E-01  0.85684874516E-01  0.51100000000E-03 0.  1.
</event>
<event>
 8    1  0.2123879E+004  0.1043930E+01  0.7957747E-01            NaN
         13   -1    0    0    0    0  0.00000000000E+00  0.00000000000E+00  0.74505805969E-08  0.10566000000E+00  0.10566000000E+00 0.  1.
     999900   -1    0    0    0    0 -0.00000000000E+00 -0.00000000000E+00 -0.74505805969E-08  0.93827000000E+00  0.93827000000E+00 0.  1.
     999902    2    1    2    0    0  0.31147998138E-02  0.11288779848E-01  0.67489699899E-03  0.10321999525E+01  0.10321332995E+01 0.  0.
     999903    2    3    3    0    0 -0.13368586637E+00  0.81188080962E-02 -0.91855023089E-02  0.14157000776E+00  0.44942938627E-01 0.  0.
         14    1    1    2    0    0 -0.31147998138E-02 -0.11288779848E-01 -0.67489699899E-03  0.11730047498E-01  0.00000000000E+00 0. -1.
     999901    1    3    3    0    0  0.13680066619E+00  0.31699717517E-02  0.98603993079E-02  0.89062994474E+00  0.88000000000E+00 0. -1.
        -11    1    4    4    0    0 -0.10464828421E+00  0.17193841891E-01  0.84723782685E-02  0.10639047844E+00  0.51100000000E-03 0. -1.
         11    1    4    4    0    0 -0.29037582164E-01 -0.90750337946E-02 -0.17657880577E-01  0.35179529329E-01  0.51100000000E-03 0.  1.
</event>
<event>
 8    1  0.2123879E+004  0.1043930E+01  0.7957747E-01            NaN
         13   -1    0    0    0    0  0.00000000000E+00  0.00000000000E+00  0.74505805969E-08  0.10566000000E+00  0.10566000000E+00 0.  1.
     999900   -1    0    0    0    0 -0.00000000000E+00 -0.00000000000E+00 -0.74505805969E-08  0.93827000000E+00  0.93827000000E+00 0.  1.
     999902    2    1    2    0    0  0.86569275570E-02  0.81903001066E-02  0.62153056025E-02  0.10304892621E+01  0.10304016042E+01 0.  0.
     999903    2    3    3    0    0 -0.34157413248E-01  0.12125680239E+00  0.43979774958E-01  0.14142050391E+00  0.46857201316E-01 0.  0.
         14    1    1    2    0    0 -0.86569275570E-02 -0.81903001066E-02 -0.62153056025E-02  0.13440737863E-01  0.00000000000E+00 0. -1.
     999901    1    3    3    0    0  0.42814340805E-01 -0.11306650228E+00 -0.37764469355E-01  0.88906875823E+00  0.88000000000E+00 0. -1.
        -11    1    4    4    0    0 -0.22491935685E-01  0.25328867145E-01  0.26962691399E-01  0.43297650400E-01  0.51100000000E-03 0.  1.
         11    1    4    4    0    0 -0.11665477563E-01  0.95927935241E-01  0.17017083559E-01  0.98122853507E-01  0.51100000000E-03 0. -1.
</event>
<event>
 8    1  0.2123879E+004  0.1043930E+01  0.7957747E-01            NaN
         13   -1    0    0    0    0  0.00000000000E+00  0.00000000000E+00  0.74505805969E-08  0.10566000000E+00  0.10566000000E+00 0.  1.
     999900   -1    0    0    0    0 -0.00000000000E+00 -0.00000000000E+00 -0.74505805969E-08  0.93827000000E+00  0.93827000000E+00 0. -1.
     999902    2    1    2    0    0 -0.12952978217E-02  0.20535008721E-02  0.13408517752E-01  0.10303034447E+01  0.10302133299E+01 0.  0.
     999903    2    3    3    0    0 -0.57396830534E-01  0.11996958056E+00 -0.33903036796E-02  0.14050920764E+00  0.45213348226E-01 0.  0.
         14    1    1    2    0    0  0.12952978217E-02 -0.20535008721E-02 -0.13408517752E-01  0.13626555346E-01  0.00000000000E+00 0. -1.
     999901    1    3    3    0    0  0.56101532712E-01 -0.11791607969E+00  0.16798821432E-01  0.88979423701E+00  0.88000000000E+00 0. -1.
        -11    1    4    4    0    0 -0.13012283771E-01  0.56622016452E-01 -0.19904332471E-01  0.61415110910E-01  0.51100000000E-03 0. -1.
         11    1    4    4    0    0 -0.44384546763E-01  0.63347564107E-01  0.16514028791E-01  0.79094096730E-01  0.51100000000E-03 0.  1.
</event>
<event>
 8    1  0.2123879E+004  0.1043930E+01  0.7957747E-01            NaN
         13   -1    0    0    0    0  0.00000000000E+00  0.00000000000E+00  0.74505805969E-08  0.10566000000E+00  0.10566000000E+00 0. -1.
     999900   -1    0    0    0    0 -0.00000000000E+00 -0.00000000000E+00 -0.74505805969E-08  0.93827000000E+00  0.93827000000E+00 0. -1.
     999902    2    1    2    0    0 -0.56236664543E-02 -0.16221362009E-02 -0.12427971544E-01  0.10301927722E+01  0.10301011778E+01 0.  0.
     999903    2    3    3    0    0 -0.88812114678E-02 -0.10890047909E+00  0.74009009604E-01  0.13946800769E+00  0.45119855953E-01 0.  0.
         14    1    1    2    0    0  0.56236664543E-02  0.16221362009E-02  0.12427971544E-01  0.13737227775E-01  0.00000000000E+00 0. -1.
     999901    1    3    3    0    0  0.32575450135E-02  0.10727834289E+00 -0.86436981147E-01  0.89072476454E+00  0.88000000000E+00 0. -1.
        -11    1    4    4    0    0 -0.14287410104E-01 -0.10324558040E-01  0.30728017374E-02  0.17900553559E-01  0.51100000000E-03 0. -1.
         11    1    4    4    0    0  0.54061986364E-02 -0.98575921054E-01  0.70936207866E-01  0.12156745413E+00  0.51100000000E-03 0.  1.
</event>
<event>
 8    1  0.2123879E+004  0.1043930E+01  0.7957747E-01            NaN
         13   -1    0    0    0    0  0.00000000000E+00  0.00000000000E+00  0.74505805969E-08  0.10566000000E+00  0.10566000000E+00 0.  1.
     999900   -1    0    0    0    0 -0.00000000000E+00 -0.00000000000E+00 -0.74505805969E-08  0.93827000000E+00  0.93827000000E+00 0. -1.
     999902    2    1    2    0    0 -0.85971073537E-03 -0.78547997639E-02  0.11002067436E-01  0.10303844299E+01  0.10302953901E+01 0.  0.
     999903    2    3    3    0    0 -0.18697762858E-02 -0.64970385737E-01  0.11772407430E+00  0.14209799121E+00  0.45915513163E-01 0.  0.
         14    1    1    2    0    0  0.85971073537E-03  0.78547997639E-02 -0.11002067436E-01  0.13545570115E-01  0.00000000000E+00 0. -1.
     999901    1    3    3    0    0  0.10100655504E-02  0.57115585973E-01 -0.10672200686E+00  0.88828643868E+00  0.88000000000E+00 0. -1.
        -11    1    4    4    0    0  0.38278397858E-02 -0.64353925653E-01  0.74625095113E-01  0.98616662112E-01  0.51100000000E-03 0.  1.
         11    1    4    4    0    0 -0.56976160716E-02 -0.61646008321E-03  0.43098979185E-01  0.43481329093E-01  0.51100000000E-03 0. -1.
</event>
<event>
 8    1  0.2123879E+004  0.1043930E+01  0.7957747E-01            NaN
         13   -1    0    0    0    0  0.00000000000E+00  0.00000000000E+00  0.74505805969E-08  0.10566000000E+00  0.10566000000E+00 0. -1.
     999900   -1    0    0    0    0 -0.00000000000E+00 -0.00000000000E+00 -0.74505805969E-08  0.93827000000E+00  0.93827000000E+00 0.  1.
     999902    2    1    2    0    0  0.16463454515E-01  0.15326133603E-01 -0.67082292431E-02  0.10204579731E+01  0.10201879919E+01 0.  0.
     999903    2    3    3    0    0  0.10934644997E+00  0.49261554884E-01  0.38755339672E-01  0.13375294903E+00  0.44771956755E-01 0.  0.
         14    1    1    2    0    0 -0.16463454515E-01 -0.15326133603E-01  0.67082292431E-02  0.23472026869E-01  0.00000000000E+00 0. -1.
     999901    1    3    3    0    0 -0.92882995453E-01 -0.33935421281E-01 -0.45463568915E-01  0.88670502410E+00  0.88000000000E+00 0. -1.
        -11    1    4    4    0    0  0.63373663609E-01  0.22766220819E-01 -0.11630635380E-02  0.67350841772E-01  0.51100000000E-03 0.  1.
         11    1    4    4    0    0  0.45972786359E-01  0.26495334065E-01  0.39918403210E-01  0.66402107261E-01  0.51100000000E-03 0. -1.
</event>
<event>
 8    1  0.2123879E+004  0.1043930E+01  0.7957747E-01            NaN
         13   -1    0    0    0    0  0.00000000000E+00  0.00000000000E+00  0.74505805969E-08  0.10566000000E+00  0.10566000000E+00 0. -1.
     999900   -1    0    0    0    0 -0.00000000000E+00 -0.00000000000E+00 -0.74505805969E-08  0.93827000000E+00  0.93827000000E+00 0.  1.
     999902    2    1    2    0    0 -0.96911469172E-02  0.96602703448E-02 -0.27984142475E-03  0.10302436030E+01  0.10301526897E+01 0.  0.
     999903    2    3    3    0    0 -0.38377012769E-01  0.11012833302E+00  0.66921786569E-01  0.14151824085E+00  0.44134364535E-01 0.  0.
         14    1    1    2    0    0  0.96911469172E-02 -0.96602703448E-02  0.27984142475E-03  0.13686397003E-01  0.00000000000E+00 0.  1.
     999901    1    3    3    0    0  0.28685865852E-01 -0.10046806268E+00 -0.67201627994E-01  0.88872536215E+00  0.88000000000E+00 0.  1.
        -11    1    4    4    0    0 -0.28242507867E-01  0.25400576456E-01  0.30586740383E-01  0.48771286052E-01  0.51100000000E-03 0. -1.
         11    1    4    4    0    0 -0.10134504902E-01  0.84727756564E-01  0.36335046186E-01  0.92746954798E-01  0.51100000000E-03 0.  1.
</event>
<event>
 8    1  0.2123879E+004  0.1043930E+01  0.7957747E-01            NaN
         13   -1    0    0    0    0  0.00000000000E+00  0.00000000000E+00  0.74505805969E-08  0.10566000000E+00  0.10566000000E+00 0. -1.
     999900   -1    0    0    0    0 -0.00000000000E+00 -0.00000000000E+00 -0.74505805969E-08  0.93827000000E+00  0.93827000000E+00 0.  1.
     999902    2    1    2    0    0  0.12461116240E-01  0.19465972779E-02 -0.62385770068E-02  0.10298591613E+01  0.10297630327E+01 0.  0.
     999903    2    3    3    0    0 -0.54618662044E-01 -0.11957136584E+00 -0.49742392544E-02  0.13897874812E+00  0.44831234651E-01 0.  0.
         14    1    1    2    0    0 -0.12461116240E-01 -0.19465972779E-02  0.62385770068E-02  0.14070838709E-01  0.00000000000E+00 0. -1.
     999901    1    3    3    0    0  0.67079778285E-01  0.12151796312E+00 -0.12643377524E-02  0.89088041317E+00  0.88000000000E+00 0.  1.
        -11    1    4    4    0    0 -0.15859812393E-01 -0.77936892144E-01  0.99828996984E-02  0.80159916501E-01  0.51100000000E-03 0.  1.
         11    1    4    4    0    0 -0.38758849652E-01 -0.41634473700E-01 -0.14957138953E-01  0.58818831621E-01  0.51100000000E-03 0. -1.
</event>
<event>
 7    1  0.2123879E+004  0.1043930E+01  0.7957747E-01            NaN
         13   -1    0    0    0    0  0.00000000000E+00  0.00000000000E+00  0.74505805969E-08  0.10566000000E+00  0.10566000000E+00 0.  1.
     999900   -1    0    0    0    0 -0.00000000000E+00 -0.00000000000E+00 -0.74505805969E-08  0.93827000000E+00  0.93827000000E+00 0. -1.
     999903    2    1    2    0    0  0.28741928981E-01  0.16759010640E-01 -0.41390888321E-01  0.69626387315E-01  0.45029604211E-01 0.  0.
         14    1    1    2    0    0 -0.14215286019E-01 -0.83347892567E-01 -0.27687283240E-01  0.88969271129E-01  0.00000000000E+00 0. -1.
     999901    1    1    2    0    0 -0.14526642963E-01  0.66588881928E-01  0.69078171561E-01  0.88533434156E+00  0.88000000000E+00 0. -1.
        -11    1    3    3    0    0  0.80293526052E-02 -0.11726156705E-01 -0.28978992123E-01  0.32280278187E-01  0.51100000000E-03 0. -1.
         11    1    3    3    0    0  0.20712576376E-01  0.28485167345E-01 -0.12411896197E-01  0.37346109128E-01  0.51100000000E-03 0.  1.
</event>
<event>
 8    1  0.2123879E+004  0.1043930E+01  0.7957747E-01            NaN
         13   -1    0    0    0    0  0.00000000000E+00  0.00000000000E+00  0.74505805969E-08  0.10566000000E+00  0.10566000000E+00 0. -1.
     999900   -1    0    0    0    0 -0.00000000000E+00 -0.00000000000E+00 -0.74505805969E-08  0.93827000000E+00  0.93827000000E+00 0.  1.
     999902    2    1    2    0    0 -0.97077872342E-02 -0.94033700590E-02 -0.40415110771E-02  0.10298233238E+01  0.10297267016E+01 0.  0.
     999903    2    3    3    0    0 -0.11172932402E-02 -0.85611509909E-01 -0.10244410797E+00  0.14102382547E+00  0.45413050102E-01 0.  0.
         14    1    1    2    0    0  0.97077872342E-02  0.94033700590E-02  0.40415110771E-02  0.14106676194E-01  0.00000000000E+00 0.  1.
     999901    1    3    3    0    0 -0.85904939940E-02  0.76208139850E-01  0.98402596892E-01  0.88879949834E+00  0.88000000000E+00 0. -1.
        -11    1    4    4    0    0  0.75588524776E-02 -0.57233853326E-01 -0.35445045974E-01  0.67745572715E-01  0.51100000000E-03 0. -1.
         11    1    4    4    0    0 -0.86761457178E-02 -0.28377656583E-01 -0.66999061996E-01  0.73278252756E-01  0.51100000000E-03 0.  1.
</event>
<event>
 8    1  0.2123879E+004  0.1043930E+01  0.7957747E-01            NaN
         13   -1    0    0    0    0  0.00000000000E+00  0.00000000000E+00  0.74505805969E-08  0.10566000000E+00  0.10566000000E+00 0.  1.
     999900   -1    0    0    0    0 -0.00000000000E+00 -0.00000000000E+00 -0.74505805969E-08  0.93827000000E+00  0.93827000000E+00 0. -1.
     999902    2    1    2    0    0  0.68601720695E-02  0.11759366322E-01  0.49635195502E-02  0.10294392725E+01  0.10293372793E+01 0.  0.
     999903    2    3    3    0    0  0.15334000366E-01  0.85186264431E-01  0.10179528341E+00  0.14104763272E+00  0.45169943068E-01 0.  0.
         14    1    1    2    0    0 -0.68601720695E-02 -0.11759366322E-01 -0.49635195502E-02  0.14490727498E-01  0.00000000000E+00 0. -1.
     999901    1    3    3    0    0 -0.84738282962E-02 -0.73426898110E-01 -0.96831763865E-01  0.88839163978E+00  0.88000000000E+00 0. -1.
        -11    1    4    4    0    0  0.18844398845E-01  0.96664555651E-02  0.30458618222E-01  0.37101755700E-01  0.51100000000E-03 0. -1.
         11    1    4    4    0    0 -0.35103984791E-02  0.75519808866E-01  0.71336665193E-01  0.10394587703E+00  0.51100000000E-03 0.  1.
</event>
<event>
 8    1  0.2123879E+004  0.1043930E+01  0.7957747E-01            NaN
         13   -1    0    0    0    0  0.00000000000E+00  0.00000000000E+00  0.74505805969E-08  0.10566000000E+00  0.10566000000E+00 0. -1.
     999900   -1    0    0    0    0 -0.00000000000E+00 -0.00000000000E+00 -0.74505805969E-08  0.93827000000E+00  0.93827000000E+00 0. -1.
     999902    2    1    2    0    0 -0.41655059929E-02  0.11105438718E-01  0.78057017360E-02  0.10297310145E+01  0.10296331148E+01 0.  0.
     999903    2    3    3    0    0 -0.86189413288E-01 -0.24201796342E-01 -0.96679924522E-01  0.13906173340E+00  0.44461398792E-01 0.  0.
         14    1    1    2    0    0  0.41655059929E-02 -0.11105438718E-01 -0.78057017360E-02  0.14198985488E-01  0.00000000000E+00 0.  1.
     999901    1    3    3    0    0  0.82023907295E-01  0.35307235060E-01  0.10448562626E+00  0.89066928111E+00  0.88000000000E+00 0.  1.
        -11    1    4    4    0    0 -0.46851150279E-01 -0.38544775141E-02 -0.21255746087E-01  0.51594138641E-01  0.51100000000E-03 0. -1.
         11    1    4    4    0    0 -0.39338263009E-01 -0.20347318827E-01 -0.75424178435E-01  0.87467594763E-01  0.51100000000E-03 0.  1.
</event>
<event>
 8    1  0.2123879E+004  0.1043930E+01  0.7957747E-01            NaN
         13   -1    0    0    0    0  0.00000000000E+00  0.00000000000E+00  0.74505805969E-08  0.10566000000E+00  0.10566000000E+00 0. -1.
     999900   -1    0    0    0    0 -0.00000000000E+00 -0.00000000000E+00 -0.74505805969E-08  0.93827000000E+00  0.93827000000E+00 0. -1.
     999902    2    1    2    0    0 -0.11873075312E-01  0.99427225900E-03 -0.67462679400E-02  0.10302380087E+01  0.10301470205E+01 0.  0.
     999903    2    3    3    0    0  0.99274267584E-01  0.68982126941E-03  0.84883531737E-01  0.13852625891E+00  0.46135175188E-01 0.  0.
         14    1    1    2    0    0  0.11873075312E-01 -0.99427225900E-03  0.67462679400E-02  0.13691991302E-01  0.00000000000E+00 0.  1.
     999901    1    3    3    0    0 -0.11114734290E+00  0.30445098959E-03 -0.91629799677E-01  0.89171174979E+00  0.88000000000E+00 0. -1.
        -11    1    4    4    0    0  0.42703326585E-01  0.22941753858E-01  0.33494342498E-01  0.58923936324E-01  0.51100000000E-03 0.  1.
         11    1    4    4    0    0  0.56570940998E-01 -0.22251932589E-01  0.51389189239E-01  0.79602322585E-01  0.51100000000E-03 0. -1.
</event>
<event>
 8    1  0.2123879E+004  0.1043930E+01  0.7957747E-01            NaN
         13   -1    0    0    0    0  0.00000000000E+00  0.00000000000E+00  0.74505805969E-08  0.10566000000E+00  0.10566000000E+00 0.  1.
     999900   -1    0    0    0    0 -0.00000000000E+00 -0.00000000000E+00 -0.74505805969E-08  0.93827000000E+00  0.93827000000E+00 0. -1.
     999902    2    1    2    0    0  0.37111192521E-03 -0.11962213428E-01 -0.55597631130E-02  0.10307336657E+01  0.10306491868E+01 0.  0.
     999903    2    3    3    0    0  0.95301084294E-01  0.78220940337E-01  0.42360049735E-01  0.13975610739E+00  0.50364506987E-01 0.  0.
         14    1    1    2    0    0 -0.37111192521E-03  0.11962213428E-01  0.55597631130E-02  0.13196334341E-01  0.00000000000E+00 0.  1.
     999901    1    3    3    0    0 -0.94929972369E-01 -0.90183153766E-01 -0.47919812848E-01  0.89097755827E+00  0.88000000000E+00 0. -1.
        -11    1    4    4    0    0  0.48518046313E-01  0.52834728625E-01  0.87808889101E-05  0.71734026550E-01  0.51100000000E-03 0. -1.
         11    1    4    4    0    0  0.46783037981E-01  0.25386211712E-01  0.42351268846E-01  0.68022080839E-01  0.51100000000E-03 0.  1.
</event>
<event>
 8    1  0.2123879E+004  0.1043930E+01  0.7957747E-01            NaN
         13   -1    0    0    0    0  0.00000000000E+00  0.00000000000E+00  0.74505805969E-08  0.10566000000E+00  0.10566000000E+00 0.  1.
     999900   -1    0    0    0    0 -0.00000000000E+00 -0.00000000000E+00 -0.74505805969E-08  0.93827000000E+00  0.93827000000E+00 0. -1.
     999902    2    1    2    0    0 -0.41547744161E-02 -0.39523134847E-02 -0.14517723354E-01  0.10283207968E+01  0.10282023215E+01 0.  0.
     999903    2    3    3    0    0 -0.88614812282E-01  0.94958564852E-01 -0.19321103525E-01  0.13874790363E+00  0.44810285935E-01 0.  0.
         14    1    1    2    0    0  0.41547744161E-02  0.39523134847E-02  0.14517723354E-01  0.15609203174E-01  0.00000000000E+00 0.  1.
     999901    1    3    3    0    0  0.84460037866E-01 -0.98910878336E-01  0.48033801711E-02  0.88957289320E+00  0.88000000000E+00 0. -1.
        -11    1    4    4    0    0 -0.72779192582E-01  0.79425150828E-01  0.23200674660E-02  0.10775346533E+00  0.51100000000E-03 0. -1.
         11    1    4    4    0    0 -0.15835619700E-01  0.15533414024E-01 -0.21641170991E-01  0.30994438298E-01  0.51100000000E-03 0.  1.
</event>
<event>
 8    1  0.2123879E+004  0.1043930E+01  0.7957747E-01            NaN
         13   -1    0    0    0    0  0.00000000000E+00  0.00000000000E+00  0.74505805969E-08  0.10566000000E+00  0.10566000000E+00 0. -1.
     999900   -1    0    0    0    0 -0.00000000000E+00 -0.00000000000E+00 -0.74505805969E-08  0.93827000000E+00  0.93827000000E+00 0. -1.
     999902    2    1    2    0    0 -0.37721503954E-02  0.12437446840E-01 -0.60398493479E-02  0.10295982526E+01  0.10294985006E+01 0.  0.
     999903    2    3    3    0    0  0.10323984008E+00  0.35151417590E-01 -0.75618501590E-01  0.14009913548E+00  0.44894579178E-01 0.  0.
         14    1    1    2    0    0  0.37721503954E-02 -0.12437446840E-01  0.60398493479E-02  0.14331747369E-01  0.00000000000E+00 0.  1.
     999901    1    3    3    0    0 -0.10701199048E+00 -0.22713970750E-01  0.69578652242E-01  0.88949911716E+00  0.88000000000E+00 0. -1.
        -11    1    4    4    0    0  0.27397662259E-01 -0.23802528211E-02 -0.39401498981E-01  0.48052437438E-01  0.51100000000E-03 0. -1.
         11    1    4    4    0    0  0.75842177822E-01  0.37531670411E-01 -0.36217002610E-01  0.92046698038E-01  0.51100000000E-03 0.  1.
</event>
<event>
 8    1  0.2123879E+004  0.1043930E+01  0.7957747E-01            NaN
         13   -1    0    0    0    0  0.00000000000E+00  0.00000000000E+00  0.74505805969E-08  0.10566000000E+00  0.10566000000E+00 0. -1.
     999900   -1    0    0    0    0 -0.00000000000E+00 -0.00000000000E+00 -0.74505805969E-08  0.93827000000E+00  0.93827000000E+00 0.  1.
     999902    2    1    2    0    0  0.18171724264E-02 -0.10434134538E-01 -0.76493578871E-02  0.10308653165E+01  0.10307825255E+01 0.  0.
     999903    2    3    3    0    0  0.12342428008E+00  0.41265001775E-02 -0.52305342970E-01  0.14126177686E+00  0.44367327847E-01 0.  0.
         14    1    1    2    0    0 -0.18171724264E-02  0.10434134538E-01  0.76493578871E-02  0.13064683512E-01  0.00000000000E+00 0. -1.
     999901    1    3    3    0    0 -0.12160710766E+00 -0.14560634716E-01  0.44655985083E-01  0.88960353963E+00  0.88000000000E+00 0.  1.
        -11    1    4    4    0    0  0.22852066199E-01 -0.10834039533E-01  0.30694207119E-02  0.25480891010E-01  0.51100000000E-03 0. -1.
         11    1    4    4    0    0  0.10057221388E+00  0.14960539710E-01 -0.55374763682E-01  0.11578088585E+00  0.51100000000E-03 0.  1.
</event>
<event>
 8    1  0.2123879E+004  0.1043930E+01  0.7957747E-01            NaN
         13   -1    0    0    0    0  0.00000000000E+00  0.00000000000E+00  0.74505805969E-08  0.10566000000E+00  0.10566000000E+00 0.  1.
     999900   -1    0    0    0    0 -0.00000000000E+00 -0.00000000000E+00 -0.74505805969E-08  0.93827000000E+00  0.93827000000E+00 0.  1.
     999902    2    1    2    0    0 -0.10858153430E-01  0.69582300836E-02 -0.16185639379E-03  0.10310326104E+01  0.10309519392E+01 0.  0.
     999903    2    3    3    0    0 -0.47771319856E-01  0.14936636766E-01  0.12450224312E+00  0.14144429292E+00  0.44726696060E-01 0.  0.
         14    1    1    2    0    0  0.10858153430E-01 -0.69582300836E-02  0.16185639379E-03  0.12897389631E-01  0.00000000000E+00 0.  1.
     999901    1    3    3    0    0  0.36913166426E-01 -0.79784066827E-02 -0.12466409951E+00  0.88958831745E+00  0.88000000000E+00 0.  1.
        -11    1    4    4    0    0 -0.53883465891E-01  0.35901175550E-02  0.10477986183E+00  0.11787874027E+00  0.51100000000E-03 0.  1.
         11    1    4    4    0    0  0.61121460354E-02  0.11346519211E-01  0.19722381286E-01  0.23565552655E-01  0.51100000000E-03 0. -1.
</event>
<event>
 8    1  0.2123879E+004  0.1043930E+01  0.7957747E-01            NaN
         13   -1    0    0    0    0  0.00000000000E+00  0.00000000000E+00  0.74505805969E-08  0.10566000000E+00  0.10566000000E+00 0.  1.
     999900   -1    0    0    0    0 -0.00000000000E+00 -0.00000000000E+00 -0.74505805969E-08  0.93827000000E+00  0.93827000000E+00 0.  1.
     999902    2    1    2    0    0 -0.17116284446E-03  0.12700735149E-01 -0.97684529228E-03  0.10311906045E+01  0.10311119099E+01 0.  0.
     999903    2    3    3    0    0 -0.17738162714E-01  0.13339221672E+00 -0.25676407900E-04  0.14277857291E+00  0.47724148244E-01 0.  0.
         14    1    1    2    0    0  0.17116284446E-03 -0.12700735149E-01  0.97684529228E-03  0.12739395463E-01  0.00000000000E+00 0. -1.
     999901    1    3    3    0    0  0.17566999870E-01 -0.12069148157E+00 -0.95116888438E-03  0.88841203162E+00  0.88000000000E+00 0.  1.
        -11    1    4    4    0    0 -0.16845041315E-01  0.14330972158E-01 -0.78057559888E-02  0.23458966888E-01  0.51100000000E-03 0. -1.
         11    1    4    4    0    0 -0.89312139907E-03  0.11906124456E+00  0.77800795809E-02  0.11931960603E+00  0.51100000000E-03 0.  1.
</event>
<event>
 8    1  0.2123879E+004  0.1043930E+01  0.7957747E-01            NaN
         13   -1    0    0    0    0  0.00000000000E+00  0.00000000000E+00  0.74505805969E-08  0.10566000000E+00  0.10566000000E+00 0.  1.
     999900   -1    0    0    0    0 -0.00000000000E+00 -0.00000000000E+00 -0.74505805969E-08  0.93827000000E+00  0.93827000000E+00 0.  1.
     999902    2    1    2    0    0 -0.23507978349E-02 -0.17753694867E-01 -0.63023856952E-02  0.10249447426E+01  0.10247688937E+01 0.  0.
     999903    2    3    3    0    0  0.14582525478E-01  0.17373559154E-01 -0.12629635803E+00  0.13594574668E+00  0.44899725831E-01 0.  0.
         14    1    1    2    0    0  0.23507978349E-02  0.17753694867E-01  0.63023856952E-02  0.18985257368E-01  0.00000000000E+00 0.  1.
     999901    1    3    3    0    0 -0.16933323313E-01 -0.35127254021E-01  0.11999397234E+00  0.88899899596E+00  0.88000000000E+00 0. -1.
        -11    1    4    4    0    0  0.17660407123E-01 -0.89872319795E-02 -0.81493657555E-01  0.83869766073E-01  0.51100000000E-03 0.  1.
         11    1    4    4    0    0 -0.30778816445E-02  0.26360791134E-01 -0.44802700479E-01  0.52075980603E-01  0.51100000000E-03 0. -1.
</event>
<event>
 8    1  0.2123879E+004  0.1043930E+01  0.7957747E-01            NaN
         13   -1    0    0    0    0  0.00000000000E+00  0.00000000000E+00  0.74505805969E-08  0.10566000000E+00  0.10566000000E+00 0. -1.
     999900   -1    0    0    0    0 -0.00000000000E+00 -0.00000000000E+00 -0.74505805969E-08  0.93827000000E+00  0.93827000000E+00 0.  1.
     999902    2    1    2    0    0  0.68629155973E-02 -0.72329986475E-02  0.76100612613E-02  0.10313869177E+01  0.10313106444E+01 0.  0.
     999903    2    3    3    0    0  0.53089251557E-01 -0.10435979150E+00 -0.66404018856E-01  0.14175296377E+00  0.44440682984E-01 0.  0.
         14    1    1    2    0    0 -0.68629155973E-02  0.72329986475E-02 -0.76100612613E-02  0.12543082250E-01  0.00000000000E+00 0.  1.
     999901    1    3    3    0    0 -0.46226335960E-01  0.97126792849E-01  0.74014080118E-01  0.88963395398E+00  0.88000000000E+00 0. -1.
        -11    1    4    4    0    0  0.37388031523E-02 -0.29793065571E-01  0.56366111762E-03  0.30036381939E-01  0.51100000000E-03 0. -1.
         11    1    4    4    0    0  0.49350448405E-01 -0.74566725926E-01 -0.66967679974E-01  0.11171658183E+00  0.51100000000E-03 0.  1.
</event>
<event>
 8    1  0.2123879E+004  0.1043930E+01  0.7957747E-01            NaN
         13   -1    0    0    0    0  0.00000000000E+00  0.00000000000E+00  0.74505805969E-08  0.10566000000E+00  0.10566000000E+00 0. -1.
     999900   -1    0    0    0    0 -0.00000000000E+00 -0.00000000000E+00 -0.74505805969E-08  0.93827000000E+00  0.93827000000E+00 0.  1.
     999902    2    1    2    0    0  0.41535450534E-02  0.11678016364E-01  0.51749245007E-02  0.10304984012E+01  0.10304108632E+01 0.  0.
     999903    2    3    3    0    0 -0.62310693261E-02 -0.83148103189E-01  0.10271457332E+00  0.13998516926E+00  0.45750745924E-01 0.  0.
         14    1    1    2    0    0 -0.41535450534E-02 -0.11678016364E-01 -0.51749245007E-02  0.13431598799E-01  0.00000000000E+00 0.  1.
     999901    1    3    3    0    0  0.10384614380E-01  0.94826119553E-01 -0.97539648818E-01  0.89051323194E+00  0.88000000000E+00 0.  1.
        -11    1    4    4    0    0  0.11796718249E-01 -0.73602264834E-01  0.77213277512E-01  0.10732477484E+00  0.51100000000E-03 0.  1.
         11    1    4    4    0    0 -0.18027787576E-01 -0.95458383544E-02  0.25501295807E-01  0.32660394419E-01  0.51100000000E-03 0. -1.
</event>
<event>
 8    1  0.2123879E+004  0.1043930E+01  0.7957747E-01            NaN
         13   -1    0    0    0    0  0.00000000000E+00  0.00000000000E+00  0.74505805969E-08  0.10566000000E+00  0.10566000000E+00 0.  1.
     999900   -1    0    0    0    0 -0.00000000000E+00 -0.00000000000E+00 -0.74505805969E-08  0.93827000000E+00  0.93827000000E+00 0.  1.
     999902    2    1    2    0    0  0.65244935699E-02 -0.46434865814E-02  0.12507819098E-01  0.10290781812E+01  0.10289710037E+01 0.  0.
     999903    2    3    3    0    0 -0.74145744400E-01 -0.72843103817E-01  0.82351345378E-01  0.14001294552E+00  0.44924065266E-01 0.  0.
         14    1    1    2    0    0 -0.65244935699E-02  0.46434865814E-02 -0.12507819098E-01  0.14851818830E-01  0.00000000000E+00 0. -1.
     999901    1    3    3    0    0  0.80670237970E-01  0.68199617236E-01 -0.69843526280E-01  0.88906523565E+00  0.88000000000E+00 0. -1.
        -11    1    4    4    0    0 -0.39987307350E-01 -0.66320262646E-01  0.65193618833E-01  0.10123157138E+00  0.51100000000E-03 0. -1.
         11    1    4    4    0    0 -0.34158437050E-01 -0.65228411709E-02  0.17157726545E-01  0.38781374136E-01  0.51100000000E-03 0.  1.
</event>
<event>
 8    1  0.2123879E+004  0.1043930E+01  0.7957747E-01            NaN
         13   -1    0    0    0    0  0.00000000000E+00  0.00000000000E+00  0.74505805969E-08  0.10566000000E+00  0.10566000000E+00 0. -1.
     999900   -1    0    0    0    0 -0.00000000000E+00 -0.00000000000E+00 -0.74505805969E-08  0.93827000000E+00  0.93827000000E+00 0. -1.
     999902    2    1    2    0    0  0.77425999544E-02  0.11136194410E-01  0.48395101529E-02  0.10295291827E+01  0.10294284601E+01 0.  0.
     999903    2    3    3    0    0 -0.87755764263E-01  0.33547771735E-01 -0.91750353061E-01  0.13882619179E+00  0.45033954856E-01 0.  0.
         14    1    1    2    0    0 -0.77425999544E-02 -0.11136194410E-01 -0.48395101529E-02  0.14400817286E-01  0.00000000000E+00 0.  1.
     999901    1    3    3    0    0  0.95498364218E-01 -0.22411577325E-01  0.96589863214E-01  0.89070299092E+00  0.88000000000E+00 0.  1.
        -11    1    4    4    0    0 -0.22331770127E-01  0.54959522671E-02 -0.39065377796E-03  0.23007111503E-01  0.51100000000E-03 0.  1.
         11    1    4    4    0    0 -0.65423994136E-01  0.28051819468E-01 -0.91359699283E-01  0.11581908029E+00  0.51100000000E-03 0. -1.
</event>
<event>
 7    1  0.2123879E+004  0.1043930E+01  0.7957747E-01            NaN
         13   -1    0    0    0    0  0.00000000000E+00  0.00000000000E+00  0.74505805969E-08  0.10566000000E+00  0.10566000000E+00 0. -1.
     999900   -1    0    0    0    0 -0.00000000000E+00 -0.00000000000E+00 -0.74505805969E-08  0.93827000000E+00  0.93827000000E+00 0. -1.
     999903    2    1    2    0    0  0.72149398345E-01 -0.75804515957E-01 -0.26192461974E-01  0.11684370190E+00  0.44883686205E-01 0.  0.
         14    1    1    2    0    0 -0.29976605923E-01 -0.25575711607E-01 -0.49602938219E-02  0.39715468544E-01  0.00000000000E+00 0. -1.
     999901    1    1    2    0    0 -0.42172792422E-01  0.10138022756E+00  0.31152755796E-01  0.88737082956E+00  0.88000000000E+00 0.  1.
        -11    1    3    3    0    0  0.38662894255E-01 -0.12191207069E-01 -0.64221661979E-03  0.40547730950E-01  0.51100000000E-03 0.  1.
         11    1    3    3    0    0  0.33486504090E-01 -0.63613308888E-01 -0.25550245354E-01  0.76295970946E-01  0.51100000000E-03 0. -1.
</event>
<event>
 8    1  0.2123879E+004  0.1043930E+01  0.7957747E-01            NaN
         13   -1    0    0    0    0  0.00000000000E+00  0.00000000000E+00  0.74505805969E-08  0.10566000000E+00  0.10566000000E+00 0. -1.
     999900   -1    0    0    0    0 -0.00000000000E+00 -0.00000000000E+00 -0.74505805969E-08  0.93827000000E+00  0.93827000000E+00 0.  1.
     999902    2    1    2    0    0 -0.10258162966E-01 -0.80138461094E-02 -0.23475373426E-02  0.10307026583E+01  0.10306177794E+01 0.  0.
     999903    2    3    3    0    0 -0.10621050774E+00  0.79147712374E-01  0.17207284005E-01  0.14099125521E+00  0.45137690408E-01 0.  0.
         14    1    1    2    0    0  0.10258162966E-01  0.80138461094E-02  0.23475373426E-02  0.13227341701E-01  0.00000000000E+00 0. -1.
     999901    1    3    3    0    0  0.95952344772E-01 -0.87161558484E-01 -0.19554821347E-01  0.88971140309E+00  0.88000000000E+00 0.  1.
        -11    1    4    4    0    0 -0.80522170902E-01  0.56179975166E-01  0.32310310728E-01  0.10336453413E+00  0.51100000000E-03 0. -1.
         11    1    4    4    0    0 -0.25688336837E-01  0.22967737208E-01 -0.15103026723E-01  0.37626721078E-01  0.51100000000E-03 0.  1.
</event>
<event>
 8    1  0.2123879E+004  0.1043930E+01  0.7957747E-01            NaN
         13   -1    0    0    0    0  0.00000000000E+00  0.00000000000E+00  0.74505805969E-08  0.10566000000E+00  0.10566000000E+00 0. -1.
     999900   -1    0    0    0    0 -0.00000000000E+00 -0.00000000000E+00 -0.74505805969E-08  0.93827000000E+00  0.93827000000E+00 0.  1.
     999902    2    1    2    0    0 -0.11750412868E-02  0.12336736845E-01 -0.62144962225E-02  0.10300665314E+01  0.10299732343E+01 0.  0.
     999903    2    3    3    0    0 -0.90410662663E-01  0.50833580725E-01 -0.84603324403E-01  0.14125282118E+00  0.45127554098E-01 0.  0.
         14    1    1    2    0    0  0.11750412868E-02 -0.12336736845E-01  0.62144962225E-02  0.13863468589E-01  0.00000000000E+00 0.  1.
     999901    1    3    3    0    0  0.89235621376E-01 -0.38496843880E-01  0.78388828180E-01  0.88881371023E+00  0.88000000000E+00 0. -1.
        -11    1    4    4    0    0 -0.12806991342E-01  0.27493134019E-01 -0.34661953340E-01  0.46060868161E-01  0.51100000000E-03 0. -1.
         11    1    4    4    0    0 -0.77603671321E-01  0.23340446706E-01 -0.49941371062E-01  0.95191953019E-01  0.51100000000E-03 0.  1.
</event>
<event>
 8    1  0.2123879E+004  0.1043930E+01  0.7957747E-01            NaN
         13   -1    0    0    0    0  0.00000000000E+00  0.00000000000E+00  0.74505805969E-08  0.10566000000E+00  0.10566000000E+00 0. -1.
     999900   -1    0    0    0    0 -0.00000000000E+00 -0.00000000000E+00 -0.74505805969E-08  0.93827000000E+00  0.93827000000E+00 0. -1.
     999902    2    1    2    0    0  0.18202654562E-01  0.13648212062E-01 -0.50230592224E-02  0.10206310419E+01  0.10203650730E+01 0.  0.
     999903    2    3    3    0    0  0.53375131579E-01 -0.64889486058E-01  0.88925133122E-01  0.13145640436E+00  0.48099447753E-01 0.  0.
         14    1    1    2    0    0 -0.18202654562E-01 -0.13648212062E-01  0.50230592224E-02  0.23298958121E-01  0.00000000000E+00 0.  1.
     999901    1    3    3    0    0 -0.35172477018E-01  0.78537698119E-01 -0.93948192344E-01  0.88917463752E+00  0.88000000000E+00 0. -1.
        -11    1    4    4    0    0  0.36421120286E-01 -0.81191695345E-02  0.29854017772E-01  0.47790610113E-01  0.51100000000E-03 0. -1.
         11    1    4    4    0    0  0.16954011293E-01 -0.56770316523E-01  0.59071115350E-01  0.83665794246E-01  0.51100000000E-03 0.  1.
</event>
<event>
 8    1  0.2123879E+004  0.1043930E+01  0.7957747E-01            NaN
         13   -1    0    0    0    0  0.00000000000E+00  0.00000000000E+00  0.74505805969E-08  0.10566000000E+00  0.10566000000E+00 0. -1.
     999900   -1    0    0    0    0 -0.00000000000E+00 -0.00000000000E+00 -0.74505805969E-08  0.93827000000E+00  0.93827000000E+00 0.  1.
     999902    2    1    2    0    0  0.10123407122E-01 -0.76566581145E-02  0.23589478315E-02  0.10310198327E+01  0.10309390006E+01 0.  0.
     999903    2    3    3    0    0  0.54837704499E-01  0.76075578882E-01 -0.95157648317E-01  0.14055931002E+00  0.43672348950E-01 0.  0.
         14    1    1    2    0    0 -0.10123407122E-01  0.76566581145E-02 -0.23589478315E-02  0.12910167315E-01  0.00000000000E+00 0.  1.
     999901    1    3    3    0    0 -0.44714297377E-01 -0.83732236997E-01  0.97516596148E-01  0.89046052267E+00  0.88000000000E+00 0. -1.
        -11    1    4    4    0    0 -0.58283726715E-02  0.11110668851E-01 -0.22447595031E-01  0.25721052350E-01  0.51100000000E-03 0. -1.
         11    1    4    4    0    0  0.60666077170E-01  0.64964910031E-01 -0.72710053286E-01  0.11483825767E+00  0.51100000000E-03 0.  1.
</event>
<event>
 8    1  0.2123879E+004  0.1043930E+01  0.7957747E-01            NaN
         13   -1    0    0    0    0  0.00000000000E+00  0.00000000000E+00  0.74505805969E-08  0.10566000000E+00  0.10566000000E+00 0.  1.
     999900   -1    0    0    0    0 -0.00000000000E+00 -0.00000000000E+00 -0.74505805969E-08  0.93827000000E+00  0.93827000000E+00 0. -1.
     999902    2    1    2    0    0  0.97164724376E-02 -0.18987232136E-02 -0.98635977888E-02  0.10299548239E+01  0.10298600068E+01 0.  0.
     999903    2    3    3    0    0  0.55758210643E-01 -0.12111599143E+00 -0.53980128488E-03  0.14067447894E+00  0.44843686366E-01 0.  0.
         14    1    1    2    0    0 -0.97164724376E-02  0.18987232136E-02  0.98635977888E-02  0.13975176128E-01  0.00000000000E+00 0.  1.
     999901    1    3    3    0    0 -0.46041738205E-01  0.11921726821E+00 -0.93237965039E-02  0.88928034493E+00  0.88000000000E+00 0.  1.
        -11    1    4    4    0    0  0.46671032535E-01 -0.48989741115E-01  0.44114240285E-02  0.67807829897E-01  0.51100000000E-03 0. -1.
         11    1    4    4    0    0  0.90871781082E-02 -0.72126250311E-01 -0.49512253134E-02  0.72866649045E-01  0.51100000000E-03 0.  1.
</event>
<event>
 8    1  0.2123879E+004  0.1043930E+01  0.7957747E-01            NaN
         13   -1    0    0    0    0  0.00000000000E+00  0.00000000000E+00  0.74505805969E-08  0.10566000000E+00  0.10566000000E+00 0.  1.
     999900   -1    0    0    0    0 -0.00000000000E+00 -0.00000000000E+00 -0.74505805969E-08  0.93827000000E+00  0.93827000000E+00 0.  1.
     999902    2    1    2    0    0 -0.11541982938E-01  0.10248133098E-02  0.72322296826E-02  0.10302708361E+01  0.10301802866E+01 0.  0.
     999903    2    3    3    0    0 -0.20004187625E-01 -0.51131890082E-01 -0.12019254097E+00  0.13952451823E+00  0.44790697426E-01 0.  0.
         14    1    1    2    0    0  0.11541982938E-01 -0.10248133098E-02 -0.72322296826E-02  0.13659163907E-01  0.00000000000E+00 0.  1.
     999901    1    3    3    0    0  0.84622046874E-02  0.52156703392E-01  0.12742477065E+00  0.89074631787E+00  0.88000000000E+00 0. -1.
        -11    1    4    4    0    0 -0.31797444799E-01 -0.49567464550E-01 -0.10203075203E+00  0.11780724307E+00  0.51100000000E-03 0. -1.
         11    1    4    4    0    0  0.11793257174E-01 -0.15644255324E-02 -0.18161788936E-01  0.21717275160E-01  0.51100000000E-03 0.  1.
</event>
<event>
 8    1  0.2123879E+004  0.1043930E+01  0.7957747E-01            NaN
         13   -1    0    0    0    0  0.00000000000E+00  0.00000000000E+00  0.74505805969E-08  0.10566000000E+00  0.10566000000E+00 0. -1.
     999900   -1    0    0    0    0 -0.00000000000E+00 -0.00000000000E+00 -0.74505805969E-08  0.93827000000E+00  0.93827000000E+00 0.  1.
     999902    2    1    2    0    0  0.72344195999E-03  0.73255798188E-02 -0.11143230369E-01  0.10305748860E+01  0.10304883486E+01 0.  0.
     999903    2    3    3    0    0  0.14115214937E-01 -0.93646143941E-01  0.90974949607E-01  0.13883347094E+00  0.45049435394E-01 0.  0.
         14    1    1    2    0    0 -0.72344195999E-03 -0.73255798188E-02  0.11143230369E-01  0.13355114039E-01  0.00000000000E+00 0. -1.
     999901    1    3    3    0    0 -0.13391772977E-01  0.10097172376E+00 -0.10211817998E+00  0.89174141502E+00  0.88000000000E+00 0.  1.
        -11    1    4    4    0    0  0.28021447940E-01 -0.74796235387E-01  0.59523815321E-01  0.99614376895E-01  0.51100000000E-03 0.  1.
         11    1    4    4    0    0 -0.13906233003E-01 -0.18849908555E-01  0.31451134285E-01  0.39219094045E-01  0.51100000000E-03 0. -1.
</event>
<event>
 8    1  0.2123879E+004  0.1043930E+01  0.7957747E-01            NaN
         13   -1    0    0    0    0  0.00000000000E+00  0.00000000000E+00  0.74505805969E-08  0.10566000000E+00  0.10566000000E+00 0. -1.
     999900   -1    0    0    0    0 -0.00000000000E+00 -0.00000000000E+00 -0.74505805969E-08  0.93827000000E+00  0.93827000000E+00 0.  1.
     999902    2    1    2    0    0  0.27235558923E-02  0.33741419258E-02  0.12979858317E-01  0.10302449968E+01  0.10301541021E+01 0.  0.
     999903    2    3    3    0    0  0.84968706814E-01 -0.81074900100E-01  0.63515681683E-01  0.14094764778E+00  0.45157247821E-01 0.  0.
         14    1    1    2    0    0 -0.27235558923E-02 -0.33741419258E-02 -0.12979858317E-01  0.13685003192E-01  0.00000000000E+00 0.  1.
     999901    1    3    3    0    0 -0.82245150921E-01  0.84449042025E-01 -0.50535823366E-01  0.88929734903E+00  0.88000000000E+00 0.  1.
        -11    1    4    4    0    0  0.22452539612E-01 -0.48953619317E-01  0.16292156301E-01  0.56269608647E-01  0.51100000000E-03 0. -1.
         11    1    4    4    0    0  0.62516167201E-01 -0.32121280782E-01  0.47223525382E-01  0.84678039131E-01  0.51100000000E-03 0.  1.
</event>
<event>
 8    1  0.2123879E+004  0.1043930E+01  0.7957747E-01            NaN
         13   -1    0    0    0    0  0.00000000000E+00  0.00000000000E+00  0.74505805969E-08  0.10566000000E+00  0.10566000000E+00 0. -1.
     999900   -1    0    0    0    0 -0.00000000000E+00 -0.00000000000E+00 -0.74505805969E-08  0.93827000000E+00  0.93827000000E+00 0. -1.
     999902    2    1    2    0    0  0.83843668115E-02  0.30711708459E-02 -0.10549998721E-01  0.10301085612E+01  0.10300158327E+01 0.  0.
     999903    2    3    3    0    0 -0.46833677917E-01 -0.75539910713E-01  0.96321636077E-01  0.13845264050E+00  0.44627397279E-01 0.  0.
         14    1    1    2    0    0 -0.83843668115E-02 -0.30711708459E-02  0.10549998721E-01  0.13821438790E-01  0.00000000000E+00 0. -1.
     999901    1    3    3    0    0  0.55218044729E-01  0.78611081559E-01 -0.10687163480E+00  0.89165592071E+00  0.88000000000E+00 0. -1.
        -11    1    4    4    0    0 -0.53411471617E-01 -0.52782973913E-01  0.66031925408E-01  0.99996519587E-01  0.51100000000E-03 0. -1.
         11    1    4    4    0    0  0.65777937001E-02 -0.22756936800E-01  0.30289710670E-01  0.38456120916E-01  0.51100000000E-03 0.  1.
</event>
<event>
 8    1  0.2123879E+004  0.1043930E+01  0.7957747E-01            NaN
         13   -1    0    0    0    0  0.00000000000E+00  0.00000000000E+00  0.74505805969E-08  0.10566000000E+00  0.10566000000E+00 0. -1.
     999900   -1    0    0    0    0 -0.00000000000E+00 -0.00000000000E+00 -0.74505805969E-08  0.93827000000E+00  0.93827000000E+00 0.  1.
     999902    2    1    2    0    0  0.21668635695E-02 -0.67341776605E-02 -0.15534574581E-01  0.10268605110E+01  0.10267186283E+01 0.  0.
     999903    2    3    3    0    0  0.31381284556E-01 -0.46736539884E-01 -0.11943643722E+00  0.13936444431E+00  0.44590319798E-01 0.  0.
         14    1    1    2    0    0 -0.21668635695E-02  0.67341776605E-02  0.15534574581E-01  0.17069488976E-01  0.00000000000E+00 0. -1.
     999901    1    3    3    0    0 -0.29214420987E-01  0.40002362224E-01  0.10390186264E+00  0.88749606672E+00  0.88000000000E+00 0. -1.
        -11    1    4    4    0    0 -0.16584733968E-02  0.77536889305E-03 -0.45177381360E-01  0.45217348866E-01  0.51100000000E-03 0. -1.
         11    1    4    4    0    0  0.33039757953E-01 -0.47511908777E-01 -0.74259055863E-01  0.94147095441E-01  0.51100000000E-03 0.  1.
</event>
<event>
 8    1  0.2123879E+004  0.1043930E+01  0.7957747E-01            NaN
         13   -1    0    0    0    0  0.00000000000E+00  0.00000000000E+00  0.74505805969E-08  0.10566000000E+00  0.10566000000E+00 0.  1.
     999900   -1    0    0    0    0 -0.00000000000E+00 -0.00000000000E+00 -0.74505805969E-08  0.93827000000E+00  0.93827000000E+00 0.  1.
     999902    2    1    2    0    0 -0.45449175007E-02  0.10809260944E-01  0.73769537313E-02  0.10300766306E+01  0.10299834703E+01 0.  0.
     999903    2    3    3    0    0  0.10684814119E+00  0.78511294053E-01  0.92218546252E-02  0.14047257122E+00  0.45463744835E-01 0.  0.
         14    1    1    2    0    0  0.45449175007E-02 -0.10809260944E-01 -0.73769537313E-02  0.13853369395E-01  0.00000000000E+00 0. -1.
     999901    1    3    3    0    0 -0.11139305869E+00 -0.67702033110E-01 -0.18449008939E-02  0.88960405938E+00  0.88000000000E+00 0. -1.
        -11    1    4    4    0    0  0.31896081825E-01  0.57198722477E-03  0.46619942229E-02  0.32244108241E-01  0.51100000000E-03 0.  1.
         11    1    4    4    0    0  0.74952059361E-01  0.77939306829E-01  0.45598604023E-02  0.10822846298E+00  0.51100000000E-03 0. -1.
</event>
<event>
 8    1  0.2123879E+004  0.1043930E+01  0.7957747E-01            NaN
         13   -1    0    0    0    0  0.00000000000E+00  0.00000000000E+00  0.74505805969E-08  0.10566000000E+00  0.10566000000E+00 0. -1.
     999900   -1    0    0    0    0 -0.00000000000E+00 -0.00000000000E+00 -0.74505805969E-08  0.93827000000E+00  0.93827000000E+00 0.  1.
     999902    2    1    2    0    0 -0.64525342127E-03  0.49021229051E-02  0.12466786056E-01  0.10305185155E+01  0.10304312413E+01 0.  0.
     999903    2    3    3    0    0 -0.54096110582E-01 -0.11333186597E+00  0.44277708769E-01  0.14043525816E+00  0.44621129722E-01 0.  0.
         14    1    1    2    0    0  0.64525342127E-03 -0.49021229051E-02 -0.12466786056E-01  0.13411484463E-01  0.00000000000E+00 0.  1.
     999901    1    3    3    0    0  0.53450857160E-01  0.11823398887E+00 -0.31810922714E-01  0.89008325738E+00  0.88000000000E+00 0. -1.
        -11    1    4    4    0    0 -0.30952872918E-01 -0.95709876767E-01  0.47352939467E-01  0.11118013694E+00  0.51100000000E-03 0.  1.
         11    1    4    4    0    0 -0.23143237664E-01 -0.17621989199E-01 -0.30752306977E-02  0.29255121223E-01  0.51100000000E-03 0. -1.
</event>
<event>
 8    1  0.2123879E+004  0.1043930E+01  0.7957747E-01            NaN
         13   -1    0    0    0    0  0.00000000000E+00  0.00000000000E+00  0.74505805969E-08  0.10566000000E+00  0.10566000000E+00 0. -1.
     999900   -1    0    0    0    0 -0.00000000000E+00 -0.00000000000E+00 -0.74505805969E-08  0.93827000000E+00  0.93827000000E+00 0. -1.
     999902    2    1    2    0    0 -0.51730925207E-02 -0.65477511375E-02 -0.11489180499E-01  0.10297301690E+01  0.10296322576E+01 0.  0.
     999903    2    3    3    0    0 -0.49406976414E-01  0.11358302555E+00  0.43248543707E-01  0.13878445887E+00  0.45260760940E-01 0.  0.
         14    1    1    2    0    0  0.51730925207E-02  0.65477511375E-02  0.11489180499E-01  0.14199830975E-01  0.00000000000E+00 0. -1.
     999901    1    3    3    0    0  0.44233883893E-01 -0.12013077668E+00 -0.54737724206E-01  0.89094571015E+00  0.88000000000E+00 0. -1.
        -11    1    4    4    0    0 -0.14881932140E-01  0.57112534388E-01 -0.12358315837E-02  0.59034751537E-01  0.51100000000E-03 0. -1.
         11    1    4    4    0    0 -0.34525044274E-01  0.56470491157E-01  0.44484375291E-01  0.79749707333E-01  0.51100000000E-03 0.  1.
</event>
<event>
 7    1  0.2123879E+004  0.1043930E+01  0.7957747E-01            NaN
         13   -1    0    0    0    0  0.00000000000E+00  0.00000000000E+00  0.74505805969E-08  0.10566000000E+00  0.10566000000E+00 0.  1.
     999900   -1    0    0    0    0 -0.00000000000E+00 -0.00000000000E+00 -0.74505805969E-08  0.93827000000E+00  0.93827000000E+00 0. -1.
     999903    2    1    2    0    0  0.49126962040E-01  0.70314691186E-01 -0.34325672434E-01  0.10294788575E+00  0.45413667504E-01 0.  0.
         14    1    1    2    0    0  0.48271662052E-01  0.12128889670E-01  0.13347964199E-01  0.51530878802E-01  0.00000000000E+00 0.  1.
     999901    1    1    2    0    0 -0.97398624092E-01 -0.82443580856E-01  0.20977708235E-01  0.88945123545E+00  0.88000000000E+00 0.  1.
        -11    1    3    3    0    0  0.12030209812E-01  0.30040468018E-01 -0.35682280212E-01  0.48173041309E-01  0.51100000000E-03 0. -1.
         11    1    3    3    0    0  0.37096752228E-01  0.40274223168E-01  0.13566077782E-02  0.54774844439E-01  0.51100000000E-03 0.  1.
</event>
<event>
 8    1  0.2123879E+004  0.1043930E+01  0.7957747E-01            NaN
         13   -1    0    0    0    0  0.00000000000E+00  0.00000000000E+00  0.74505805969E-08  0.10566000000E+00  0.10566000000E+00 0. -1.
     999900   -1    0    0    0    0 -0.00000000000E+00 -0.00000000000E+00 -0.74505805969E-08  0.93827000000E+00  0.93827000000E+00 0. -1.
     999902    2    1    2    0    0  0.54882854189E-02  0.72270575345E-02 -0.10624838956E-01  0.10299572107E+01  0.10298624263E+01 0.  0.
     999903    2    3    3    0    0  0.15772398285E-01  0.78159955347E-02 -0.13312353192E+00  0.14141231056E+00  0.44336311224E-01 0.  0.
         14    1    1    2    0    0 -0.54882854189E-02 -0.72270575345E-02  0.10624838956E-01  0.13972789281E-01  0.00000000000E+00 0. -1.
     999901    1    3    3    0    0 -0.10284112867E-01 -0.58893800015E-03  0.12249869296E+00  0.88854490016E+00  0.88000000000E+00 0.  1.
        -11    1    4    4    0    0  0.30320848981E-01  0.11898000540E-01 -0.92141529573E-01  0.97730439950E-01  0.51100000000E-03 0.  1.
         11    1    4    4    0    0 -0.14548450696E-01 -0.40820050054E-02 -0.40982002346E-01  0.43681870608E-01  0.51100000000E-03 0. -1.
</event>
<event>
 8    1  0.2123879E+004  0.1043930E+01  0.7957747E-01            NaN
         13   -1    0    0    0    0  0.00000000000E+00  0.00000000000E+00  0.74505805969E-08  0.10566000000E+00  0.10566000000E+00 0. -1.
     999900   -1    0    0    0    0 -0.00000000000E+00 -0.00000000000E+00 -0.74505805969E-08  0.93827000000E+00  0.93827000000E+00 0. -1.
     999902    2    1    2    0    0 -0.14986645232E-02 -0.69284352845E-02 -0.71960622870E-02  0.10338288850E+01  0.10337795370E+01 0.  0.
     999903    2    3    3    0    0  0.94764159492E-01  0.46003869186E-01 -0.89882067309E-01  0.14315198764E+00  0.36291922490E-01 0.  0.
         14    1    1    2    0    0  0.14986645232E-02  0.69284352845E-02  0.71960622870E-02  0.10101114952E-01  0.00000000000E+00 0. -1.
     999901    1    3    3    0    0 -0.96262824015E-01 -0.52932304471E-01  0.82686005022E-01  0.89067689740E+00  0.88000000000E+00 0.  1.
        -11    1    4    4    0    0  0.53671954753E-01  0.13692907687E-01 -0.27757207447E-01  0.61958842260E-01  0.51100000000E-03 0.  1.
         11    1    4    4    0    0  0.41092204739E-01  0.32310961499E-01 -0.62124859862E-01  0.81193145383E-01  0.51100000000E-03 0. -1.
</event>
<event>
 8    1  0.2123879E+004  0.1043930E+01  0.7957747E-01            NaN
         13   -1    0    0    0    0  0.00000000000E+00  0.00000000000E+00  0.74505805969E-08  0.10566000000E+00  0.10566000000E+00 0.  1.
     999900   -1    0    0    0    0 -0.00000000000E+00 -0.00000000000E+00 -0.74505805969E-08  0.93827000000E+00  0.93827000000E+00 0. -1.
     999902    2    1    2    0    0  0.21573925261E-02 -0.50854444377E-02 -0.12290502936E-01  0.10304551141E+01  0.10303670072E+01 0.  0.
     999903    2    3    3    0    0  0.65840205678E-01  0.11423215971E+00 -0.14120067348E-01  0.14012060468E+00  0.45282320600E-01 0.  0.
         14    1    1    2    0    0 -0.21573925261E-02  0.50854444377E-02  0.12290502936E-01  0.13474885901E-01  0.00000000000E+00 0.  1.
     999901    1    3    3    0    0 -0.63682813152E-01 -0.11931760415E+00  0.18295644120E-02  0.89033450942E+00  0.88000000000E+00 0.  1.
        -11    1    4    4    0    0  0.61899888983E-01  0.88171444020E-01  0.45331927205E-02  0.10782676270E+00  0.51100000000E-03 0.  1.
         11    1    4    4    0    0  0.39403166941E-02  0.26060715691E-01 -0.18653260068E-01  0.32293841985E-01  0.51100000000E-03 0. -1.
</event>
<event>
 7    1  0.2581629E+004  0.1043930E+01  0.7957747E-01            NaN
         13   -1    0    0    0    0  0.00000000000E+00  0.00000000000E+00  0.74505805969E-08  0.10566000000E+00  0.10566000000E+00 0. -1.
     999900   -1    0    0    0    0 -0.00000000000E+00 -0.00000000000E+00 -0.74505805969E-08  0.93827000000E+00  0.93827000000E+00 0. -1.
     999903    2    1    2    0    0 -0.15572297955E-01  0.10885490372E+00 -0.31996527129E-01  0.12310769551E+00  0.45164592545E-01 0.  0.
         14    1    1    2    0    0  0.28598519734E-01 -0.12745641017E-01  0.16424891106E-01  0.35356806187E-01  0.00000000000E+00 0. -1.
     999901    1    1    2    0    0 -0.13026221779E-01 -0.96109262699E-01  0.15571636023E-01  0.88546549830E+00  0.88000000000E+00 0. -1.
        -11    1    3    3    0    0  0.10354809323E-02  0.35329459995E-01  0.10109327605E-01  0.36765508155E-01  0.51100000000E-03 0.  1.
         11    1    3    3    0    0 -0.16607778887E-01  0.73525443721E-01 -0.42105854734E-01  0.86342187358E-01  0.51100000000E-03 0. -1.
</event>
<event>
 8    1  0.2123879E+004  0.1043930E+01  0.7957747E-01            NaN
         13   -1    0    0    0    0  0.00000000000E+00  0.00000000000E+00  0.74505805969E-08  0.10566000000E+00  0.10566000000E+00 0. -1.
     999900   -1    0    0    0    0 -0.00000000000E+00 -0.00000000000E+00 -0.74505805969E-08  0.93827000000E+00  0.93827000000E+00 0.  1.
     999902    2    1    2    0    0 -0.12654191391E-01 -0.26134194875E-02 -0.11473329372E-03  0.10310082476E+01  0.10309272695E+01 0.  0.
     999903    2    3    3    0    0  0.39007432411E-01 -0.16081417932E-01  0.12616247686E+00  0.14039259304E+00  0.44865552774E-01 0.  0.
         14    1    1    2    0    0  0.12654191391E-01  0.26134194875E-02  0.11473329372E-03  0.12921752393E-01  0.00000000000E+00 0.  1.
     999901    1    3    3    0    0 -0.51661623801E-01  0.13467998444E-01 -0.12627721016E+00  0.89061565457E+00  0.88000000000E+00 0. -1.
        -11    1    4    4    0    0  0.57581823680E-02 -0.22296871116E-01  0.79419858506E-01  0.82692697210E-01  0.51100000000E-03 0. -1.
         11    1    4    4    0    0  0.33249250043E-01  0.62154531847E-02  0.46742618358E-01  0.57699895829E-01  0.51100000000E-03 0.  1.
</event>
<event>
 8    1  0.2123879E+004  0.1043930E+01  0.7957747E-01            NaN
         13   -1    0    0    0    0  0.00000000000E+00  0.00000000000E+00  0.74505805969E-08  0.10566000000E+00  0.10566000000E+00 0. -1.
     999900   -1    0    0    0    0 -0.00000000000E+00 -0.00000000000E+00 -0.74505805969E-08  0.93827000000E+00  0.93827000000E+00 0. -1.
     999902    2    1    2    0    0 -0.10200416838E-01  0.11507325663E-01  0.69474080101E-02  0.10270559511E+01  0.10269173254E+01 0.  0.
     999903    2    3    3    0    0 -0.12003702962E+00  0.28055669014E-01 -0.43320899556E-01  0.13865017000E+00  0.46380602202E-01 0.  0.
         14    1    1    2    0    0  0.10200416838E-01 -0.11507325663E-01 -0.69474080101E-02  0.16874048881E-01  0.00000000000E+00 0.  1.
     999901    1    3    3    0    0  0.10983661278E+00 -0.16548343352E-01  0.50268307566E-01  0.88840578112E+00  0.88000000000E+00 0.  1.
        -11    1    4    4    0    0 -0.10071485553E+00  0.34042644220E-01 -0.20719412044E-01  0.10831407529E+00  0.51100000000E-03 0. -1.
         11    1    4    4    0    0 -0.19322174083E-01 -0.59869752051E-02 -0.22601487512E-01  0.30336094708E-01  0.51100000000E-03 0.  1.
</event>
<event>
 8    1  0.2123879E+004  0.1043930E+01  0.7957747E-01            NaN
         13   -1    0    0    0    0  0.00000000000E+00  0.00000000000E+00  0.74505805969E-08  0.10566000000E+00  0.10566000000E+00 0. -1.
     999900   -1    0    0    0    0 -0.00000000000E+00 -0.00000000000E+00 -0.74505805969E-08  0.93827000000E+00  0.93827000000E+00 0.  1.
     999902    2    1    2    0    0  0.97495974206E-02  0.61251406776E-02 -0.65602978073E-02  0.10306782263E+01  0.10305930316E+01 0.  0.
     999903    2    3    3    0    0  0.23623570485E-01 -0.10340707863E+00  0.78642949034E-01  0.13969596642E+00  0.45597725914E-01 0.  0.
         14    1    1    2    0    0 -0.97495974206E-02 -0.61251406776E-02  0.65602978073E-02  0.13251773674E-01  0.00000000000E+00 0. -1.
     999901    1    3    3    0    0 -0.13873973064E-01  0.10953221931E+00 -0.85203246841E-01  0.89098225991E+00  0.88000000000E+00 0.  1.
        -11    1    4    4    0    0  0.92009499791E-02 -0.93854827705E-01  0.77990370921E-01  0.12237706175E+00  0.51100000000E-03 0. -1.
         11    1    4    4    0    0  0.14422620506E-01 -0.95522509225E-02  0.65257811326E-03  0.17318904675E-01  0.51100000000E-03 0.  1.
</event>
<event>
 8    1  0.2123879E+004  0.1043930E+01  0.7957747E-01            NaN
         13   -1    0    0    0    0  0.00000000000E+00  0.00000000000E+00  0.74505805969E-08  0.10566000000E+00  0.10566000000E+00 0. -1.
     999900   -1    0    0    0    0 -0.00000000000E+00 -0.00000000000E+00 -0.74505805969E-08  0.93827000000E+00  0.93827000000E+00 0.  1.
     999902    2    1    2    0    0  0.72985742191E-02  0.37956308284E-03  0.11447482308E-01  0.10303484646E+01  0.10302589482E+01 0.  0.
     999903    2    3    3    0    0 -0.69561052716E-01  0.11136326935E+00 -0.97936963129E-02  0.13980033392E+00  0.46986158193E-01 0.  0.
         14    1    1    2    0    0 -0.72985742191E-02 -0.37956308284E-03 -0.11447482308E-01  0.13581535442E-01  0.00000000000E+00 0.  1.
     999901    1    3    3    0    0  0.76859626935E-01 -0.11098370627E+00  0.21241178621E-01  0.89054813064E+00  0.88000000000E+00 0. -1.
        -11    1    4    4    0    0 -0.61115890727E-01  0.69649127773E-01 -0.22548326592E-01  0.95366877122E-01  0.51100000000E-03 0.  1.
         11    1    4    4    0    0 -0.84451619887E-02  0.41714141578E-01  0.12754630280E-01  0.44433456800E-01  0.51100000000E-03 0. -1.
</event>
<event>
 8    1  0.2123879E+004  0.1043930E+01  0.7957747E-01            NaN
         13   -1    0    0    0    0  0.00000000000E+00  0.00000000000E+00  0.74505805969E-08  0.10566000000E+00  0.10566000000E+00 0.  1.
     999900   -1    0    0    0    0 -0.00000000000E+00 -0.00000000000E+00 -0.74505805969E-08  0.93827000000E+00  0.93827000000E+00 0.  1.
     999902    2    1    2    0    0  0.13818439762E-01 -0.28733223992E-02  0.42030414080E-02  0.10292034656E+01  0.10290981016E+01 0.  0.
     999903    2    3    3    0    0 -0.16188868144E-01 -0.12920335451E+00  0.23479875843E-01  0.13946681247E+00  0.44091960040E-01 0.  0.
         14    1    1    2    0    0 -0.13818439762E-01  0.28733223992E-02 -0.42030414080E-02  0.14726534424E-01  0.00000000000E+00 0.  1.
     999901    1    3    3    0    0  0.30007307905E-01  0.12633003212E+00 -0.19276834436E-01  0.88973665311E+00  0.88000000000E+00 0. -1.
        -11    1    4    4    0    0  0.91353690981E-02 -0.39065497600E-01 -0.75558604088E-02  0.40827934295E-01  0.51100000000E-03 0.  1.
         11    1    4    4    0    0 -0.25324237242E-01 -0.90137856915E-01  0.31035736252E-01  0.98638878171E-01  0.51100000000E-03 0. -1.
</event>
<event>
 8    1  0.2123879E+004  0.1043930E+01  0.7957747E-01            NaN
         13   -1    0    0    0    0  0.00000000000E+00  0.00000000000E+00  0.74505805969E-08  0.10566000000E+00  0.10566000000E+00 0.  1.
     999900   -1    0    0    0    0 -0.00000000000E+00 -0.00000000000E+00 -0.74505805969E-08  0.93827000000E+00  0.93827000000E+00 0. -1.
     999902    2    1    2    0    0 -0.10867962730E-01  0.47062575364E-02 -0.72315634464E-02  0.10300535097E+01  0.10299600360E+01 0.  0.
     999903    2    3    3    0    0  0.10906762120E+00 -0.66163041810E-01 -0.28526921501E-01  0.13884057543E+00  0.46793440151E-01 0.  0.
         14    1    1    2    0    0  0.10867962730E-01 -0.47062575364E-02  0.72315634464E-02  0.13876490326E-01  0.00000000000E+00 0.  1.
     999901    1    3    3    0    0 -0.11993558393E+00  0.70869299347E-01  0.21295358054E-01  0.89121293424E+00  0.88000000000E+00 0.  1.
        -11    1    4    4    0    0  0.30274347555E-01  0.36591547968E-02 -0.86407877293E-02  0.31699366986E-01  0.51100000000E-03 0.  1.
         11    1    4    4    0    0  0.78793273642E-01 -0.69822196607E-01 -0.19886133771E-01  0.10714120845E+00  0.51100000000E-03 0. -1.
</event>
<event>
 8    1  0.2123879E+004  0.1043930E+01  0.7957747E-01            NaN
         13   -1    0    0    0    0  0.00000000000E+00  0.00000000000E+00  0.74505805969E-08  0.10566000000E+00  0.10566000000E+00 0.  1.
     999900   -1    0    0    0    0 -0.00000000000E+00 -0.00000000000E+00 -0.74505805969E-08  0.93827000000E+00  0.93827000000E+00 0.  1.
     999902    2    1    2    0    0 -0.10359253461E-01 -0.78588221493E-02  0.48734277319E-02  0.10300438373E+01  0.10299502324E+01 0.  0.
     999903    2    3    3    0    0  0.13004873927E+00  0.13081716640E-02 -0.17708506252E-01  0.13857965854E+00  0.44456098225E-01 0.  0.
         14    1    1    2    0    0  0.10359253461E-01  0.78588221493E-02 -0.48734277319E-02  0.13886162742E-01  0.00000000000E+00 0. -1.
     999901    1    3    3    0    0 -0.14040799273E+00 -0.91669938133E-02  0.22581933984E-01  0.89146417872E+00  0.88000000000E+00 0.  1.
        -11    1    4    4    0    0  0.25353391430E-01  0.11643421995E-01  0.10242784418E-01  0.29724392112E-01  0.51100000000E-03 0.  1.
         11    1    4    4    0    0  0.10469534784E+00 -0.10335250331E-01 -0.27951290670E-01  0.10885526643E+00  0.51100000000E-03 0. -1.
</event>
<event>
 8    1  0.2123879E+004  0.1043930E+01  0.7957747E-01            NaN
         13   -1    0    0    0    0  0.00000000000E+00  0.00000000000E+00  0.74505805969E-08  0.10566000000E+00  0.10566000000E+00 0.  1.
     999900   -1    0    0    0    0 -0.00000000000E+00 -0.00000000000E+00 -0.74505805969E-08  0.93827000000E+00  0.93827000000E+00 0.  1.
     999902    2    1    2    0    0  0.18045850912E-02  0.58150631746E-02  0.12407419594E-01  0.10301091625E+01  0.10300164422E+01 0.  0.
     999903    2    3    3    0    0  0.56503290595E-01  0.10409501730E+00 -0.59785583658E-01  0.14001774730E+00  0.44746609612E-01 0.  0.
         14    1    1    2    0    0 -0.18045850912E-02 -0.58150631746E-02 -0.12407419594E-01  0.13820837458E-01  0.00000000000E+00 0. -1.
     999901    1    3    3    0    0 -0.54698705504E-01 -0.98279954123E-01  0.72193003252E-01  0.89009141524E+00  0.88000000000E+00 0. -1.
        -11    1    4    4    0    0  0.26202089126E-02  0.50604536142E-01 -0.23047317544E-01  0.55669781209E-01  0.51100000000E-03 0. -1.
         11    1    4    4    0    0  0.53883081682E-01  0.53490481156E-01 -0.36738266114E-01  0.84347966092E-01  0.51100000000E-03 0.  1.
</event>
<event>
 8    1  0.2480432E+004  0.1043930E+01  0.7957747E-01            NaN
         13   -1    0    0    0    0  0.00000000000E+00  0.00000000000E+00  0.74505805969E-08  0.10566000000E+00  0.10566000000E+00 0. -1.
     999900   -1    0    0    0    0 -0.00000000000E+00 -0.00000000000E+00 -0.74505805969E-08  0.93827000000E+00  0.93827000000E+00 0.  1.
     999902    2    1    2    0    0  0.94716953197E-02 -0.10364352548E-01 -0.11106025479E-01  0.10260281393E+01  0.10258719540E+01 0.  0.
     999903    2    3    3    0    0 -0.48990587955E-01 -0.40381713589E-01  0.10585525117E+00  0.13586027826E+00  0.56761963552E-01 0.  0.
         14    1    1    2    0    0 -0.94716953197E-02  0.10364352548E-01  0.11106025479E-01  0.17901860739E-01  0.00000000000E+00 0. -1.
     999901    1    3    3    0    0  0.58462283275E-01  0.30017361041E-01 -0.11696127665E+00  0.89016786100E+00  0.88000000000E+00 0.  1.
        -11    1    4    4    0    0 -0.54740522050E-01 -0.14116065501E-01  0.58178864250E-01  0.81122311518E-01  0.51100000000E-03 0.  1.
         11    1    4    4    0    0  0.57499340952E-02 -0.26265648089E-01  0.47676386924E-01  0.54737966739E-01  0.51100000000E-03 0. -1.
</event>
<event>
 8    1  0.2123879E+004  0.1043930E+01  0.7957747E-01            NaN
         13   -1    0    0    0    0  0.00000000000E+00  0.00000000000E+00  0.74505805969E-08  0.10566000000E+00  0.10566000000E+00 0.  1.
     999900   -1    0    0    0    0 -0.00000000000E+00 -0.00000000000E+00 -0.74505805969E-08  0.93827000000E+00  0.93827000000E+00 0. -1.
     999902    2    1    2    0    0  0.40855168789E-02 -0.13722989623E-01  0.43639156277E-02  0.10289615114E+01  0.10288526310E+01 0.  0.
     999903    2    3    3    0    0 -0.10694053048E+00  0.57563422460E-01  0.53296651257E-01  0.13778086281E+00  0.37325707723E-01 0.  0.
         14    1    1    2    0    0 -0.40855168789E-02  0.13722989623E-01 -0.43639156277E-02  0.14968488633E-01  0.00000000000E+00 0.  1.
     999901    1    3    3    0    0  0.11102604736E+00 -0.71286412083E-01 -0.48932735629E-01  0.89118064855E+00  0.88000000000E+00 0.  1.
        -11    1    4    4    0    0 -0.34424943770E-01  0.31826480114E-03  0.18247465658E-01  0.38966770074E-01  0.51100000000E-03 0. -1.
         11    1    4    4    0    0 -0.72515586713E-01  0.57245157659E-01  0.35049185599E-01  0.98814092739E-01  0.51100000000E-03 0.  1.
</event>
<event>
 8    1  0.2123879E+004  0.1043930E+01  0.7957747E-01            NaN
         13   -1    0    0    0    0  0.00000000000E+00  0.00000000000E+00  0.74505805969E-08  0.10566000000E+00  0.10566000000E+00 0.  1.
     999900   -1    0    0    0    0 -0.00000000000E+00 -0.00000000000E+00 -0.74505805969E-08  0.93827000000E+00  0.93827000000E+00 0.  1.
     999902    2    1    2    0    0 -0.89615801945E-02 -0.23037157847E-02  0.78053955571E-02  0.10318245787E+01  0.10317535655E+01 0.  0.
     999903    2    3    3    0    0 -0.10316340426E+00 -0.70445550171E-01  0.52951624556E-01  0.14303018441E+00  0.45260309240E-01 0.  0.
         14    1    1    2    0    0  0.89615801945E-02  0.23037157847E-02 -0.78053955571E-02  0.12105421339E-01  0.00000000000E+00 0. -1.
     999901    1    3    3    0    0  0.94201824068E-01  0.68141834386E-01 -0.45146228999E-01  0.88879439425E+00  0.88000000000E+00 0. -1.
        -11    1    4    4    0    0 -0.90396261720E-01 -0.41488150537E-01  0.49766498294E-01  0.11121922604E+00  0.51100000000E-03 0. -1.
         11    1    4    4    0    0 -0.12767142543E-01 -0.28957399634E-01  0.31851262618E-02  0.31810958372E-01  0.51100000000E-03 0.  1.
</event>
<event>
 8    1  0.2123879E+004  0.1043930E+01  0.7957747E-01            NaN
         13   -1    0    0    0    0  0.00000000000E+00  0.00000000000E+00  0.74505805969E-08  0.10566000000E+00  0.10566000000E+00 0.  1.
     999900   -1    0    0    0    0 -0.00000000000E+00 -0.00000000000E+00 -0.74505805969E-08  0.93827000000E+00  0.93827000000E+00 0. -1.
     999902    2    1    2    0    0 -0.12668787312E-01 -0.38907443566E-02  0.42774455389E-02  0.10300040313E+01  0.10299098853E+01 0.  0.
     999903    2    3    3    0    0 -0.23430545256E-01 -0.42096183552E-01 -0.12333438592E+00  0.13991400747E+00  0.45204862716E-01 0.  0.
         14    1    1    2    0    0  0.12668787312E-01  0.38907443566E-02 -0.42774455389E-02  0.13925968690E-01  0.00000000000E+00 0. -1.
     999901    1    3    3    0    0  0.10761757944E-01  0.38205439195E-01  0.12761183146E+00  0.89009002384E+00  0.88000000000E+00 0.  1.
        -11    1    4    4    0    0 -0.73802172872E-03 -0.24389217800E-01 -0.99769334260E-01  0.10271105004E+00  0.51100000000E-03 0.  1.
         11    1    4    4    0    0 -0.22692523527E-01 -0.17706965752E-01 -0.23565051665E-01  0.37202957425E-01  0.51100000000E-03 0. -1.
</event>
<event>
 8    1  0.2123879E+004  0.1043930E+01  0.7957747E-01            NaN
         13   -1    0    0    0    0  0.00000000000E+00  0.00000000000E+00  0.74505805969E-08  0.10566000000E+00  0.10566000000E+00 0. -1.
     999900   -1    0    0    0    0 -0.00000000000E+00 -0.00000000000E+00 -0.74505805969E-08  0.93827000000E+00  0.93827000000E+00 0.  1.
     999902    2    1    2    0    0  0.95382937138E-02  0.13876318653E-01 -0.41415342195E-02  0.10265897701E+01  0.10264433119E+01 0.  0.
     999903    2    3    3    0    0  0.83733228139E-01 -0.66157089201E-01 -0.73391907810E-01  0.13714845733E+00  0.45114446356E-01 0.  0.
         14    1    1    2    0    0 -0.95382937138E-02 -0.13876318653E-01  0.41415342195E-02  0.17340229872E-01  0.00000000000E+00 0. -1.
     999901    1    3    3    0    0 -0.74194934426E-01  0.80033407854E-01  0.69250373591E-01  0.88944131280E+00  0.88000000000E+00 0. -1.
        -11    1    4    4    0    0  0.50513069811E-01 -0.43880263204E-01 -0.18862713803E-01  0.69520578346E-01  0.51100000000E-03 0. -1.
         11    1    4    4    0    0  0.33220158328E-01 -0.22276825997E-01 -0.54529194007E-01  0.67627878985E-01  0.51100000000E-03 0.  1.
</event>
<event>
 8    1  0.2123879E+004  0.1043930E+01  0.7957747E-01            NaN
         13   -1    0    0    0    0  0.00000000000E+00  0.00000000000E+00  0.74505805969E-08  0.10566000000E+00  0.10566000000E+00 0.  1.
     999900   -1    0    0    0    0 -0.00000000000E+00 -0.00000000000E+00 -0.74505805969E-08  0.93827000000E+00  0.93827000000E+00 0. -1.
     999902    2    1    2    0    0  0.12475314965E-01 -0.67419118691E-04 -0.74264357166E-02  0.10294113921E+01  0.10293090032E+01 0.  0.
     999903    2    3    3    0    0 -0.87817675055E-01  0.27618120826E-02 -0.99664027389E-01  0.13892025696E+00  0.40575211387E-01 0.  0.
         14    1    1    2    0    0 -0.12475314965E-01  0.67419118691E-04  0.74264357166E-02  0.14518607932E-01  0.00000000000E+00 0.  1.
     999901    1    3    3    0    0  0.10029299002E+00 -0.28292312013E-02  0.92237591672E-01  0.89049113511E+00  0.88000000000E+00 0.  1.
        -11    1    4    4    0    0 -0.13425000907E-01  0.13388757365E-01 -0.34869695998E-01  0.39694411359E-01  0.51100000000E-03 0. -1.
         11    1    4    4    0    0 -0.74392674149E-01 -0.10626945282E-01 -0.64794331391E-01  0.99225845597E-01  0.51100000000E-03 0.  1.
</event>
<event>
 8    1  0.2123879E+004  0.1043930E+01  0.7957747E-01            NaN
         13   -1    0    0    0    0  0.00000000000E+00  0.00000000000E+00  0.74505805969E-08  0.10566000000E+00  0.10566000000E+00 0.  1.
     999900   -1    0    0    0    0 -0.00000000000E+00 -0.00000000000E+00 -0.74505805969E-08  0.93827000000E+00  0.93827000000E+00 0.  1.
     999902    2    1    2    0    0  0.98710967582E-03 -0.13027995360E-01  0.41852952623E-02  0.10302106799E+01  0.10301193257E+01 0.  0.
     999903    2    3    3    0    0 -0.10183997080E+00 -0.75582685671E-01 -0.39735916972E-01  0.14093256215E+00  0.46892664153E-01 0.  0.
         14    1    1    2    0    0 -0.98710967582E-03  0.13027995360E-01 -0.41852952623E-02  0.13719320138E-01  0.00000000000E+00 0.  1.
     999901    1    3    3    0    0  0.10282708047E+00  0.62554690311E-01  0.43921212235E-01  0.88927811771E+00  0.88000000000E+00 0. -1.
        -11    1    4    4    0    0 -0.79505326687E-01 -0.72361298512E-01 -0.46843797195E-01  0.11726831179E+00  0.51100000000E-03 0.  1.
         11    1    4    4    0    0 -0.22334644109E-01 -0.32213871596E-02  0.71078802227E-02  0.23664250358E-01  0.51100000000E-03 0. -1.
</event>
<event>
 8    1  0.2123879E+004  0.1043930E+01  0.7957747E-01            NaN
         13   -1    0    0    0    0  0.00000000000E+00  0.00000000000E+00  0.74505805969E-08  0.10566000000E+00  0.10566000000E+00 0. -1.
     999900   -1    0    0    0    0 -0.00000000000E+00 -0.00000000000E+00 -0.74505805969E-08  0.93827000000E+00  0.93827000000E+00 0. -1.
     999902    2    1    2    0    0  0.84835232760E-02  0.76640634739E-02 -0.75042775767E-02  0.10302543933E+01  0.10301636243E+01 0.  0.
     999903    2    3    3    0    0 -0.89876657003E-01 -0.63458203492E-02 -0.97403345188E-01  0.14011235731E+00  0.45010866557E-01 0.  0.
         14    1    1    2    0    0 -0.84835232760E-02 -0.76640634739E-02  0.75042775767E-02  0.13675606680E-01  0.00000000000E+00 0. -1.
     999901    1    3    3    0    0  0.98360180279E-01  0.14009883823E-01  0.89899067611E-01  0.89014203601E+00  0.88000000000E+00 0.  1.
        -11    1    4    4    0    0 -0.14307958602E-01 -0.67031940224E-03 -0.46903680859E-01  0.49044708242E-01  0.51100000000E-03 0.  1.
         11    1    4    4    0    0 -0.75568698401E-01 -0.56755009470E-02 -0.50499664329E-01  0.91067649071E-01  0.51100000000E-03 0. -1.
</event>
<event>
 8    1  0.2123879E+004  0.1043930E+01  0.7957747E-01            NaN
         13   -1    0    0    0    0  0.00000000000E+00  0.00000000000E+00  0.74505805969E-08  0.10566000000E+00  0.10566000000E+00 0. -1.
     999900   -1    0    0    0    0 -0.00000000000E+00 -0.00000000000E+00 -0.74505805969E-08  0.93827000000E+00  0.93827000000E+00 0.  1.
     999902    2    1    2    0    0  0.56293431507E-02  0.82783299918E-02  0.81674578599E-02  0.10310099528E+01  0.10309289962E+01 0.  0.
     999903    2    3    3    0    0  0.10423678862E+00  0.83662187021E-01 -0.17168980681E-01  0.14193847687E+00  0.44576761640E-01 0.  0.
         14    1    1    2    0    0 -0.56293431507E-02 -0.82783299918E-02 -0.81674578599E-02  0.12920047200E-01  0.00000000000E+00 0.  1.
     999901    1    3    3    0    0 -0.98607445469E-01 -0.75383857029E-01  0.25336438541E-01  0.88907147593E+00  0.88000000000E+00 0.  1.
        -11    1    4    4    0    0  0.62138356286E-01  0.70057881610E-01  0.21244383821E-02  0.93669933581E-01  0.51100000000E-03 0. -1.
         11    1    4    4    0    0  0.42098432334E-01  0.13604305411E-01 -0.19293419063E-01  0.48268543284E-01  0.51100000000E-03 0.  1.
</event>
<event>
 8    1  0.2123879E+004  0.1043930E+01  0.7957747E-01            NaN
         13   -1    0    0    0    0  0.00000000000E+00  0.00000000000E+00  0.74505805969E-08  0.10566000000E+00  0.10566000000E+00 0. -1.
     999900   -1    0    0    0    0 -0.00000000000E+00 -0.00000000000E+00 -0.74505805969E-08  0.93827000000E+00  0.93827000000E+00 0.  1.
     999902    2    1    2    0    0  0.42798060761E-02 -0.98612673391E-02 -0.15120453106E-01  0.10253776569E+01  0.10252098077E+01 0.  0.
     999903    2    3    3    0    0 -0.96304365476E-01  0.67050218471E-01 -0.52968465066E-01  0.13550967552E+00  0.42272346298E-01 0.  0.
         14    1    1    2    0    0 -0.42798060761E-02  0.98612673391E-02  0.15120453106E-01  0.18552343133E-01  0.00000000000E+00 0.  1.
     999901    1    3    3    0    0  0.10058417155E+00 -0.76911485811E-01  0.37848011960E-01  0.88986798135E+00  0.88000000000E+00 0.  1.
        -11    1    4    4    0    0 -0.27658940890E-01  0.11706840803E-01  0.43317667325E-02  0.30349505050E-01  0.51100000000E-03 0.  1.
         11    1    4    4    0    0 -0.68645424586E-01  0.55343377669E-01 -0.57300231798E-01  0.10516017047E+00  0.51100000000E-03 0. -1.
</event>
<event>
 8    1  0.2123879E+004  0.1043930E+01  0.7957747E-01            NaN
         13   -1    0    0    0    0  0.00000000000E+00  0.00000000000E+00  0.74505805969E-08  0.10566000000E+00  0.10566000000E+00 0.  1.
     999900   -1    0    0    0    0 -0.00000000000E+00 -0.00000000000E+00 -0.74505805969E-08  0.93827000000E+00  0.93827000000E+00 0.  1.
     999902    2    1    2    0    0  0.96677327590E-02  0.15723021562E-02 -0.99890832025E-02  0.10299400402E+01  0.10298450211E+01 0.  0.
     999903    2    3    3    0    0  0.73090899872E-01 -0.48444312870E-01  0.98786777152E-01  0.13957138193E+00  0.45080064563E-01 0.  0.
         14    1    1    2    0    0 -0.96677327590E-02 -0.15723021562E-02  0.99890832025E-02  0.13989959757E-01  0.00000000000E+00 0.  1.
     999901    1    3    3    0    0 -0.63423167113E-01  0.50016615026E-01 -0.10877586035E+00  0.89036865831E+00  0.88000000000E+00 0.  1.
        -11    1    4    4    0    0  0.27123640427E-01 -0.27681464757E-01  0.73622039499E-01  0.83201088828E-01  0.51100000000E-03 0. -1.
         11    1    4    4    0    0  0.45967259445E-01 -0.20762848113E-01  0.25164737653E-01  0.56370293105E-01  0.51100000000E-03 0.  1.
</event>
<event>
 8    1  0.2123879E+004  0.1043930E+01  0.7957747E-01            NaN
         13   -1    0    0    0    0  0.00000000000E+00  0.00000000000E+00  0.74505805969E-08  0.10566000000E+00  0.10566000000E+00 0. -1.
     999900   -1    0    0    0    0 -0.00000000000E+00 -0.00000000000E+00 -0.74505805969E-08  0.93827000000E+00  0.93827000000E+00 0. -1.
     999902    2    1    2    0    0  0.95562558221E-02  0.22770571235E-02 -0.95605521470E-02  0.10302219304E+01  0.10301307270E+01 0.  0.
     999903    2    3    3    0    0  0.70784497906E-01 -0.56590205766E-01  0.96595399158E-01  0.13978196148E+00  0.44670225935E-01 0.  0.
         14    1    1    2    0    0 -0.95562558221E-02 -0.22770571235E-02  0.95605521470E-02  0.13708069588E-01  0.00000000000E+00 0. -1.
     999901    1    3    3    0    0 -0.61228242084E-01  0.58867262889E-01 -0.10615595130E+00  0.89043996893E+00  0.88000000000E+00 0. -1.
        -11    1    4    4    0    0  0.40113891947E-01 -0.28695590284E-01  0.21093170392E-01  0.53644610047E-01  0.51100000000E-03 0. -1.
         11    1    4    4    0    0  0.30670605959E-01 -0.27894615481E-01  0.75502228766E-01  0.86137351436E-01  0.51100000000E-03 0.  1.
</event>
<event>
 7    1  0.2123879E+004  0.1043930E+01  0.7957747E-01            NaN
         13   -1    0    0    0    0  0.00000000000E+00  0.00000000000E+00  0.74505805969E-08  0.10566000000E+00  0.10566000000E+00 0.  1.
     999900   -1    0    0    0    0 -0.00000000000E+00 -0.00000000000E+00 -0.74505805969E-08  0.93827000000E+00  0.93827000000E+00 0.  1.
     999903    2    1    2    0    0 -0.45223231966E-01 -0.20102419892E-01 -0.30079452176E-01  0.73447634949E-01  0.45172266287E-01 0.  0.
         14    1    1    2    0    0 -0.26482650093E-01  0.38724443329E-01 -0.67277272106E-01  0.82019172205E-01  0.00000000000E+00 0. -1.
     999901    1    1    2    0    0  0.71705882059E-01 -0.18622023438E-01  0.97356724282E-01  0.88846319285E+00  0.88000000000E+00 0. -1.
        -11    1    3    3    0    0 -0.17064724234E-01 -0.17650152488E-01  0.81750799028E-02  0.25880992030E-01  0.51100000000E-03 0.  1.
         11    1    3    3    0    0 -0.28158507732E-01 -0.24522674040E-02 -0.38254532079E-01  0.47566642920E-01  0.51100000000E-03 0. -1.
</event>
<event>
 8    1  0.2123879E+004  0.1043930E+01  0.7957747E-01            NaN
         13   -1    0    0    0    0  0.00000000000E+00  0.00000000000E+00  0.74505805969E-08  0.10566000000E+00  0.10566000000E+00 0. -1.
     999900   -1    0    0    0    0 -0.00000000000E+00 -0.00000000000E+00 -0.74505805969E-08  0.93827000000E+00  0.93827000000E+00 0. -1.
     999902    2    1    2    0    0 -0.84756037802E-02 -0.31549177722E-02 -0.10960324310E-01  0.10297202120E+01  0.10296221622E+01 0.  0.
     999903    2    3    3    0    0  0.74784509525E-01 -0.96171956838E-01  0.55806294428E-01  0.13840534206E+00  0.34639977865E-01 0.  0.
         14    1    1    2    0    0  0.84756037802E-02  0.31549177722E-02  0.10960324310E-01  0.14209787985E-01  0.00000000000E+00 0. -1.
     999901    1    3    3    0    0 -0.83260113305E-01  0.93017039065E-01 -0.66766618738E-01  0.89131486995E+00  0.88000000000E+00 0. -1.
        -11    1    4    4    0    0  0.42706904600E-01 -0.30135502490E-01  0.14862430559E-01  0.54343179645E-01  0.51100000000E-03 0.  1.
         11    1    4    4    0    0  0.32077604924E-01 -0.66036454347E-01  0.40943863869E-01  0.84062162416E-01  0.51100000000E-03 0. -1.
</event>
<event>
 8    1  0.2123879E+004  0.1043930E+01  0.7957747E-01            NaN
         13   -1    0    0    0    0  0.00000000000E+00  0.00000000000E+00  0.74505805969E-08  0.10566000000E+00  0.10566000000E+00 0. -1.
     999900   -1    0    0    0    0 -0.00000000000E+00 -0.00000000000E+00 -0.74505805969E-08  0.93827000000E+00  0.93827000000E+00 0. -1.
     999902    2    1    2    0    0 -0.77908761814E-02 -0.11630244646E-01  0.20681724681E-02  0.10297794636E+01  0.10296822355E+01 0.  0.
     999903    2    3    3    0    0 -0.26999829353E-01 -0.13110787101E+00  0.80241687027E-02  0.14147807279E+00  0.45093161016E-01 0.  0.
         14    1    1    2    0    0  0.77908761814E-02  0.11630244646E-01 -0.20681724681E-02  0.14150536370E-01  0.00000000000E+00 0.  1.
     999901    1    3    3    0    0  0.19208953172E-01  0.11947762636E+00 -0.59559962346E-02  0.88830139084E+00  0.88000000000E+00 0. -1.
        -11    1    4    4    0    0 -0.28117312674E-01 -0.80162055218E-01  0.23638037084E-01  0.88179114800E-01  0.51100000000E-03 0.  1.
         11    1    4    4    0    0  0.11174833206E-02 -0.50945815791E-01 -0.15613868381E-01  0.53298957987E-01  0.51100000000E-03 0. -1.
</event>
<event>
 8    1  0.2123879E+004  0.1043930E+01  0.7957747E-01            NaN
         13   -1    0    0    0    0  0.00000000000E+00  0.00000000000E+00  0.74505805969E-08  0.10566000000E+00  0.10566000000E+00 0. -1.
     999900   -1    0    0    0    0 -0.00000000000E+00 -0.00000000000E+00 -0.74505805969E-08  0.93827000000E+00  0.93827000000E+00 0.  1.
     999902    2    1    2    0    0  0.49376104824E-02 -0.12189242524E-01 -0.66269619820E-02  0.10292033488E+01  0.10290979831E+01 0.  0.
     999903    2    3    3    0    0 -0.11701151443E+00 -0.42480022174E-01  0.40693737714E-01  0.13901889093E+00  0.46626440518E-01 0.  0.
         14    1    1    2    0    0 -0.49376104824E-02  0.12189242524E-01  0.66269619820E-02  0.14726651205E-01  0.00000000000E+00 0.  1.
     999901    1    3    3    0    0  0.12194912491E+00  0.30290779650E-01 -0.47320699696E-01  0.89018445786E+00  0.88000000000E+00 0.  1.
        -11    1    4    4    0    0 -0.48725375277E-01  0.50783645137E-02  0.22121091662E-01  0.53754588636E-01  0.51100000000E-03 0.  1.
         11    1    4    4    0    0 -0.68286139149E-01 -0.47558386688E-01  0.18572646052E-01  0.85264302299E-01  0.51100000000E-03 0. -1.
</event>
<event>
 8    1  0.2123879E+004  0.1043930E+01  0.7957747E-01            NaN
         13   -1    0    0    0    0  0.00000000000E+00  0.00000000000E+00  0.74505805969E-08  0.10566000000E+00  0.10566000000E+00 0.  1.
     999900   -1    0    0    0    0 -0.00000000000E+00 -0.00000000000E+00 -0.74505805969E-08  0.93827000000E+00  0.93827000000E+00 0.  1.
     999902    2    1    2    0    0  0.14020680973E-01 -0.97920003346E-03  0.21694369299E-02  0.10297087207E+01  0.10296105112E+01 0.  0.
     999903    2    3    3    0    0 -0.87729809607E-01  0.60199751307E-01  0.77081427576E-01  0.13858143870E+00  0.44076514434E-01 0.  0.
         14    1    1    2    0    0 -0.14020680973E-01  0.97920003346E-03 -0.21694369299E-02  0.14221279276E-01  0.00000000000E+00 0.  1.
     999901    1    3    3    0    0  0.10175049058E+00 -0.61178951340E-01 -0.74911990646E-01  0.89112728202E+00  0.88000000000E+00 0. -1.
        -11    1    4    4    0    0 -0.55486972180E-01  0.61569556003E-01  0.54863189847E-01  0.99397409570E-01  0.51100000000E-03 0.  1.
         11    1    4    4    0    0 -0.32242837427E-01 -0.13698046960E-02  0.22218237729E-01  0.39184029132E-01  0.51100000000E-03 0. -1.
</event>
<event>
 8    1  0.2123879E+004  0.1043930E+01  0.7957747E-01            NaN
         13   -1    0    0    0    0  0.00000000000E+00  0.00000000000E+00  0.74505805969E-08  0.10566000000E+00  0.10566000000E+00 0. -1.
     999900   -1    0    0    0    0 -0.00000000000E+00 -0.00000000000E+00 -0.74505805969E-08  0.93827000000E+00  0.93827000000E+00 0. -1.
     999902    2    1    2    0    0 -0.63679740060E-02  0.34874896182E-02  0.10697614320E-01  0.10310012480E+01  0.10309201815E+01 0.  0.
     999903    2    3    3    0    0  0.82558033070E-01 -0.97717271032E-01 -0.33502971489E-01  0.13965174857E+00  0.44896190222E-01 0.  0.
         14    1    1    2    0    0  0.63679740060E-02 -0.34874896182E-02 -0.10697614320E-01  0.12928752025E-01  0.00000000000E+00 0. -1.
     999901    1    3    3    0    0 -0.88926007076E-01  0.10120476065E+00  0.44200585809E-01  0.89134949941E+00  0.88000000000E+00 0.  1.
        -11    1    4    4    0    0  0.66783021003E-01 -0.60995439384E-01 -0.50484764811E-02  0.90587878636E-01  0.51100000000E-03 0. -1.
         11    1    4    4    0    0  0.15775012066E-01 -0.36721831648E-01 -0.28454495008E-01  0.49063869929E-01  0.51100000000E-03 0.  1.
</event>
<event>
 8    1  0.2123879E+004  0.1043930E+01  0.7957747E-01            NaN
         13   -1    0    0    0    0  0.00000000000E+00  0.00000000000E+00  0.74505805969E-08  0.10566000000E+00  0.10566000000E+00 0. -1.
     999900   -1    0    0    0    0 -0.00000000000E+00 -0.00000000000E+00 -0.74505805969E-08  0.93827000000E+00  0.93827000000E+00 0.  1.
     999902    2    1    2    0    0 -0.88920589687E-02 -0.10288777941E-01 -0.86789533008E-03  0.10303035219E+01  0.10302134081E+01 0.  0.
     999903    2    3    3    0    0 -0.92572178436E-01 -0.59857251690E-01 -0.77095527926E-01  0.14166971204E+00  0.44430711032E-01 0.  0.
         14    1    1    2    0    0  0.88920589687E-02  0.10288777941E-01  0.86789533008E-03  0.13626478141E-01  0.00000000000E+00 0.  1.
     999901    1    3    3    0    0  0.83680119467E-01  0.49568473749E-01  0.76227632596E-01  0.88863380982E+00  0.88000000000E+00 0. -1.
        -11    1    4    4    0    0 -0.93641832563E-01 -0.48388866714E-01 -0.60727018866E-01  0.12164829291E+00  0.51100000000E-03 0. -1.
         11    1    4    4    0    0  0.10696541274E-02 -0.11468384976E-01 -0.16368509060E-01  0.20021419125E-01  0.51100000000E-03 0.  1.
</event>
<event>
 8    1  0.2123879E+004  0.1043930E+01  0.7957747E-01            NaN
         13   -1    0    0    0    0  0.00000000000E+00  0.00000000000E+00  0.74505805969E-08  0.10566000000E+00  0.10566000000E+00 0.  1.
     999900   -1    0    0    0    0 -0.00000000000E+00 -0.00000000000E+00 -0.74505805969E-08  0.93827000000E+00  0.93827000000E+00 0. -1.
     999902    2    1    2    0    0  0.64372864121E-02 -0.20324950890E-02 -0.21140570320E-01  0.10217378075E+01  0.10214967714E+01 0.  0.
     999903    2    3    3    0    0 -0.15279762042E-01 -0.38745832499E-02  0.12113005607E+00  0.13004506079E+00  0.44617752388E-01 0.  0.
         14    1    1    2    0    0 -0.64372864121E-02  0.20324950890E-02  0.21140570320E-01  0.22192192458E-01  0.00000000000E+00 0.  1.
     999901    1    3    3    0    0  0.21717048454E-01  0.18420881609E-02 -0.14227062639E+00  0.89169274676E+00  0.88000000000E+00 0. -1.
        -11    1    4    4    0    0  0.11559712806E-01 -0.35510681144E-03  0.89183674484E-02  0.14613400014E-01  0.51100000000E-03 0.  1.
         11    1    4    4    0    0 -0.26839474849E-01 -0.35194764385E-02  0.11221168862E+00  0.11543166077E+00  0.51100000000E-03 0. -1.
</event>
<event>
 8    1  0.2123879E+004  0.1043930E+01  0.7957747E-01            NaN
         13   -1    0    0    0    0  0.00000000000E+00  0.00000000000E+00  0.74505805969E-08  0.10566000000E+00  0.10566000000E+00 0. -1.
     999900   -1    0    0    0    0 -0.00000000000E+00 -0.00000000000E+00 -0.74505805969E-08  0.93827000000E+00  0.93827000000E+00 0. -1.
     999902    2    1    2    0    0 -0.11069948051E-01 -0.38230273225E-02  0.15475969417E-01  0.10245221429E+01  0.10243383017E+01 0.  0.
     999903    2    3    3    0    0  0.11140249565E+00  0.10556231307E-01  0.61326802685E-01  0.13474207937E+00  0.43272406553E-01 0.  0.
         14    1    1    2    0    0  0.11069948051E-01  0.38230273225E-02 -0.15475969417E-01  0.19407857098E-01  0.00000000000E+00 0.  1.
     999901    1    3    3    0    0 -0.12247244370E+00 -0.14379258630E-01 -0.45850833267E-01  0.88978006353E+00  0.88000000000E+00 0. -1.
        -11    1    4    4    0    0  0.61907624558E-01  0.24801961090E-01  0.23027233968E-01  0.70556402102E-01  0.51100000000E-03 0.  1.
         11    1    4    4    0    0  0.49494871094E-01 -0.14245729783E-01  0.38299568716E-01  0.64185677269E-01  0.51100000000E-03 0. -1.
</event>
<event>
 8    1  0.2123879E+004  0.1043930E+01  0.7957747E-01            NaN
         13   -1    0    0    0    0  0.00000000000E+00  0.00000000000E+00  0.74505805969E-08  0.10566000000E+00  0.10566000000E+00 0.  1.
     999900   -1    0    0    0    0 -0.00000000000E+00 -0.00000000000E+00 -0.74505805969E-08  0.93827000000E+00  0.93827000000E+00 0.  1.
     999902    2    1    2    0    0  0.13881589173E-01  0.24963004512E-02 -0.34491974718E-02  0.10294101172E+01  0.10293077102E+01 0.  0.
     999903    2    3    3    0    0  0.36866574608E-02 -0.16897545147E-01 -0.13145410010E+00  0.13987916607E+00  0.44574456733E-01 0.  0.
         14    1    1    2    0    0 -0.13881589173E-01 -0.24963004512E-02  0.34491974718E-02  0.14519882821E-01  0.00000000000E+00 0.  1.
     999901    1    3    3    0    0  0.10194931713E-01  0.19393845599E-01  0.12800490263E+00  0.88953095111E+00  0.88000000000E+00 0. -1.
        -11    1    4    4    0    0  0.12240391726E-01 -0.25568123070E-01 -0.11945731582E+00  0.12277567972E+00  0.51100000000E-03 0. -1.
         11    1    4    4    0    0 -0.85537342649E-02  0.86705779226E-02 -0.11996784282E-01  0.17103486355E-01  0.51100000000E-03 0.  1.
</event>
<event>
 8    1  0.2181116E+004  0.1043930E+01  0.7957747E-01            NaN
         13   -1    0    0    0    0  0.00000000000E+00  0.00000000000E+00  0.74505805969E-08  0.10566000000E+00  0.10566000000E+00 0.  1.
     999900   -1    0    0    0    0 -0.00000000000E+00 -0.00000000000E+00 -0.74505805969E-08  0.93827000000E+00  0.93827000000E+00 0.  1.
     999902    2    1    2    0    0 -0.73798174782E-02  0.10386209435E-01 -0.93325685700E-02  0.10281365872E+01  0.10280152771E+01 0.  0.
     999903    2    3    3    0    0  0.18938673381E-01 -0.45416778235E-01 -0.12172880846E+00  0.13884498644E+00  0.45151637358E-01 0.  0.
         14    1    1    2    0    0  0.73798174782E-02 -0.10386209435E-01  0.93325685700E-02  0.15793412821E-01  0.00000000000E+00 0.  1.
     999901    1    3    3    0    0 -0.26318490859E-01  0.55802987670E-01  0.11239623989E+00  0.88929160073E+00  0.88000000000E+00 0. -1.
        -11    1    4    4    0    0 -0.13352107788E-01 -0.25396492867E-01 -0.48843663059E-01  0.56650023604E-01  0.51100000000E-03 0.  1.
         11    1    4    4    0    0  0.32290781169E-01 -0.20020285368E-01 -0.72885145405E-01  0.82194962840E-01  0.51100000000E-03 0. -1.
</event>
<event>
 8    1  0.2123879E+004  0.1043930E+01  0.7957747E-01            NaN
         13   -1    0    0    0    0  0.00000000000E+00  0.00000000000E+00  0.74505805969E-08  0.10566000000E+00  0.10566000000E+00 0. -1.
     999900   -1    0    0    0    0 -0.00000000000E+00 -0.00000000000E+00 -0.74505805969E-08  0.93827000000E+00  0.93827000000E+00 0. -1.
     999902    2    1    2    0    0 -0.10259113036E-01  0.35660206156E-03  0.82333469144E-02  0.10307707992E+01  0.10306867981E+01 0.  0.
     999903    2    3    3    0    0  0.11849912818E+00 -0.57206169589E-01 -0.79918441981E-02  0.13939242036E+00  0.45296667233E-01 0.  0.
         14    1    1    2    0    0  0.10259113036E-01 -0.35660206156E-03 -0.82333469144E-02  0.13159200839E-01  0.00000000000E+00 0.  1.
     999901    1    3    3    0    0 -0.12875824122E+00  0.57562771650E-01  0.16225191113E-01  0.89137837880E+00  0.88000000000E+00 0. -1.
        -11    1    4    4    0    0  0.59632137603E-01 -0.39747779043E-02 -0.20195493920E-02  0.59800755809E-01  0.51100000000E-03 0.  1.
         11    1    4    4    0    0  0.58866990577E-01 -0.53231391684E-01 -0.59722948062E-02  0.79591664554E-01  0.51100000000E-03 0. -1.
</event>
<event>
 8    1  0.2123879E+004  0.1043930E+01  0.7957747E-01            NaN
         13   -1    0    0    0    0  0.00000000000E+00  0.00000000000E+00  0.74505805969E-08  0.10566000000E+00  0.10566000000E+00 0. -1.
     999900   -1    0    0    0    0 -0.00000000000E+00 -0.00000000000E+00 -0.74505805969E-08  0.93827000000E+00  0.93827000000E+00 0.  1.
     999902    2    1    2    0    0  0.58247526183E-02  0.39907338247E-02  0.12351017893E-01  0.10297032174E+01  0.10296049313E+01 0.  0.
     999903    2    3    3    0    0 -0.11147179947E+00 -0.49841887215E-01 -0.46055483261E-01  0.13837401247E+00  0.46000912944E-01 0.  0.
         14    1    1    2    0    0 -0.58247526183E-02 -0.39907338247E-02 -0.12351017893E-01  0.14226782578E-01  0.00000000000E+00 0.  1.
     999901    1    3    3    0    0  0.11729655209E+00  0.53832621039E-01  0.58406501155E-01  0.89132920495E+00  0.88000000000E+00 0.  1.
        -11    1    4    4    0    0 -0.10575658448E+00 -0.50731336645E-01 -0.53509757470E-01  0.12892509044E+00  0.51100000000E-03 0. -1.
         11    1    4    4    0    0 -0.57152149834E-02  0.88944943047E-03  0.74542742084E-02  0.94489220322E-02  0.51100000000E-03 0.  1.
</event>
<event>
 8    1  0.2123879E+004  0.1043930E+01  0.7957747E-01            NaN
         13   -1    0    0    0    0  0.00000000000E+00  0.00000000000E+00  0.74505805969E-08  0.10566000000E+00  0.10566000000E+00 0.  1.
     999900   -1    0    0    0    0 -0.00000000000E+00 -0.00000000000E+00 -0.74505805969E-08  0.93827000000E+00  0.93827000000E+00 0. -1.
     999902    2    1    2    0    0 -0.85568704718E-03  0.66357006835E-02  0.12192250596E-01  0.10300226027E+01  0.10299287094E+01 0.  0.
     999903    2    3    3    0    0 -0.23697747941E-01  0.34271841768E-02  0.13205819640E+00  0.14159708573E+00  0.45133564022E-01 0.  0.
         14    1    1    2    0    0  0.85568704718E-03 -0.66357006835E-02 -0.12192250596E-01  0.13907397257E-01  0.00000000000E+00 0. -1.
     999901    1    3    3    0    0  0.22842060894E-01  0.32085165067E-02 -0.11986594580E+00  0.88842551702E+00  0.88000000000E+00 0. -1.
        -11    1    4    4    0    0  0.91312447191E-02  0.31091612374E-02  0.60880751724E-02  0.11418068752E-01  0.51100000000E-03 0.  1.
         11    1    4    4    0    0 -0.32828992660E-01  0.31802293949E-03  0.12597012123E+00  0.13017901697E+00  0.51100000000E-03 0. -1.
</event>
<event>
 8    1  0.2123879E+004  0.1043930E+01  0.7957747E-01            NaN
         13   -1    0    0    0    0  0.00000000000E+00  0.00000000000E+00  0.74505805969E-08  0.10566000000E+00  0.10566000000E+00 0.  1.
     999900   -1    0    0    0    0 -0.00000000000E+00 -0.00000000000E+00 -0.74505805969E-08  0.93827000000E+00  0.93827000000E+00 0.  1.
     999902    2    1    2    0    0  0.27960671004E-02  0.41184599471E-02  0.13344683510E-01  0.10296870972E+01  0.10295885866E+01 0.  0.
     999903    2    3    3    0    0  0.79941289007E-01 -0.97899116072E-01  0.40008151553E-01  0.14004114982E+00  0.45122331897E-01 0.  0.
         14    1    1    2    0    0 -0.27960671004E-02 -0.41184599471E-02 -0.13344683510E-01  0.14242902848E-01  0.00000000000E+00 0. -1.
     999901    1    3    3    0    0 -0.77145221906E-01  0.10201757602E+00 -0.26663468043E-01  0.88964594733E+00  0.88000000000E+00 0. -1.
        -11    1    4    4    0    0  0.73455343027E-01 -0.80516243960E-01  0.48904067931E-01  0.11945887134E+00  0.51100000000E-03 0. -1.
         11    1    4    4    0    0  0.64859459794E-02 -0.17382872112E-01 -0.88959163784E-02  0.20582278477E-01  0.51100000000E-03 0.  1.
</event>
<event>
 8    1  0.2123879E+004  0.1043930E+01  0.7957747E-01            NaN
         13   -1    0    0    0    0  0.00000000000E+00  0.00000000000E+00  0.74505805969E-08  0.10566000000E+00  0.10566000000E+00 0. -1.
     999900   -1    0    0    0    0 -0.00000000000E+00 -0.00000000000E+00 -0.74505805969E-08  0.93827000000E+00  0.93827000000E+00 0.  1.
     999902    2    1    2    0    0 -0.82617544222E-02  0.38556986859E-02  0.10105550847E-01  0.10303195203E+01  0.10302296195E+01 0.  0.
     999903    2    3    3    0    0  0.12416736028E+00 -0.11598037139E-01 -0.41140462580E-01  0.13880258710E+00  0.44961902770E-01 0.  0.
         14    1    1    2    0    0  0.82617544222E-02 -0.38556986859E-02 -0.10105550847E-01  0.13610479654E-01  0.00000000000E+00 0.  1.
     999901    1    3    3    0    0 -0.13242911470E+00  0.15453735825E-01  0.51246013427E-01  0.89151693325E+00  0.88000000000E+00 0.  1.
        -11    1    4    4    0    0  0.10686519023E+00 -0.15527981402E-01 -0.49955971915E-01  0.11898381125E+00  0.51100000000E-03 0. -1.
         11    1    4    4    0    0  0.17302170050E-01  0.39299442630E-02  0.88155093348E-02  0.19818775850E-01  0.51100000000E-03 0.  1.
</event>
<event>
 8    1  0.2123879E+004  0.1043930E+01  0.7957747E-01            NaN
         13   -1    0    0    0    0  0.00000000000E+00  0.00000000000E+00  0.74505805969E-08  0.10566000000E+00  0.10566000000E+00 0. -1.
     999900   -1    0    0    0    0 -0.00000000000E+00 -0.00000000000E+00 -0.74505805969E-08  0.93827000000E+00  0.93827000000E+00 0.  1.
     999902    2    1    2    0    0  0.13064853777E-01  0.80158231647E-02  0.13297108474E-02  0.10285445538E+01  0.10284294760E+01 0.  0.
     999903    2    3    3    0    0 -0.18333982307E-01 -0.11605140551E+00  0.55672309308E-01  0.13762834998E+00  0.45145244128E-01 0.  0.
         14    1    1    2    0    0 -0.13064853777E-01 -0.80158231647E-02 -0.13297108474E-02  0.15385446245E-01  0.00000000000E+00 0.  1.
     999901    1    3    3    0    0  0.31398836084E-01  0.12406722867E+00 -0.54342598461E-01  0.89091620377E+00  0.88000000000E+00 0.  1.
        -11    1    4    4    0    0  0.25044656350E-03 -0.73995137417E-01  0.54017983205E-01  0.91616301581E-01  0.51100000000E-03 0. -1.
         11    1    4    4    0    0 -0.18584428871E-01 -0.42056268091E-01  0.16543261033E-02  0.46012048401E-01  0.51100000000E-03 0.  1.
</event>
<event>
 8    1  0.2123879E+004  0.1043930E+01  0.7957747E-01            NaN
         13   -1    0    0    0    0  0.00000000000E+00  0.00000000000E+00  0.74505805969E-08  0.10566000000E+00  0.10566000000E+00 0.  1.
     999900   -1    0    0    0    0 -0.00000000000E+00 -0.00000000000E+00 -0.74505805969E-08  0.93827000000E+00  0.93827000000E+00 0. -1.
     999902    2    1    2    0    0 -0.48771622912E-03  0.13863995759E-01  0.59776444333E-03  0.10300445555E+01  0.10299509604E+01 0.  0.
     999903    2    3    3    0    0 -0.10409898656E+00  0.46465678027E-01 -0.67619409302E-01  0.14074609731E+00  0.47343649581E-01 0.  0.
         14    1    1    2    0    0  0.48771622912E-03 -0.13863995759E-01 -0.59776444333E-03  0.13885444460E-01  0.00000000000E+00 0. -1.
     999901    1    3    3    0    0  0.10361127033E+00 -0.32601682268E-01  0.68217173745E-01  0.88929845824E+00  0.88000000000E+00 0.  1.
        -11    1    4    4    0    0 -0.84146260086E-01  0.45830100909E-01 -0.72538947922E-01  0.12017966268E+00  0.51100000000E-03 0. -1.
         11    1    4    4    0    0 -0.19952726470E-01  0.63557711811E-03  0.49195386197E-02  0.20566434623E-01  0.51100000000E-03 0.  1.
</event>
<event>
 8    1  0.2123879E+004  0.1043930E+01  0.7957747E-01            NaN
         13   -1    0    0    0    0  0.00000000000E+00  0.00000000000E+00  0.74505805969E-08  0.10566000000E+00  0.10566000000E+00 0.  1.
     999900   -1    0    0    0    0 -0.00000000000E+00 -0.00000000000E+00 -0.74505805969E-08  0.93827000000E+00  0.93827000000E+00 0. -1.
     999902    2    1    2    0    0 -0.24582111562E-02  0.19499382446E-02 -0.13656280173E-01  0.10299178963E+01  0.10298225741E+01 0.  0.
     999903    2    3    3    0    0  0.10938903353E+00  0.60217172211E-01  0.42366286866E-01  0.13916349431E+00  0.44491655388E-01 0.  0.
         14    1    1    2    0    0  0.24582111562E-02 -0.19499382446E-02  0.13656280173E-01  0.14012103675E-01  0.00000000000E+00 0.  1.
     999901    1    3    3    0    0 -0.11184724469E+00 -0.58267233966E-01 -0.56022567039E-01  0.89075440202E+00  0.88000000000E+00 0. -1.
        -11    1    4    4    0    0  0.77125930074E-01  0.62790511444E-01  0.25541392528E-01  0.10268242922E+00  0.51100000000E-03 0. -1.
         11    1    4    4    0    0  0.32263103455E-01 -0.25733392330E-02  0.16824894338E-01  0.36481065087E-01  0.51100000000E-03 0.  1.
</event>
<event>
 8    1  0.2123879E+004  0.1043930E+01  0.7957747E-01            NaN
         13   -1    0    0    0    0  0.00000000000E+00  0.00000000000E+00  0.74505805969E-08  0.10566000000E+00  0.10566000000E+00 0. -1.
     999900   -1    0    0    0    0 -0.00000000000E+00 -0.00000000000E+00 -0.74505805969E-08  0.93827000000E+00  0.93827000000E+00 0. -1.
     999902    2    1    2    0    0  0.14069839031E-01  0.15863981363E-02  0.19997739101E-02  0.10296304851E+01  0.10295311845E+01 0.  0.
     999903    2    3    3    0    0 -0.52707538882E-01 -0.97028707836E-01  0.70979299543E-01  0.13893281911E+00  0.45514969652E-01 0.  0.
         14    1    1    2    0    0 -0.14069839031E-01 -0.15863981363E-02 -0.19997739101E-02  0.14299514855E-01  0.00000000000E+00 0. -1.
     999901    1    3    3    0    0  0.66777377913E-01  0.98615105972E-01 -0.68979525633E-01  0.89069766604E+00  0.88000000000E+00 0. -1.
        -11    1    4    4    0    0 -0.12362683596E-01 -0.27881164060E-01  0.45762438379E-01  0.54996883025E-01  0.51100000000E-03 0. -1.
         11    1    4    4    0    0 -0.40344855286E-01 -0.69147543776E-01  0.25216861164E-01  0.83935936083E-01  0.51100000000E-03 0.  1.
</event>
<event>
 8    1  0.2123879E+004  0.1043930E+01  0.7957747E-01            NaN
         13   -1    0    0    0    0  0.00000000000E+00  0.00000000000E+00  0.74505805969E-08  0.10566000000E+00  0.10566000000E+00 0.  1.
     999900   -1    0    0    0    0 -0.00000000000E+00 -0.00000000000E+00 -0.74505805969E-08  0.93827000000E+00  0.93827000000E+00 0. -1.
     999902    2    1    2    0    0 -0.70762225159E-02 -0.11018174754E-01 -0.61899890582E-02  0.10294459030E+01  0.10293440038E+01 0.  0.
     999903    2    3    3    0    0 -0.42133211329E-01 -0.70172243713E-01  0.10406299972E+00  0.13990449430E+00  0.45219556950E-01 0.  0.
         14    1    1    2    0    0  0.70762225159E-02  0.11018174754E-01  0.61899890582E-02  0.14484096953E-01  0.00000000000E+00 0. -1.
     999901    1    3    3    0    0  0.35056988813E-01  0.59154068959E-01 -0.11025298878E+00  0.88954140875E+00  0.88000000000E+00 0. -1.
        -11    1    4    4    0    0 -0.27778814432E-01 -0.14619979769E-01  0.17192041963E-01  0.35794325913E-01  0.51100000000E-03 0. -1.
         11    1    4    4    0    0 -0.14354396897E-01 -0.55552263944E-01  0.86870957755E-01  0.10411016839E+00  0.51100000000E-03 0.  1.
</event>
<event>
 8    1  0.2123879E+004  0.1043930E+01  0.7957747E-01            NaN
         13   -1    0    0    0    0  0.00000000000E+00  0.00000000000E+00  0.74505805969E-08  0.10566000000E+00  0.10566000000E+00 0. -1.
     999900   -1    0    0    0    0 -0.00000000000E+00 -0.00000000000E+00 -0.74505805969E-08  0.93827000000E+00  0.93827000000E+00 0.  1.
     999902    2    1    2    0    0 -0.11240419842E-01 -0.48383541197E-02  0.67004621763E-02  0.10299781936E+01  0.10298836956E+01 0.  0.
     999903    2    3    3    0    0 -0.31294594131E-01 -0.98316465295E-01  0.85294658452E-01  0.14131775514E+00  0.45277479910E-01 0.  0.
         14    1    1    2    0    0  0.11240419842E-01  0.48383541197E-02 -0.67004621763E-02  0.13951806413E-01  0.00000000000E+00 0.  1.
     999901    1    3    3    0    0  0.20054174288E-01  0.93478111175E-01 -0.78594196275E-01  0.88866043845E+00  0.88000000000E+00 0.  1.
        -11    1    4    4    0    0 -0.25565514861E-01 -0.86977255815E-01  0.49412825975E-01  0.10324982843E+00  0.51100000000E-03 0. -1.
         11    1    4    4    0    0 -0.57290792694E-02 -0.11339209480E-01  0.35881832476E-01  0.38067926707E-01  0.51100000000E-03 0.  1.
</event>
<event>
 7    1  0.2123879E+004  0.1043930E+01  0.7957747E-01            NaN
         13   -1    0    0    0    0  0.00000000000E+00  0.00000000000E+00  0.74505805969E-08  0.10566000000E+00  0.10566000000E+00 0. -1.
     999900   -1    0    0    0    0 -0.00000000000E+00 -0.00000000000E+00 -0.74505805969E-08  0.93827000000E+00  0.93827000000E+00 0. -1.
     999903    2    1    2    0    0  0.36377889837E-01  0.42728402236E-01  0.10407406041E+00  0.12656907553E+00  0.45158095660E-01 0.  0.
         14    1    1    2    0    0 -0.27380134061E-01  0.11226314138E-01 -0.63246053415E-02  0.30260576714E-01  0.00000000000E+00 0.  1.
     999901    1    1    2    0    0 -0.89977557761E-02 -0.53954716374E-01 -0.97749455065E-01  0.88710034776E+00  0.88000000000E+00 0. -1.
        -11    1    3    3    0    0  0.25136506358E-01  0.33568275870E-01  0.31219787358E-01  0.52283930040E-01  0.51100000000E-03 0. -1.
         11    1    3    3    0    0  0.11241383479E-01  0.91601263662E-02  0.72854273049E-01  0.74285145487E-01  0.51100000000E-03 0.  1.
</event>
<event>
 8    1  0.2123879E+004  0.1043930E+01  0.7957747E-01            NaN
         13   -1    0    0    0    0  0.00000000000E+00  0.00000000000E+00  0.74505805969E-08  0.10566000000E+00  0.10566000000E+00 0.  1.
     999900   -1    0    0    0    0 -0.00000000000E+00 -0.00000000000E+00 -0.74505805969E-08  0.93827000000E+00  0.93827000000E+00 0.  1.
     999902    2    1    2    0    0 -0.80495769418E-03 -0.83724118533E-02  0.10357184906E-01  0.10305877170E+01  0.10305013469E+01 0.  0.
     999903    2    3    3    0    0  0.66657314537E-02 -0.10694423863E+00 -0.79195423276E-01  0.14053609720E+00  0.44687553033E-01 0.  0.
         14    1    1    2    0    0  0.80495769418E-03  0.83724118533E-02 -0.10357184906E-01  0.13342283025E-01  0.00000000000E+00 0. -1.
     999901    1    3    3    0    0 -0.74706891479E-02  0.98571826779E-01  0.89552608182E-01  0.89005161977E+00  0.88000000000E+00 0. -1.
        -11    1    4    4    0    0  0.23310547017E-01 -0.38510810345E-01 -0.38208848966E-01  0.59047788916E-01  0.51100000000E-03 0. -1.
         11    1    4    4    0    0 -0.16644815563E-01 -0.68433428288E-01 -0.40986574311E-01  0.81488308285E-01  0.51100000000E-03 0.  1.
</event>
<event>
 8    1  0.2123879E+004  0.1043930E+01  0.7957747E-01            NaN
         13   -1    0    0    0    0  0.00000000000E+00  0.00000000000E+00  0.74505805969E-08  0.10566000000E+00  0.10566000000E+00 0.  1.
     999900   -1    0    0    0    0 -0.00000000000E+00 -0.00000000000E+00 -0.74505805969E-08  0.93827000000E+00  0.93827000000E+00 0.  1.
     999902    2    1    2    0    0 -0.72373548440E-02 -0.88532496864E-02  0.14351106114E-02  0.10324052927E+01  0.10323409658E+01 0.  0.
     999903    2    3    3    0    0  0.37038584613E-01 -0.87036548666E-01 -0.97047336989E-01  0.14236496806E+00  0.43616292376E-01 0.  0.
         14    1    1    2    0    0  0.72373548440E-02  0.88532496864E-02 -0.14351106114E-02  0.11524707268E-01  0.00000000000E+00 0. -1.
     999901    1    3    3    0    0 -0.44275939457E-01  0.78183298979E-01  0.98482447601E-01  0.89004032467E+00  0.88000000000E+00 0.  1.
        -11    1    4    4    0    0  0.31687082942E-01 -0.26099677931E-01 -0.52717199662E-01  0.66817876909E-01  0.51100000000E-03 0.  1.
         11    1    4    4    0    0  0.53515016710E-02 -0.60936870735E-01 -0.44330137327E-01  0.75547091152E-01  0.51100000000E-03 0. -1.
</event>
<event>
 8    1  0.2123879E+004  0.1043930E+01  0.7957747E-01            NaN
         13   -1    0    0    0    0  0.00000000000E+00  0.00000000000E+00  0.74505805969E-08  0.10566000000E+00  0.10566000000E+00 0. -1.
     999900   -1    0    0    0    0 -0.00000000000E+00 -0.00000000000E+00 -0.74505805969E-08  0.93827000000E+00  0.93827000000E+00 0. -1.
     999902    2    1    2    0    0  0.58986564715E-02  0.10332297915E-01  0.69147410720E-02  0.10301690345E+01  0.10300771211E+01 0.  0.
     999903    2    3    3    0    0  0.19271505334E-01  0.12971312614E+00 -0.27017857264E-01  0.14135969807E+00  0.45339978128E-01 0.  0.
         14    1    1    2    0    0 -0.58986564715E-02 -0.10332297915E-01 -0.69147410720E-02  0.13760965535E-01  0.00000000000E+00 0. -1.
     999901    1    3    3    0    0 -0.13372848862E-01 -0.11938082822E+00  0.33932598336E-01  0.88880933640E+00  0.88000000000E+00 0. -1.
        -11    1    4    4    0    0 -0.72814600072E-03  0.10577995567E+00 -0.11171856455E-01  0.10637199216E+00  0.51100000000E-03 0. -1.
         11    1    4    4    0    0  0.19999651334E-01  0.23933170464E-01 -0.15846000809E-01  0.34987705907E-01  0.51100000000E-03 0.  1.
</event>
<event>
 8    1  0.2123879E+004  0.1043930E+01  0.7957747E-01            NaN
         13   -1    0    0    0    0  0.00000000000E+00  0.00000000000E+00  0.74505805969E-08  0.10566000000E+00  0.10566000000E+00 0. -1.
     999900   -1    0    0    0    0 -0.00000000000E+00 -0.00000000000E+00 -0.74505805969E-08  0.93827000000E+00  0.93827000000E+00 0.  1.
     999902    2    1    2    0    0  0.93194772407E-02  0.40484630864E-02  0.87582384821E-02  0.10305154761E+01  0.10304281620E+01 0.  0.
     999903    2    3    3    0    0 -0.46845548570E-01 -0.19633769030E-01 -0.12111016564E+00  0.13889831578E+00  0.45222556284E-01 0.  0.
         14    1    1    2    0    0 -0.93194772407E-02 -0.40484630864E-02 -0.87582384821E-02  0.13414523872E-01  0.00000000000E+00 0.  1.
     999901    1    3    3    0    0  0.56165025811E-01  0.23682232116E-01  0.12986840412E+00  0.89161716035E+00  0.88000000000E+00 0.  1.
        -11    1    4    4    0    0 -0.42939712093E-01 -0.91201602354E-02 -0.48470344330E-01  0.65395960103E-01  0.51100000000E-03 0.  1.
         11    1    4    4    0    0 -0.39058364772E-02 -0.10513608794E-01 -0.72639821312E-01  0.73502355674E-01  0.51100000000E-03 0. -1.
</event>
<event>
 8    1  0.2123879E+004  0.1043930E+01  0.7957747E-01            NaN
         13   -1    0    0    0    0  0.00000000000E+00  0.00000000000E+00  0.74505805969E-08  0.10566000000E+00  0.10566000000E+00 0.  1.
     999900   -1    0    0    0    0 -0.00000000000E+00 -0.00000000000E+00 -0.74505805969E-08  0.93827000000E+00  0.93827000000E+00 0.  1.
     999902    2    1    2    0    0 -0.78673230654E-02 -0.12452818898E-01  0.41208179790E-02  0.10286346212E+01  0.10285208969E+01 0.  0.
     999903    2    3    3    0    0  0.33082433263E-01  0.80849603118E-01 -0.95678238761E-01  0.13715154443E+00  0.45001278352E-01 0.  0.
         14    1    1    2    0    0  0.78673230654E-02  0.12452818898E-01 -0.41208179790E-02  0.15295378764E-01  0.00000000000E+00 0. -1.
     999901    1    3    3    0    0 -0.40949756328E-01 -0.93302422016E-01  0.99799056740E-01  0.89148307680E+00  0.88000000000E+00 0. -1.
        -11    1    4    4    0    0  0.30884162410E-01  0.73263539457E-01 -0.57399019745E-01  0.98062665119E-01  0.51100000000E-03 0. -1.
         11    1    4    4    0    0  0.21982708522E-02  0.75860636609E-02 -0.38279219017E-01  0.39088879315E-01  0.51100000000E-03 0.  1.
</event>
<event>
 8    1  0.2123879E+004  0.1043930E+01  0.7957747E-01            NaN
         13   -1    0    0    0    0  0.00000000000E+00  0.00000000000E+00  0.74505805969E-08  0.10566000000E+00  0.10566000000E+00 0.  1.
     999900   -1    0    0    0    0 -0.00000000000E+00 -0.00000000000E+00 -0.74505805969E-08  0.93827000000E+00  0.93827000000E+00 0.  1.
     999902    2    1    2    0    0 -0.10778635037E-01 -0.69243400336E-02  0.21620623251E-02  0.10309376957E+01  0.10308558252E+01 0.  0.
     999903    2    3    3    0    0 -0.11093128734E+00 -0.64009190633E-01 -0.44270180853E-01  0.14220534725E+00  0.43122904316E-01 0.  0.
         14    1    1    2    0    0  0.10778635037E-01  0.69243400336E-02 -0.21620623251E-02  0.12992304325E-01  0.00000000000E+00 0. -1.
     999901    1    3    3    0    0  0.10015265231E+00  0.57084850599E-01  0.46432243178E-01  0.88873234843E+00  0.88000000000E+00 0. -1.
        -11    1    4    4    0    0 -0.31385718106E-01 -0.34510381302E-01 -0.31787793354E-01  0.56451347601E-01  0.51100000000E-03 0.  1.
         11    1    4    4    0    0 -0.79545569237E-01 -0.29498809331E-01 -0.12482387499E-01  0.85753999649E-01  0.51100000000E-03 0. -1.
</event>
<event>
 8    1  0.2123879E+004  0.1043930E+01  0.7957747E-01            NaN
         13   -1    0    0    0    0  0.00000000000E+00  0.00000000000E+00  0.74505805969E-08  0.10566000000E+00  0.10566000000E+00 0. -1.
     999900   -1    0    0    0    0 -0.00000000000E+00 -0.00000000000E+00 -0.74505805969E-08  0.93827000000E+00  0.93827000000E+00 0. -1.
     999902    2    1    2    0    0 -0.22704937757E-02  0.53074317772E-02 -0.14420699666E-01  0.10283967919E+01  0.10282794762E+01 0.  0.
     999903    2    3    3    0    0  0.42429942060E-01 -0.45262529282E-01  0.11334791905E+00  0.13661191324E+00  0.44340360246E-01 0.  0.
         14    1    1    2    0    0  0.22704937757E-02 -0.53074317772E-02  0.14420699666E-01  0.15533208069E-01  0.00000000000E+00 0. -1.
     999901    1    3    3    0    0 -0.44700435836E-01  0.50569961059E-01 -0.12776861872E+00  0.89178487869E+00  0.88000000000E+00 0. -1.
        -11    1    4    4    0    0  0.29979714807E-01 -0.28283015405E-01  0.30895674988E-01  0.51512290905E-01  0.51100000000E-03 0. -1.
         11    1    4    4    0    0  0.12450227253E-01 -0.16979513877E-01  0.82452244064E-01  0.85099622339E-01  0.51100000000E-03 0.  1.
</event>
<event>
 8    1  0.2123879E+004  0.1043930E+01  0.7957747E-01            NaN
         13   -1    0    0    0    0  0.00000000000E+00  0.00000000000E+00  0.74505805969E-08  0.10566000000E+00  0.10566000000E+00 0. -1.
     999900   -1    0    0    0    0 -0.00000000000E+00 -0.00000000000E+00 -0.74505805969E-08  0.93827000000E+00  0.93827000000E+00 0. -1.
     999902    2    1    2    0    0 -0.90457996733E-03 -0.13041624895E-01 -0.53708356702E-02  0.10297967725E+01  0.10296997837E+01 0.  0.
     999903    2    3    3    0    0 -0.10271092143E+00 -0.81678779493E-01  0.22366371026E-01  0.14083955033E+00  0.45984431951E-01 0.  0.
         14    1    1    2    0    0  0.90457996733E-03  0.13041624895E-01  0.53708356702E-02  0.14133227537E-01  0.00000000000E+00 0.  1.
     999901    1    3    3    0    0  0.10180634147E+00  0.68637154599E-01 -0.27737206696E-01  0.88895722214E+00  0.88000000000E+00 0.  1.
        -11    1    4    4    0    0 -0.52576073333E-01 -0.69950175591E-01  0.12185008943E-01  0.88351605058E-01  0.51100000000E-03 0.  1.
         11    1    4    4    0    0 -0.50134848102E-01 -0.11728603902E-01  0.10181362083E-01  0.52487945269E-01  0.51100000000E-03 0. -1.
</event>
<event>
 8    1  0.2123879E+004  0.1043930E+01  0.7957747E-01            NaN
         13   -1    0    0    0    0  0.00000000000E+00  0.00000000000E+00  0.74505805969E-08  0.10566000000E+00  0.10566000000E+00 0. -1.
     999900   -1    0    0    0    0 -0.00000000000E+00 -0.00000000000E+00 -0.74505805969E-08  0.93827000000E+00  0.93827000000E+00 0.  1.
     999902    2    1    2    0    0 -0.69399631969E-02 -0.25525626800E-02  0.10702688306E-01  0.10309213028E+01  0.10308392243E+01 0.  0.
     999903    2    3    3    0    0 -0.10510776255E+00  0.63030833857E-01  0.55541519236E-01  0.14190576893E+00  0.45076148158E-01 0.  0.
         14    1    1    2    0    0  0.69399631969E-02  0.25525626800E-02 -0.10702688306E-01  0.13008697183E-01  0.00000000000E+00 0.  1.
     999901    1    3    3    0    0  0.98167799350E-01 -0.65583396537E-01 -0.44838830930E-01  0.88901553389E+00  0.88000000000E+00 0.  1.
        -11    1    4    4    0    0 -0.81476190076E-01  0.62275295066E-01  0.58513438812E-01  0.11807059569E+00  0.51100000000E-03 0. -1.
         11    1    4    4    0    0 -0.23631572471E-01  0.75553879010E-03 -0.29719195759E-02  0.23835173238E-01  0.51100000000E-03 0.  1.
</event>
<event>
 8    1  0.2123879E+004  0.1043930E+01  0.7957747E-01            NaN
         13   -1    0    0    0    0  0.00000000000E+00  0.00000000000E+00  0.74505805969E-08  0.10566000000E+00  0.10566000000E+00 0.  1.
     999900   -1    0    0    0    0 -0.00000000000E+00 -0.00000000000E+00 -0.74505805969E-08  0.93827000000E+00  0.93827000000E+00 0. -1.
     999902    2    1    2    0    0 -0.21708157879E-01 -0.10454489583E-01  0.10867736618E-01  0.10174980464E+01  0.10171546718E+01 0.  0.
     999903    2    3    3    0    0  0.53236052649E-01 -0.21510245782E-01  0.10619398959E+00  0.12911414351E+00  0.45787887630E-01 0.  0.
         14    1    1    2    0    0  0.21708157879E-01  0.10454489583E-01 -0.10867736618E-01  0.26431953582E-01  0.00000000000E+00 0. -1.
     999901    1    3    3    0    0 -0.74944210528E-01  0.11055756199E-01 -0.95326252976E-01  0.88838390291E+00  0.88000000000E+00 0. -1.
        -11    1    4    4    0    0  0.11478239673E-01 -0.22381901696E-01  0.16266586311E-01  0.29959346801E-01  0.51100000000E-03 0.  1.
         11    1    4    4    0    0  0.41757812976E-01  0.87165591396E-03  0.89927403283E-01  0.99154796711E-01  0.51100000000E-03 0. -1.
</event>
<event>
 8    1  0.2123879E+004  0.1043930E+01  0.7957747E-01            NaN
         13   -1    0    0    0    0  0.00000000000E+00  0.00000000000E+00  0.74505805969E-08  0.10566000000E+00  0.10566000000E+00 0.  1.
     999900   -1    0    0    0    0 -0.00000000000E+00 -0.00000000000E+00 -0.74505805969E-08  0.93827000000E+00  0.93827000000E+00 0.  1.
     999902    2    1    2    0    0  0.95584414718E-02 -0.71347285859E-02  0.70249481647E-02  0.10300873828E+01  0.10299943680E+01 0.  0.
     999903    2    3    3    0    0  0.56233333774E-01  0.31744950879E-01  0.11711514847E+00  0.14114979932E+00  0.45137325058E-01 0.  0.
         14    1    1    2    0    0 -0.95584414718E-02  0.71347285859E-02 -0.70249481647E-02  0.13842617241E-01  0.00000000000E+00 0.  1.
     999901    1    3    3    0    0 -0.46674892302E-01 -0.38879679465E-01 -0.11009020031E+00  0.88893758344E+00  0.88000000000E+00 0.  1.
        -11    1    4    4    0    0  0.18790624981E-01  0.18099567586E-01  0.88014601065E-01  0.91801487219E-01  0.51100000000E-03 0.  1.
         11    1    4    4    0    0  0.37442708793E-01  0.13645383293E-01  0.29100547405E-01  0.49348312101E-01  0.51100000000E-03 0. -1.
</event>
<event>
 8    1  0.2123879E+004  0.1043930E+01  0.7957747E-01            NaN
         13   -1    0    0    0    0  0.00000000000E+00  0.00000000000E+00  0.74505805969E-08  0.10566000000E+00  0.10566000000E+00 0.  1.
     999900   -1    0    0    0    0 -0.00000000000E+00 -0.00000000000E+00 -0.74505805969E-08  0.93827000000E+00  0.93827000000E+00 0. -1.
     999902    2    1    2    0    0  0.96961683713E-02  0.35201578373E-02 -0.76333481880E-02  0.10310974166E+01  0.10310175592E+01 0.  0.
     999903    2    3    3    0    0 -0.11203948398E+00  0.70499331024E-01  0.13971478546E-01  0.13993382486E+00  0.43165628487E-01 0.  0.
         14    1    1    2    0    0 -0.96961683713E-02 -0.35201578373E-02  0.76333481880E-02  0.12832583405E-01  0.00000000000E+00 0.  1.
     999901    1    3    3    0    0  0.12173565235E+00 -0.66979173187E-01 -0.21604826734E-01  0.89116359173E+00  0.88000000000E+00 0.  1.
        -11    1    4    4    0    0 -0.55649692590E-01  0.48274463925E-01  0.26024304070E-01  0.78133460668E-01  0.51100000000E-03 0. -1.
         11    1    4    4    0    0 -0.56389791388E-01  0.22224867099E-01 -0.12052825524E-01  0.61800364193E-01  0.51100000000E-03 0.  1.
</event>
<event>
 8    1  0.2123879E+004  0.1043930E+01  0.7957747E-01            NaN
         13   -1    0    0    0    0  0.00000000000E+00  0.00000000000E+00  0.74505805969E-08  0.10566000000E+00  0.10566000000E+00 0. -1.
     999900   -1    0    0    0    0 -0.00000000000E+00 -0.00000000000E+00 -0.74505805969E-08  0.93827000000E+00  0.93827000000E+00 0.  1.
     999902    2    1    2    0    0  0.23660562061E-02  0.32097276695E-02 -0.11262805545E-01  0.10319821398E+01  0.10319129738E+01 0.  0.
     999903    2    3    3    0    0 -0.82389166285E-01  0.10604005958E+00  0.42405832022E-02  0.14181480728E+00  0.45398106360E-01 0.  0.
         14    1    1    2    0    0 -0.23660562061E-02 -0.32097276695E-02  0.11262805545E-01  0.11947860161E-01  0.00000000000E+00 0. -1.
     999901    1    3    3    0    0  0.84755222491E-01 -0.10283033191E+00 -0.15503388747E-01  0.89016733256E+00  0.88000000000E+00 0.  1.
        -11    1    4    4    0    0 -0.18846208920E-01  0.34435445193E-01  0.21157157320E-01  0.44596702829E-01  0.51100000000E-03 0.  1.
         11    1    4    4    0    0 -0.63542957365E-01  0.71604614382E-01 -0.16916574118E-01  0.97218104448E-01  0.51100000000E-03 0. -1.
</event>
<event>
 8    1  0.2123879E+004  0.1043930E+01  0.7957747E-01            NaN
         13   -1    0    0    0    0  0.00000000000E+00  0.00000000000E+00  0.74505805969E-08  0.10566000000E+00  0.10566000000E+00 0. -1.
     999900   -1    0    0    0    0 -0.00000000000E+00 -0.00000000000E+00 -0.74505805969E-08  0.93827000000E+00  0.93827000000E+00 0.  1.
     999902    2    1    2    0    0 -0.72010041312E-02  0.11614292329E-01 -0.32638372538E-02  0.10298801288E+01  0.10297842885E+01 0.  0.
     999903    2    3    3    0    0 -0.93628950097E-01 -0.41344372390E-01  0.85693042249E-01  0.13960616175E+00  0.40875976865E-01 0.  0.
         14    1    1    2    0    0  0.72010041312E-02 -0.11614292329E-01  0.32638372538E-02  0.14049871189E-01  0.00000000000E+00 0. -1.
     999901    1    3    3    0    0  0.86427945966E-01  0.52958664719E-01 -0.88956879503E-01  0.89027396706E+00  0.88000000000E+00 0.  1.
        -11    1    4    4    0    0 -0.39019031192E-01 -0.17030511005E-01  0.62197489330E-01  0.75374477777E-01  0.51100000000E-03 0.  1.
         11    1    4    4    0    0 -0.54609918905E-01 -0.24313861385E-01  0.23495552919E-01  0.64231683975E-01  0.51100000000E-03 0. -1.
</event>
<event>
 8    1  0.2123879E+004  0.1043930E+01  0.7957747E-01            NaN
         13   -1    0    0    0    0  0.00000000000E+00  0.00000000000E+00  0.74505805969E-08  0.10566000000E+00  0.10566000000E+00 0.  1.
     999900   -1    0    0    0    0 -0.00000000000E+00 -0.00000000000E+00 -0.74505805969E-08  0.93827000000E+00  0.93827000000E+00 0. -1.
     999902    2    1    2    0    0 -0.52030227219E-02 -0.69764601765E-02  0.11310016410E-01  0.10296590886E+01  0.10295601875E+01 0.  0.
     999903    2    3    3    0    0  0.78085173005E-01  0.96254943551E-01  0.43690335290E-01  0.13912995860E+00  0.45672656819E-01 0.  0.
         14    1    1    2    0    0  0.52030227219E-02  0.69764601765E-02 -0.11310016410E-01  0.14270911437E-01  0.00000000000E+00 0. -1.
     999901    1    3    3    0    0 -0.83288195727E-01 -0.10323140373E+00 -0.32380318880E-01  0.89052912996E+00  0.88000000000E+00 0. -1.
        -11    1    4    4    0    0  0.50199848570E-01  0.33478499430E-01  0.35346820797E-01  0.69932064048E-01  0.51100000000E-03 0.  1.
         11    1    4    4    0    0  0.27885324435E-01  0.62776444121E-01  0.83435144932E-02  0.69197894552E-01  0.51100000000E-03 0. -1.
</event>
<event>
 8    1  0.2123879E+004  0.1043930E+01  0.7957747E-01            NaN
         13   -1    0    0    0    0  0.00000000000E+00  0.00000000000E+00  0.74505805969E-08  0.10566000000E+00  0.10566000000E+00 0. -1.
     999900   -1    0    0    0    0 -0.00000000000E+00 -0.00000000000E+00 -0.74505805969E-08  0.93827000000E+00  0.93827000000E+00 0.  1.
     999902    2    1    2    0    0 -0.62936214203E-02  0.12293947996E-01 -0.13845212131E-02  0.10300495199E+01  0.10299559922E+01 0.  0.
     999903    2    3    3    0    0 -0.74357401311E-01  0.90229770723E-01 -0.66021929832E-01  0.14163257661E+00  0.45060591236E-01 0.  0.
         14    1    1    2    0    0  0.62936214203E-02 -0.12293947996E-01  0.13845212131E-02  0.13880480068E-01  0.00000000000E+00 0. -1.
     999901    1    3    3    0    0  0.68063779891E-01 -0.77935822727E-01  0.64637408619E-01  0.88841694333E+00  0.88000000000E+00 0. -1.
        -11    1    4    4    0    0 -0.15289343430E-02  0.62804714354E-02 -0.20555173193E-01  0.21553612868E-01  0.51100000000E-03 0.  1.
         11    1    4    4    0    0 -0.72828466968E-01  0.83949299288E-01 -0.45466756639E-01  0.12007896374E+00  0.51100000000E-03 0. -1.
</event>
<event>
 8    1  0.2123879E+004  0.1043930E+01  0.7957747E-01            NaN
         13   -1    0    0    0    0  0.00000000000E+00  0.00000000000E+00  0.74505805969E-08  0.10566000000E+00  0.10566000000E+00 0.  1.
     999900   -1    0    0    0    0 -0.00000000000E+00 -0.00000000000E+00 -0.74505805969E-08  0.93827000000E+00  0.93827000000E+00 0.  1.
     999902    2    1    2    0    0  0.72126707210E-02  0.11901311539E-02 -0.10956444929E-01  0.10307587162E+01  0.10306745599E+01 0.  0.
     999903    2    3    3    0    0 -0.95208807264E-01  0.89304688434E-01  0.21795379777E-01  0.13984513097E+00  0.45183821424E-01 0.  0.
         14    1    1    2    0    0 -0.72126707210E-02 -0.11901311539E-02  0.10956444929E-01  0.13171283786E-01  0.00000000000E+00 0.  1.
     999901    1    3    3    0    0  0.10242147799E+00 -0.88114557280E-01 -0.32751824705E-01  0.89091358525E+00  0.88000000000E+00 0. -1.
        -11    1    4    4    0    0 -0.69501098818E-01  0.73242271679E-01 -0.24880728055E-02  0.10100140952E+00  0.51100000000E-03 0.  1.
         11    1    4    4    0    0 -0.25707708446E-01  0.16062416755E-01  0.24283452582E-01  0.38843721447E-01  0.51100000000E-03 0. -1.
</event>
<event>
 8    1  0.2123879E+004  0.1043930E+01  0.7957747E-01            NaN
         13   -1    0    0    0    0  0.00000000000E+00  0.00000000000E+00  0.74505805969E-08  0.10566000000E+00  0.10566000000E+00 0. -1.
     999900   -1    0    0    0    0 -0.00000000000E+00 -0.00000000000E+00 -0.74505805969E-08  0.93827000000E+00  0.93827000000E+00 0.  1.
     999902    2    1    2    0    0  0.11784975758E-01  0.52696101571E-02  0.13111061746E-02  0.10309541207E+01  0.10308724584E+01 0.  0.
     999903    2    3    3    0    0 -0.85417402650E-01 -0.89311564786E-01  0.46024992996E-01  0.13944235256E+00  0.45312045044E-01 0.  0.
         14    1    1    2    0    0 -0.11784975758E-01 -0.52696101571E-02 -0.13111061746E-02  0.12975879324E-01  0.00000000000E+00 0.  1.
     999901    1    3    3    0    0  0.97202378408E-01  0.94581174943E-01 -0.44713886822E-01  0.89151176812E+00  0.88000000000E+00 0.  1.
        -11    1    4    4    0    0 -0.14717308889E-01 -0.46688772858E-01  0.19970568696E-01  0.52872728575E-01  0.51100000000E-03 0.  1.
         11    1    4    4    0    0 -0.70700093762E-01 -0.42622791928E-01  0.26054424300E-01  0.86569623981E-01  0.51100000000E-03 0. -1.
</event>
<event>
 8    1  0.2123879E+004  0.1043930E+01  0.7957747E-01            NaN
         13   -1    0    0    0    0  0.00000000000E+00  0.00000000000E+00  0.74505805969E-08  0.10566000000E+00  0.10566000000E+00 0. -1.
     999900   -1    0    0    0    0 -0.00000000000E+00 -0.00000000000E+00 -0.74505805969E-08  0.93827000000E+00  0.93827000000E+00 0.  1.
     999902    2    1    2    0    0  0.20605439884E-03 -0.13537866887E-01 -0.63726440079E-02  0.10289658131E+01  0.10288569957E+01 0.  0.
     999903    2    3    3    0    0 -0.83208182063E-01  0.89412794402E-01 -0.47276801762E-01  0.13810672006E+00  0.43819182750E-01 0.  0.
         14    1    1    2    0    0 -0.20605439884E-03  0.13537866887E-01  0.63726440079E-02  0.14964186911E-01  0.00000000000E+00 0. -1.
     999901    1    3    3    0    0  0.83414236462E-01 -0.10295066129E+00  0.40904157754E-01  0.89085909303E+00  0.88000000000E+00 0. -1.
        -11    1    4    4    0    0 -0.34309723096E-01  0.88770353511E-02 -0.10523430564E-01  0.36972456875E-01  0.51100000000E-03 0. -1.
         11    1    4    4    0    0 -0.48898458967E-01  0.80535759051E-01 -0.36753371198E-01  0.10113426319E+00  0.51100000000E-03 0.  1.
</event>
<event>
 7    1  0.3275092E+004  0.1043930E+01  0.7957747E-01            NaN
         13   -1    0    0    0    0  0.00000000000E+00  0.00000000000E+00  0.74505805969E-08  0.10566000000E+00  0.10566000000E+00 0.  1.
     999900   -1    0    0    0    0 -0.00000000000E+00 -0.00000000000E+00 -0.74505805969E-08  0.93827000000E+00  0.93827000000E+00 0. -1.
     999903    2    1    2    0    0  0.10629628188E+00  0.26157497516E-01  0.24602029528E-01  0.12009307239E+00  0.42824898864E-01 0.  0.
         14    1    1    2    0    0  0.28058308574E-01 -0.17823115881E-01 -0.23303995516E-02  0.33322108304E-01  0.00000000000E+00 0.  1.
     999901    1    1    2    0    0 -0.13435459045E+00 -0.83343816355E-02 -0.22271629976E-01  0.89051481930E+00  0.88000000000E+00 0.  1.
        -11    1    3    3    0    0  0.56174591851E-01 -0.56535537106E-02  0.22229432439E-01  0.60679125131E-01  0.51100000000E-03 0.  1.
         11    1    3    3    0    0  0.50121690028E-01  0.31811051227E-01  0.23725970888E-02  0.59413947263E-01  0.51100000000E-03 0. -1.
</event>
<event>
 8    1  0.2123879E+004  0.1043930E+01  0.7957747E-01            NaN
         13   -1    0    0    0    0  0.00000000000E+00  0.00000000000E+00  0.74505805969E-08  0.10566000000E+00  0.10566000000E+00 0.  1.
     999900   -1    0    0    0    0 -0.00000000000E+00 -0.00000000000E+00 -0.74505805969E-08  0.93827000000E+00  0.93827000000E+00 0. -1.
     999902    2    1    2    0    0 -0.91264261459E-02 -0.64952474740E-02  0.85053274524E-02  0.10298651328E+01  0.10297690864E+01 0.  0.
     999903    2    3    3    0    0  0.11627044152E-01 -0.65088876197E-01 -0.11382080028E+00  0.13923187418E+00  0.45371689961E-01 0.  0.
         14    1    1    2    0    0  0.91264261459E-02  0.64952474740E-02 -0.85053274524E-02  0.14064867188E-01  0.00000000000E+00 0.  1.
     999901    1    3    3    0    0 -0.20753470298E-01  0.58593628723E-01  0.12232612774E+00  0.89063325863E+00  0.88000000000E+00 0.  1.
        -11    1    4    4    0    0  0.28893139072E-01 -0.46784130610E-01 -0.79884449750E-01  0.96981208465E-01  0.51100000000E-03 0. -1.
         11    1    4    4    0    0 -0.17266094920E-01 -0.18304745587E-01 -0.33936350533E-01  0.42250665714E-01  0.51100000000E-03 0.  1.
</event>
<event>
 8    1  0.2123879E+004  0.1043930E+01  0.7957747E-01            NaN
         13   -1    0    0    0    0  0.00000000000E+00  0.00000000000E+00  0.74505805969E-08  0.10566000000E+00  0.10566000000E+00 0.  1.
     999900   -1    0    0    0    0 -0.00000000000E+00 -0.00000000000E+00 -0.74505805969E-08  0.93827000000E+00  0.93827000000E+00 0. -1.
     999902    2    1    2    0    0  0.76551757884E-02 -0.73125998261E-02 -0.10593450683E-01  0.10289534507E+01  0.10288444521E+01 0.  0.
     999903    2    3    3    0    0 -0.11931629292E+00  0.41619784054E-01 -0.32638189204E-01  0.13822223276E+00  0.45514284056E-01 0.  0.
         14    1    1    2    0    0 -0.76551757884E-02  0.73125998261E-02  0.10593450683E-01  0.14976549333E-01  0.00000000000E+00 0.  1.
     999901    1    3    3    0    0  0.12697146871E+00 -0.48932383880E-01  0.22044738522E-01  0.89073121791E+00  0.88000000000E+00 0. -1.
        -11    1    4    4    0    0 -0.10141178307E-01  0.12809158337E-03  0.96487672562E-02  0.14007845497E-01  0.51100000000E-03 0.  1.
         11    1    4    4    0    0 -0.10917511461E+00  0.41491692471E-01 -0.42286956461E-01  0.12421438726E+00  0.51100000000E-03 0. -1.
</event>
<event>
 7    1  0.2123879E+004  0.1043930E+01  0.7957747E-01            NaN
         13   -1    0    0    0    0  0.00000000000E+00  0.00000000000E+00  0.74505805969E-08  0.10566000000E+00  0.10566000000E+00 0.  1.
     999900   -1    0    0    0    0 -0.00000000000E+00 -0.00000000000E+00 -0.74505805969E-08  0.93827000000E+00  0.93827000000E+00 0.  1.
     999903    2    1    2    0    0 -0.44672930865E-01 -0.78377832531E-01  0.51034502569E-01  0.11332430718E+00  0.45816184476E-01 0.  0.
         14    1    1    2    0    0 -0.10019903124E-01 -0.35489205626E-01 -0.17841862299E-01  0.40966013046E-01  0.00000000000E+00 0.  1.
     999901    1    1    2    0    0  0.54692833989E-01  0.11386703816E+00 -0.33192640269E-01  0.88963967978E+00  0.88000000000E+00 0.  1.
        -11    1    3    3    0    0  0.74338213803E-04 -0.21738373692E-01 -0.45539065942E-02  0.22216246380E-01  0.51100000000E-03 0. -1.
         11    1    3    3    0    0 -0.44747269079E-01 -0.56639458839E-01  0.55588409163E-01  0.91108060795E-01  0.51100000000E-03 0.  1.
</event>
<event>
 8    1  0.2123879E+004  0.1043930E+01  0.7957747E-01            NaN
         13   -1    0    0    0    0  0.00000000000E+00  0.00000000000E+00  0.74505805969E-08  0.10566000000E+00  0.10566000000E+00 0. -1.
     999900   -1    0    0    0    0 -0.00000000000E+00 -0.00000000000E+00 -0.74505805969E-08  0.93827000000E+00  0.93827000000E+00 0.  1.
     999902    2    1    2    0    0  0.71975949200E-02  0.18965018243E-02 -0.11035182575E-01  0.10306192019E+01  0.10305332416E+01 0.  0.
     999903    2    3    3    0    0  0.35028932293E-02  0.98624208558E-01 -0.91214465479E-01  0.14168803612E+00  0.44904521963E-01 0.  0.
         14    1    1    2    0    0 -0.71975949200E-02 -0.18965018243E-02  0.11035182575E-01  0.13310798108E-01  0.00000000000E+00 0. -1.
     999901    1    3    3    0    0  0.36947016907E-02 -0.96727706734E-01  0.80179282904E-01  0.88893116577E+00  0.88000000000E+00 0. -1.
        -11    1    4    4    0    0 -0.14466988432E-01  0.53314188141E-01 -0.28217246128E-01  0.62033624040E-01  0.51100000000E-03 0. -1.
         11    1    4    4    0    0  0.17969881662E-01  0.45310020417E-01 -0.62997219352E-01  0.79654412082E-01  0.51100000000E-03 0.  1.
</event>
<event>
 7    1  0.2123879E+004  0.1043930E+01  0.7957747E-01            NaN
         13   -1    0    0    0    0  0.00000000000E+00  0.00000000000E+00  0.74505805969E-08  0.10566000000E+00  0.10566000000E+00 0. -1.
     999900   -1    0    0    0    0 -0.00000000000E+00 -0.00000000000E+00 -0.74505805969E-08  0.93827000000E+00  0.93827000000E+00 0. -1.
     999903    2    1    2    0    0  0.10882907413E+00  0.39929738148E-01  0.97601567540E-02  0.12481087218E+00  0.45214398015E-01 0.  0.
         14    1    1    2    0    0 -0.31944982019E-02  0.27378657560E-01  0.11810072877E-01  0.29987889721E-01  0.00000000000E+00 0. -1.
     999901    1    1    2    0    0 -0.10563457593E+00 -0.67308395708E-01 -0.21570229631E-01  0.88913123810E+00  0.88000000000E+00 0. -1.
        -11    1    3    3    0    0  0.66243747657E-01  0.37329904192E-01  0.24149301289E-01  0.79782239404E-01  0.51100000000E-03 0.  1.
         11    1    3    3    0    0  0.42585326477E-01  0.25998339560E-02 -0.14389144535E-01  0.45028632771E-01  0.51100000000E-03 0. -1.
</event>
<event>
 8    1  0.2123879E+004  0.1043930E+01  0.7957747E-01            NaN
         13   -1    0    0    0    0  0.00000000000E+00  0.00000000000E+00  0.74505805969E-08  0.10566000000E+00  0.10566000000E+00 0.  1.
     999900   -1    0    0    0    0 -0.00000000000E+00 -0.00000000000E+00 -0.74505805969E-08  0.93827000000E+00  0.93827000000E+00 0.  1.
     999902    2    1    2    0    0 -0.14221728024E-01  0.15132635120E-02  0.67639277491E-02  0.10281091836E+01  0.10279874489E+01 0.  0.
     999903    2    3    3    0    0  0.65640872857E-01 -0.71970658867E-01 -0.84754825443E-01  0.13673182011E+00  0.44985667368E-01 0.  0.
         14    1    1    2    0    0  0.14221728024E-01 -0.15132635120E-02 -0.67639277491E-02  0.15820816446E-01  0.00000000000E+00 0.  1.
     999901    1    3    3    0    0 -0.79862600881E-01  0.73483922379E-01  0.91518753192E-01  0.89137736344E+00  0.88000000000E+00 0. -1.
        -11    1    4    4    0    0  0.35450687211E-04 -0.28685391484E-01 -0.23255129877E-01  0.36931221588E-01  0.51100000000E-03 0. -1.
         11    1    4    4    0    0  0.65605422170E-01 -0.43285267382E-01 -0.61499695566E-01  0.99800598526E-01  0.51100000000E-03 0.  1.
</event>
<event>
 8    1  0.2123879E+004  0.1043930E+01  0.7957747E-01            NaN
         13   -1    0    0    0    0  0.00000000000E+00  0.00000000000E+00  0.74505805969E-08  0.10566000000E+00  0.10566000000E+00 0. -1.
     999900   -1    0    0    0    0 -0.00000000000E+00 -0.00000000000E+00 -0.74505805969E-08  0.93827000000E+00  0.93827000000E+00 0.  1.
     999902    2    1    2    0    0 -0.31887075464E-02  0.12338466043E-01  0.26869722633E-02  0.10309059676E+01  0.10308236942E+01 0.  0.
     999903    2    3    3    0    0 -0.81182437362E-01 -0.30117638651E-01  0.10385185381E+00  0.14067011347E+00  0.38797074509E-01 0.  0.
         14    1    1    2    0    0  0.31887075464E-02 -0.12338466043E-01 -0.26869722633E-02  0.13024032404E-01  0.00000000000E+00 0.  1.
     999901    1    3    3    0    0  0.77993729815E-01  0.42456104694E-01 -0.10116488154E+00  0.89023585413E+00  0.88000000000E+00 0.  1.
        -11    1    4    4    0    0 -0.24387771563E-01 -0.27654056763E-01  0.51837374026E-01  0.63615129680E-01  0.51100000000E-03 0. -1.
         11    1    4    4    0    0 -0.56794665798E-01 -0.24635818874E-02  0.52014479781E-01  0.77054983789E-01  0.51100000000E-03 0.  1.
</event>
<event>
 8    1  0.2123879E+004  0.1043930E+01  0.7957747E-01            NaN
         13   -1    0    0    0    0  0.00000000000E+00  0.00000000000E+00  0.74505805969E-08  0.10566000000E+00  0.10566000000E+00 0. -1.
     999900   -1    0    0    0    0 -0.00000000000E+00 -0.00000000000E+00 -0.74505805969E-08  0.93827000000E+00  0.93827000000E+00 0. -1.
     999902    2    1    2    0    0 -0.71979010994E-02  0.10221177868E-01 -0.43352385168E-02  0.10306983504E+01  0.10306134159E+01 0.  0.
     999903    2    3    3    0    0  0.76797914511E-02 -0.13183406080E+00 -0.15061277115E-02  0.13917771666E+00  0.43920036546E-01 0.  0.
         14    1    1    2    0    0  0.71979010994E-02 -0.10221177868E-01  0.43352385168E-02  0.13231649567E-01  0.00000000000E+00 0.  1.
     999901    1    3    3    0    0 -0.14877692550E-01  0.14205523867E+00 -0.28291108053E-02  0.89152063377E+00  0.88000000000E+00 0.  1.
        -11    1    4    4    0    0  0.54786764531E-02 -0.99854438859E-01 -0.20257797855E-01  0.10203707341E+00  0.51100000000E-03 0. -1.
         11    1    4    4    0    0  0.22011149980E-02 -0.31979621945E-01  0.18751670143E-01  0.37140643252E-01  0.51100000000E-03 0.  1.
</event>
<event>
 8    1  0.2123879E+004  0.1043930E+01  0.7957747E-01            NaN
         13   -1    0    0    0    0  0.00000000000E+00  0.00000000000E+00  0.74505805969E-08  0.10566000000E+00  0.10566000000E+00 0. -1.
     999900   -1    0    0    0    0 -0.00000000000E+00 -0.00000000000E+00 -0.74505805969E-08  0.93827000000E+00  0.93827000000E+00 0. -1.
     999902    2    1    2    0    0  0.10754797506E-01 -0.27458966586E-03  0.89011606480E-02  0.10299667722E+01  0.10298721184E+01 0.  0.
     999903    2    3    3    0    0 -0.11573433630E+00  0.84440899622E-02  0.62517350546E-01  0.13926468277E+00  0.44949899834E-01 0.  0.
         14    1    1    2    0    0 -0.10754797506E-01  0.27458966586E-03 -0.89011606480E-02  0.13963227770E-01  0.00000000000E+00 0.  1.
     999901    1    3    3    0    0  0.12648913380E+00 -0.87186796281E-02 -0.53616189898E-01  0.89070208946E+00  0.88000000000E+00 0. -1.
        -11    1    4    4    0    0 -0.75569188464E-01  0.11736145664E-01  0.62805221596E-01  0.98960579732E-01  0.51100000000E-03 0.  1.
         11    1    4    4    0    0 -0.40165147833E-01 -0.32920557022E-02 -0.28787104922E-03  0.40304103041E-01  0.51100000000E-03 0. -1.
</event>
<event>
 8    1  0.2123879E+004  0.1043930E+01  0.7957747E-01            NaN
         13   -1    0    0    0    0  0.00000000000E+00  0.00000000000E+00  0.74505805969E-08  0.10566000000E+00  0.10566000000E+00 0.  1.
     999900   -1    0    0    0    0 -0.00000000000E+00 -0.00000000000E+00 -0.74505805969E-08  0.93827000000E+00  0.93827000000E+00 0. -1.
     999902    2    1    2    0    0 -0.27588540365E-02  0.11074148736E-01  0.76740229627E-02  0.10301772303E+01  0.10300854271E+01 0.  0.
     999903    2    3    3    0    0  0.11592188876E-01  0.62172802810E-01  0.11996089088E+00  0.14145603354E+00  0.40241245382E-01 0.  0.
         14    1    1    2    0    0  0.27588540365E-02 -0.11074148736E-01 -0.76740229627E-02  0.13752769694E-01  0.00000000000E+00 0. -1.
     999901    1    3    3    0    0 -0.14351042912E-01 -0.51098654074E-01 -0.11228686792E+00  0.88872119677E+00  0.88000000000E+00 0. -1.
        -11    1    4    4    0    0  0.38116239077E-02 -0.25638820418E-02  0.29976603922E-01  0.30330840272E-01  0.51100000000E-03 0.  1.
         11    1    4    4    0    0  0.77805649681E-02  0.64736684852E-01  0.89984286962E-01  0.11112519326E+00  0.51100000000E-03 0. -1.
</event>
<event>
 8    1  0.2123879E+004  0.1043930E+01  0.7957747E-01            NaN
         13   -1    0    0    0    0  0.00000000000E+00  0.00000000000E+00  0.74505805969E-08  0.10566000000E+00  0.10566000000E+00 0.  1.
     999900   -1    0    0    0    0 -0.00000000000E+00 -0.00000000000E+00 -0.74505805969E-08  0.93827000000E+00  0.93827000000E+00 0.  1.
     999902    2    1    2    0    0 -0.44595835178E-02 -0.11950431572E-01 -0.48078376577E-02  0.10302985656E+01  0.10302083859E+01 0.  0.
     999903    2    3    3    0    0  0.71395659156E-01 -0.11265024439E+00  0.10292114393E-01  0.14118525525E+00  0.45165595038E-01 0.  0.
         14    1    1    2    0    0  0.44595835178E-02  0.11950431572E-01  0.48078376577E-02  0.13631434366E-01  0.00000000000E+00 0.  1.
     999901    1    3    3    0    0 -0.75855242674E-01  0.10069981282E+00 -0.15099952051E-01  0.88911331038E+00  0.88000000000E+00 0.  1.
        -11    1    4    4    0    0  0.21014956498E-01 -0.17534957329E-01 -0.14141355458E-01  0.30811396923E-01  0.51100000000E-03 0. -1.
         11    1    4    4    0    0  0.50380702657E-01 -0.95115287061E-01  0.24433469852E-01  0.11037385833E+00  0.51100000000E-03 0.  1.
</event>
<event>
 8    1  0.2123879E+004  0.1043930E+01  0.7957747E-01            NaN
         13   -1    0    0    0    0  0.00000000000E+00  0.00000000000E+00  0.74505805969E-08  0.10566000000E+00  0.10566000000E+00 0.  1.
     999900   -1    0    0    0    0 -0.00000000000E+00 -0.00000000000E+00 -0.74505805969E-08  0.93827000000E+00  0.93827000000E+00 0.  1.
     999902    2    1    2    0    0 -0.13400233302E-01  0.16310913065E-02 -0.15117232400E-02  0.10303464799E+01  0.10302569372E+01 0.  0.
     999903    2    3    3    0    0  0.10056877012E+00  0.20237169184E-01  0.82011139460E-01  0.13888072706E+00  0.45148740982E-01 0.  0.
         14    1    1    2    0    0  0.13400233302E-01 -0.16310913065E-02  0.15117232400E-02  0.13583520109E-01  0.00000000000E+00 0.  1.
     999901    1    3    3    0    0 -0.11396900343E+00 -0.18606077877E-01 -0.83522862700E-01  0.89146575283E+00  0.88000000000E+00 0.  1.
        -11    1    4    4    0    0  0.79950204837E-01 -0.39888181472E-02  0.62479501211E-01  0.10154750177E+00  0.51100000000E-03 0.  1.
         11    1    4    4    0    0  0.20618565288E-01  0.24225987331E-01  0.19531638250E-01  0.37333225288E-01  0.51100000000E-03 0. -1.
</event>
<event>
 8    1  0.2123879E+004  0.1043930E+01  0.7957747E-01            NaN
         13   -1    0    0    0    0  0.00000000000E+00  0.00000000000E+00  0.74505805969E-08  0.10566000000E+00  0.10566000000E+00 0. -1.
     999900   -1    0    0    0    0 -0.00000000000E+00 -0.00000000000E+00 -0.74505805969E-08  0.93827000000E+00  0.93827000000E+00 0.  1.
     999902    2    1    2    0    0 -0.10093898464E-01  0.25504606082E-02  0.89431102464E-02  0.10302051737E+01  0.10301137457E+01 0.  0.
     999903    2    3    3    0    0  0.44943263983E-01  0.11524203654E+00 -0.46330837265E-01  0.13959656731E+00  0.45166704121E-01 0.  0.
         14    1    1    2    0    0  0.10093898464E-01 -0.25504606082E-02 -0.89431102464E-02  0.13724826279E-01  0.00000000000E+00 0.  1.
     999901    1    3    3    0    0 -0.55037162447E-01 -0.11269157593E+00  0.55273947512E-01  0.89060860641E+00  0.88000000000E+00 0. -1.
        -11    1    4    4    0    0  0.69382699092E-03  0.52378828698E-02 -0.16496235837E-01  0.17329273805E-01  0.51100000000E-03 0. -1.
         11    1    4    4    0    0  0.44249436992E-01  0.11000415367E+00 -0.29834601429E-01  0.12226729351E+00  0.51100000000E-03 0.  1.
</event>
<event>
 8    1  0.2123879E+004  0.1043930E+01  0.7957747E-01            NaN
         13   -1    0    0    0    0  0.00000000000E+00  0.00000000000E+00  0.74505805969E-08  0.10566000000E+00  0.10566000000E+00 0. -1.
     999900   -1    0    0    0    0 -0.00000000000E+00 -0.00000000000E+00 -0.74505805969E-08  0.93827000000E+00  0.93827000000E+00 0. -1.
     999902    2    1    2    0    0  0.89983186590E-02  0.63264951297E-02  0.11428092641E-02  0.10328710537E+01  0.10328118480E+01 0.  0.
     999903    2    3    3    0    0  0.65486485946E-01 -0.11686605519E+00  0.17515559542E-01  0.14234571191E+00  0.44825798113E-01 0.  0.
         14    1    1    2    0    0 -0.89983186590E-02 -0.63264951297E-02 -0.11428092641E-02  0.11058946258E-01  0.00000000000E+00 0.  1.
     999901    1    3    3    0    0 -0.56488167287E-01  0.12319255032E+00 -0.16372750278E-01  0.89052534183E+00  0.88000000000E+00 0.  1.
        -11    1    4    4    0    0  0.78047687403E-02 -0.19428754355E-01  0.20177698360E-01  0.29082495474E-01  0.51100000000E-03 0.  1.
         11    1    4    4    0    0  0.57681717206E-01 -0.97437300831E-01 -0.26621388185E-02  0.11326321643E+00  0.51100000000E-03 0. -1.
</event>
<event>
 8    1  0.2123879E+004  0.1043930E+01  0.7957747E-01            NaN
         13   -1    0    0    0    0  0.00000000000E+00  0.00000000000E+00  0.74505805969E-08  0.10566000000E+00  0.10566000000E+00 0.  1.
     999900   -1    0    0    0    0 -0.00000000000E+00 -0.00000000000E+00 -0.74505805969E-08  0.93827000000E+00  0.93827000000E+00 0. -1.
     999902    2    1    2    0    0 -0.77571039759E-02 -0.10485539543E-01  0.26135005898E-02  0.10306277601E+01  0.10305419110E+01 0.  0.
     999903    2    3    3    0    0  0.85842606595E-01  0.99194876047E-01 -0.23741036733E-02  0.13887915448E+00  0.45532478969E-01 0.  0.
         14    1    1    2    0    0  0.77571039759E-02  0.10485539543E-01 -0.26135005898E-02  0.13302239921E-01  0.00000000000E+00 0.  1.
     999901    1    3    3    0    0 -0.93599710571E-01 -0.10968041559E+00  0.49876042631E-02  0.89174860559E+00  0.88000000000E+00 0.  1.
        -11    1    4    4    0    0  0.13603084381E-01  0.37663569017E-01  0.14312912523E-01  0.42528918651E-01  0.51100000000E-03 0. -1.
         11    1    4    4    0    0  0.72239522214E-01  0.61531307031E-01 -0.16687016196E-01  0.96350235833E-01  0.51100000000E-03 0.  1.
</event>
<event>
 8    1  0.2123879E+004  0.1043930E+01  0.7957747E-01            NaN
         13   -1    0    0    0    0  0.00000000000E+00  0.00000000000E+00  0.74505805969E-08  0.10566000000E+00  0.10566000000E+00 0. -1.
     999900   -1    0    0    0    0 -0.00000000000E+00 -0.00000000000E+00 -0.74505805969E-08  0.93827000000E+00  0.93827000000E+00 0.  1.
     999902    2    1    2    0    0 -0.51278110256E-03 -0.10344099309E-01 -0.56083985802E-02  0.10321521619E+01  0.10320849616E+01 0.  0.
     999903    2    3    3    0    0  0.33284585712E-01 -0.13025435887E+00 -0.20144490684E-01  0.14325845044E+00  0.45200901189E-01 0.  0.
         14    1    1    2    0    0  0.51278110256E-03  0.10344099309E-01  0.56083985802E-02  0.11777838071E-01  0.00000000000E+00 0. -1.
     999901    1    3    3    0    0 -0.33797366815E-01  0.11991025956E+00  0.14536092104E-01  0.88889371149E+00  0.88000000000E+00 0.  1.
        -11    1    4    4    0    0 -0.10181060624E-01 -0.34873924823E-01 -0.11381212277E-01  0.38074108550E-01  0.51100000000E-03 0.  1.
         11    1    4    4    0    0  0.43465646336E-01 -0.95380434043E-01 -0.87632784075E-02  0.10518434189E+00  0.51100000000E-03 0. -1.
</event>
<event>
 8    1  0.2123879E+004  0.1043930E+01  0.7957747E-01            NaN
         13   -1    0    0    0    0  0.00000000000E+00  0.00000000000E+00  0.74505805969E-08  0.10566000000E+00  0.10566000000E+00 0. -1.
     999900   -1    0    0    0    0 -0.00000000000E+00 -0.00000000000E+00 -0.74505805969E-08  0.93827000000E+00  0.93827000000E+00 0. -1.
     999902    2    1    2    0    0  0.39680094575E-02  0.16782133337E-02 -0.12345262751E-01  0.10308545646E+01  0.10307716363E+01 0.  0.
     999903    2    3    3    0    0 -0.38243515951E-01  0.73943745587E-01  0.10269661987E+00  0.13942943885E+00  0.44313978177E-01 0.  0.
         14    1    1    2    0    0 -0.39680094575E-02 -0.16782133337E-02  0.12345262751E-01  0.13075435420E-01  0.00000000000E+00 0. -1.
     999901    1    3    3    0    0  0.42211525408E-01 -0.72265532253E-01 -0.11504188262E+00  0.89142512573E+00  0.88000000000E+00 0. -1.
        -11    1    4    4    0    0 -0.29153590507E-01  0.47027040081E-01  0.33642373739E-01  0.64757584653E-01  0.51100000000E-03 0. -1.
         11    1    4    4    0    0 -0.90899254441E-02  0.26916705506E-01  0.69054246127E-01  0.74671854195E-01  0.51100000000E-03 0.  1.
</event>
<event>
 8    1  0.2123879E+004  0.1043930E+01  0.7957747E-01            NaN
         13   -1    0    0    0    0  0.00000000000E+00  0.00000000000E+00  0.74505805969E-08  0.10566000000E+00  0.10566000000E+00 0. -1.
     999900   -1    0    0    0    0 -0.00000000000E+00 -0.00000000000E+00 -0.74505805969E-08  0.93827000000E+00  0.93827000000E+00 0. -1.
     999902    2    1    2    0    0 -0.15115265714E-01 -0.35005744682E-02 -0.42544464199E-03  0.10284088440E+01  0.10282917116E+01 0.  0.
     999903    2    3    3    0    0 -0.10404843737E+00 -0.38792591038E-01 -0.72898247507E-01  0.14026080311E+00  0.45033276157E-01 0.  0.
         14    1    1    2    0    0  0.15115265714E-01  0.35005744682E-02  0.42544464199E-03  0.15521155961E-01  0.00000000000E+00 0. -1.
     999901    1    3    3    0    0  0.88933171652E-01  0.35292016570E-01  0.72472802865E-01  0.88814804093E+00  0.88000000000E+00 0. -1.
        -11    1    4    4    0    0 -0.50394688036E-01 -0.40526292011E-01 -0.50670224130E-01  0.82156787065E-01  0.51100000000E-03 0. -1.
         11    1    4    4    0    0 -0.53653749330E-01  0.17337009728E-02 -0.22228023377E-01  0.58104016044E-01  0.51100000000E-03 0.  1.
</event>
<event>
 8    1  0.2123879E+004  0.1043930E+01  0.7957747E-01            NaN
         13   -1    0    0    0    0  0.00000000000E+00  0.00000000000E+00  0.74505805969E-08  0.10566000000E+00  0.10566000000E+00 0.  1.
     999900   -1    0    0    0    0 -0.00000000000E+00 -0.00000000000E+00 -0.74505805969E-08  0.93827000000E+00  0.93827000000E+00 0.  1.
     999902    2    1    2    0    0  0.10304086597E-02 -0.87883628281E-02 -0.98415876576E-02  0.10306954274E+01  0.10306104551E+01 0.  0.
     999903    2    3    3    0    0  0.56088347107E-01 -0.61433500173E-01 -0.10600477752E+00  0.14218530023E+00  0.45383577634E-01 0.  0.
         14    1    1    2    0    0 -0.10304086597E-02  0.87883628281E-02  0.98415876576E-02  0.13234572559E-01  0.00000000000E+00 0.  1.
     999901    1    3    3    0    0 -0.55057938447E-01  0.52645137345E-01  0.96163189866E-01  0.88851012721E+00  0.88000000000E+00 0. -1.
        -11    1    4    4    0    0  0.59849908971E-01 -0.44681598887E-01 -0.70333613914E-01  0.10259403126E+00  0.51100000000E-03 0. -1.
         11    1    4    4    0    0 -0.37615618643E-02 -0.16751901286E-01 -0.35671163610E-01  0.39591268970E-01  0.51100000000E-03 0.  1.
</event>
<event>
 8    1  0.2123879E+004  0.1043930E+01  0.7957747E-01            NaN
         13   -1    0    0    0    0  0.00000000000E+00  0.00000000000E+00  0.74505805969E-08  0.10566000000E+00  0.10566000000E+00 0. -1.
     999900   -1    0    0    0    0 -0.00000000000E+00 -0.00000000000E+00 -0.74505805969E-08  0.93827000000E+00  0.93827000000E+00 0. -1.
     999902    2    1    2    0    0 -0.11064122949E-01  0.67963761536E-02  0.46116808456E-02  0.10301505535E+01  0.10300583914E+01 0.  0.
     999903    2    3    3    0    0 -0.80238269226E-02  0.90258948755E-01 -0.97047898772E-01  0.14036972962E+00  0.45544557402E-01 0.  0.
         14    1    1    2    0    0  0.11064122949E-01 -0.67963761536E-02 -0.46116808456E-02  0.13779446494E-01  0.00000000000E+00 0.  1.
     999901    1    3    3    0    0 -0.30402960266E-02 -0.83462572602E-01  0.10165957962E+00  0.88978082388E+00  0.88000000000E+00 0.  1.
        -11    1    4    4    0    0 -0.23916209185E-01  0.60264211267E-01 -0.47795772343E-01  0.80550960244E-01  0.51100000000E-03 0.  1.
         11    1    4    4    0    0  0.15892382262E-01  0.29994737488E-01 -0.49252126429E-01  0.59818769377E-01  0.51100000000E-03 0. -1.
</event>
<event>
 8    1  0.2123879E+004  0.1043930E+01  0.7957747E-01            NaN
         13   -1    0    0    0    0  0.00000000000E+00  0.00000000000E+00  0.74505805969E-08  0.10566000000E+00  0.10566000000E+00 0.  1.
     999900   -1    0    0    0    0 -0.00000000000E+00 -0.00000000000E+00 -0.74505805969E-08  0.93827000000E+00  0.93827000000E+00 0. -1.
     999902    2    1    2    0    0  0.64237312576E-02 -0.92188553909E-02  0.80995042121E-02  0.10300788778E+01  0.10299857479E+01 0.  0.
     999903    2    3    3    0    0 -0.12981769156E+00  0.22657999100E-01  0.63334165153E-02  0.13902277506E+00  0.43831516694E-01 0.  0.
         14    1    1    2    0    0 -0.64237312576E-02  0.92188553909E-02 -0.80995042121E-02  0.13851122210E-01  0.00000000000E+00 0.  1.
     999901    1    3    3    0    0  0.13624142282E+00 -0.31876854491E-01  0.17660876969E-02  0.89105610273E+00  0.88000000000E+00 0.  1.
        -11    1    4    4    0    0 -0.64025467970E-01  0.26650914408E-01  0.18985178257E-01  0.71904310733E-01  0.51100000000E-03 0.  1.
         11    1    4    4    0    0 -0.65792223591E-01 -0.39929153072E-02 -0.12651761742E-01  0.67118464329E-01  0.51100000000E-03 0. -1.
</event>
<event>
 8    1  0.2123879E+004  0.1043930E+01  0.7957747E-01            NaN
         13   -1    0    0    0    0  0.00000000000E+00  0.00000000000E+00  0.74505805969E-08  0.10566000000E+00  0.10566000000E+00 0.  1.
     999900   -1    0    0    0    0 -0.00000000000E+00 -0.00000000000E+00 -0.74505805969E-08  0.93827000000E+00  0.93827000000E+00 0. -1.
     999902    2    1    2    0    0 -0.55162143505E-02  0.23626003527E-02  0.12674919044E-01  0.10299063031E+01  0.10298108220E+01 0.  0.
     999903    2    3    3    0    0  0.45491165311E-01 -0.71740679651E-01 -0.99143466551E-01  0.13828059677E+00  0.45562322637E-01 0.  0.
         14    1    1    2    0    0  0.55162143505E-02 -0.23626003527E-02 -0.12674919044E-01  0.14023696872E-01  0.00000000000E+00 0. -1.
     999901    1    3    3    0    0 -0.51007379662E-01  0.74103280004E-01  0.11181838560E+00  0.89162570636E+00  0.88000000000E+00 0.  1.
        -11    1    4    4    0    0  0.56076774923E-02 -0.22094924502E-01 -0.58362090037E-01  0.62658011540E-01  0.51100000000E-03 0. -1.
         11    1    4    4    0    0  0.39883487819E-01 -0.49645755150E-01 -0.40781376514E-01  0.75622585227E-01  0.51100000000E-03 0.  1.
</event>
<event>
 8    1  0.2123879E+004  0.1043930E+01  0.7957747E-01            NaN
         13   -1    0    0    0    0  0.00000000000E+00  0.00000000000E+00  0.74505805969E-08  0.10566000000E+00  0.10566000000E+00 0.  1.
     999900   -1    0    0    0    0 -0.00000000000E+00 -0.00000000000E+00 -0.74505805969E-08  0.93827000000E+00  0.93827000000E+00 0.  1.
     999902    2    1    2    0    0  0.13633029529E-01 -0.18178687415E-01  0.45001636489E-02  0.10207658975E+01  0.10205030338E+01 0.  0.
     999903    2    3    3    0    0  0.37595342817E-01 -0.88550980485E-01 -0.80482689926E-01  0.13355197886E+00  0.45869180638E-01 0.  0.
         14    1    1    2    0    0 -0.13633029529E-01  0.18178687415E-01 -0.45001636489E-02  0.23164102468E-01  0.00000000000E+00 0.  1.
     999901    1    3    3    0    0 -0.23962313289E-01  0.70372293070E-01  0.84982853575E-01  0.88721391868E+00  0.88000000000E+00 0. -1.
        -11    1    4    4    0    0  0.42523132396E-02 -0.53130732805E-01 -0.61364415222E-01  0.81282282896E-01  0.51100000000E-03 0. -1.
         11    1    4    4    0    0  0.33343029578E-01 -0.35420247680E-01 -0.19118274704E-01  0.52269695960E-01  0.51100000000E-03 0.  1.
</event>
<event>
 8    1  0.2123879E+004  0.1043930E+01  0.7957747E-01            NaN
         13   -1    0    0    0    0  0.00000000000E+00  0.00000000000E+00  0.74505805969E-08  0.10566000000E+00  0.10566000000E+00 0.  1.
     999900   -1    0    0    0    0 -0.00000000000E+00 -0.00000000000E+00 -0.74505805969E-08  0.93827000000E+00  0.93827000000E+00 0. -1.
     999902    2    1    2    0    0 -0.53694058807E-03 -0.16732206924E-01  0.22011575199E-02  0.10270450911E+01  0.10269062854E+01 0.  0.
     999903    2    3    3    0    0  0.11599389554E+00  0.10151699883E-01  0.56664568028E-01  0.13728757173E+00  0.45600035834E-01 0.  0.
         14    1    1    2    0    0  0.53694058807E-03  0.16732206924E-01 -0.22011575199E-02  0.16884908888E-01  0.00000000000E+00 0.  1.
     999901    1    3    3    0    0 -0.11653083613E+00 -0.26883906807E-01 -0.54463410508E-01  0.88975751938E+00  0.88000000000E+00 0. -1.
        -11    1    4    4    0    0  0.34915542261E-02  0.92857849575E-02  0.13552882754E-01  0.16803526568E-01  0.51100000000E-03 0.  1.
         11    1    4    4    0    0  0.11250234132E+00  0.86591492592E-03  0.43111685274E-01  0.12048404516E+00  0.51100000000E-03 0. -1.
</event>
<event>
 8    1  0.2123879E+004  0.1043930E+01  0.7957747E-01            NaN
         13   -1    0    0    0    0  0.00000000000E+00  0.00000000000E+00  0.74505805969E-08  0.10566000000E+00  0.10566000000E+00 0.  1.
     999900   -1    0    0    0    0 -0.00000000000E+00 -0.00000000000E+00 -0.74505805969E-08  0.93827000000E+00  0.93827000000E+00 0.  1.
     999902    2    1    2    0    0  0.11132497028E-01 -0.45212241310E-02 -0.72177178202E-02  0.10299132454E+01  0.10298178595E+01 0.  0.
     999903    2    3    3    0    0 -0.10642804971E+00  0.28826400498E-01 -0.70214333414E-01  0.13923871466E+00  0.47952850918E-01 0.  0.
         14    1    1    2    0    0 -0.11132497028E-01  0.45212241310E-02  0.72177178202E-02  0.14016754555E-01  0.00000000000E+00 0.  1.
     999901    1    3    3    0    0  0.11756054674E+00 -0.33347624629E-01  0.62996615593E-01  0.89067453079E+00  0.88000000000E+00 0. -1.
        -11    1    4    4    0    0 -0.68240433977E-01  0.27416004613E-01 -0.69240234443E-01  0.10100923386E+00  0.51100000000E-03 0.  1.
         11    1    4    4    0    0 -0.38187615737E-01  0.14103958843E-02 -0.97409897081E-03  0.38229480797E-01  0.51100000000E-03 0. -1.
</event>
<event>
 8    1  0.2123879E+004  0.1043930E+01  0.7957747E-01            NaN
         13   -1    0    0    0    0  0.00000000000E+00  0.00000000000E+00  0.74505805969E-08  0.10566000000E+00  0.10566000000E+00 0.  1.
     999900   -1    0    0    0    0 -0.00000000000E+00 -0.00000000000E+00 -0.74505805969E-08  0.93827000000E+00  0.93827000000E+00 0.  1.
     999902    2    1    2    0    0  0.93699772624E-02  0.55624018747E-02  0.76129896313E-02  0.10306373554E+01  0.10305516309E+01 0.  0.
     999903    2    3    3    0    0  0.71306108518E-01 -0.95522196468E-01 -0.58478519382E-01  0.14023167938E+00  0.45123558627E-01 0.  0.
         14    1    1    2    0    0 -0.93699772624E-02 -0.55624018747E-02 -0.76129896313E-02  0.13292644569E-01  0.00000000000E+00 0. -1.
     999901    1    3    3    0    0 -0.61936131256E-01  0.10108459834E+00  0.66091509013E-01  0.89040567605E+00  0.88000000000E+00 0. -1.
        -11    1    4    4    0    0  0.26851828109E-01 -0.62008263394E-02 -0.10184184883E-01  0.29384513996E-01  0.51100000000E-03 0.  1.
         11    1    4    4    0    0  0.44454280410E-01 -0.89321370128E-01 -0.48294334499E-01  0.11084716539E+00  0.51100000000E-03 0. -1.
</event>
<event>
 8    1  0.2123879E+004  0.1043930E+01  0.7957747E-01            NaN
         13   -1    0    0    0    0  0.00000000000E+00  0.00000000000E+00  0.74505805969E-08  0.10566000000E+00  0.10566000000E+00 0.  1.
     999900   -1    0    0    0    0 -0.00000000000E+00 -0.00000000000E+00 -0.74505805969E-08  0.93827000000E+00  0.93827000000E+00 0. -1.
     999902    2    1    2    0    0 -0.89905684401E-02 -0.85574273604E-02 -0.87509239923E-02  0.10287432112E+01  0.10286311078E+01 0.  0.
     999903    2    3    3    0    0 -0.10489481797E+00  0.57141870134E-01  0.52532173623E-01  0.13898501885E+00  0.47844435824E-01 0.  0.
         14    1    1    2    0    0  0.89905684401E-02  0.85574273604E-02  0.87509239923E-02  0.15186788819E-01  0.00000000000E+00 0. -1.
     999901    1    3    3    0    0  0.95904249530E-01 -0.65699297494E-01 -0.61283097616E-01  0.88975819233E+00  0.88000000000E+00 0. -1.
        -11    1    4    4    0    0 -0.55107949763E-01  0.31822444837E-01  0.20119586862E-02  0.63669955405E-01  0.51100000000E-03 0.  1.
         11    1    4    4    0    0 -0.49786868208E-01  0.25319425297E-01  0.50520214937E-01  0.75315063444E-01  0.51100000000E-03 0. -1.
</event>
<event>
 8    1  0.2224681E+004  0.1043930E+01  0.7957747E-01            NaN
         13   -1    0    0    0    0  0.00000000000E+00  0.00000000000E+00  0.74505805969E-08  0.10566000000E+00  0.10566000000E+00 0.  1.
     999900   -1    0    0    0    0 -0.00000000000E+00 -0.00000000000E+00 -0.74505805969E-08  0.93827000000E+00  0.93827000000E+00 0.  1.
     999902    2    1    2    0    0 -0.13008128849E-04 -0.11975059760E-01  0.66169226699E-02  0.10302484105E+01  0.10301575615E+01 0.  0.
     999903    2    3    3    0    0  0.59114280826E-01 -0.66307248527E-01  0.10052941366E+00  0.14161598987E+00  0.45362717876E-01 0.  0.
         14    1    1    2    0    0  0.13008128849E-04  0.11975059760E-01 -0.66169226699E-02  0.13681589494E-01  0.00000000000E+00 0.  1.
     999901    1    3    3    0    0 -0.59127288955E-01  0.54332188766E-01 -0.93912490986E-01  0.88863242063E+00  0.88000000000E+00 0.  1.
        -11    1    4    4    0    0  0.84395721305E-02 -0.38040403437E-01  0.57127034053E-01  0.69152424485E-01  0.51100000000E-03 0. -1.
         11    1    4    4    0    0  0.50674708695E-01 -0.28266845090E-01  0.43402379602E-01  0.72463565389E-01  0.51100000000E-03 0.  1.
</event>
<event>
 8    1  0.2123879E+004  0.1043930E+01  0.7957747E-01            NaN
         13   -1    0    0    0    0  0.00000000000E+00  0.00000000000E+00  0.74505805969E-08  0.10566000000E+00  0.10566000000E+00 0. -1.
     999900   -1    0    0    0    0 -0.00000000000E+00 -0.00000000000E+00 -0.74505805969E-08  0.93827000000E+00  0.93827000000E+00 0. -1.
     999902    2    1    2    0    0 -0.86081783109E-02  0.84747614357E-02  0.92888614584E-02  0.10286917172E+01  0.10285788467E+01 0.  0.
     999903    2    3    3    0    0 -0.12020981803E+00  0.37655796890E-01 -0.38453622961E-01  0.13988026159E+00  0.47111007993E-01 0.  0.
         14    1    1    2    0    0  0.86081783109E-02 -0.84747614357E-02 -0.92888614584E-02  0.15238282791E-01  0.00000000000E+00 0.  1.
     999901    1    3    3    0    0  0.11160163972E+00 -0.29181035454E-01  0.47742484419E-01  0.88881145562E+00  0.88000000000E+00 0. -1.
        -11    1    4    4    0    0 -0.56395459376E-01 -0.47759462387E-02 -0.25818502580E-01  0.62210237880E-01  0.51100000000E-03 0. -1.
         11    1    4    4    0    0 -0.63814358653E-01  0.42431743129E-01 -0.12635120381E-01  0.77670023711E-01  0.51100000000E-03 0.  1.
</event>
<event>
 8    1  0.2123879E+004  0.1043930E+01  0.7957747E-01            NaN
         13   -1    0    0    0    0  0.00000000000E+00  0.00000000000E+00  0.74505805969E-08  0.10566000000E+00  0.10566000000E+00 0.  1.
     999900   -1    0    0    0    0 -0.00000000000E+00 -0.00000000000E+00 -0.74505805969E-08  0.93827000000E+00  0.93827000000E+00 0. -1.
     999902    2    1    2    0    0  0.10235131916E-01  0.83644304890E-02 -0.52843992893E-02  0.10296946040E+01  0.10295961981E+01 0.  0.
     999903    2    3    3    0    0 -0.38423993746E-01  0.94721594850E-01 -0.85925392548E-01  0.14046558957E+00  0.43575508526E-01 0.  0.
         14    1    1    2    0    0 -0.10235131916E-01 -0.83644304890E-02  0.52843992893E-02  0.14235395976E-01  0.00000000000E+00 0.  1.
     999901    1    3    3    0    0  0.48659125662E-01 -0.86357164361E-01  0.80640993259E-01  0.88922901445E+00  0.88000000000E+00 0.  1.
        -11    1    4    4    0    0 -0.17450403967E-01  0.15087073580E-01 -0.39989076124E-01  0.46168427719E-01  0.51100000000E-03 0. -1.
         11    1    4    4    0    0 -0.20973589778E-01  0.79634521270E-01 -0.45936316424E-01  0.94297161854E-01  0.51100000000E-03 0.  1.
</event>
<event>
 8    1  0.2123879E+004  0.1043930E+01  0.7957747E-01            NaN
         13   -1    0    0    0    0  0.00000000000E+00  0.00000000000E+00  0.74505805969E-08  0.10566000000E+00  0.10566000000E+00 0.  1.
     999900   -1    0    0    0    0 -0.00000000000E+00 -0.00000000000E+00 -0.74505805969E-08  0.93827000000E+00  0.93827000000E+00 0.  1.
     999902    2    1    2    0    0  0.83732815908E-02 -0.65389511116E-02 -0.95749032774E-02  0.10296279547E+01  0.10295286187E+01 0.  0.
     999903    2    3    3    0    0 -0.98417745149E-01 -0.40275732903E-01  0.76038487586E-01  0.13840848314E+00  0.45462835261E-01 0.  0.
         14    1    1    2    0    0 -0.83732815908E-02  0.65389511116E-02  0.95749032774E-02  0.14302045274E-01  0.00000000000E+00 0. -1.
     999901    1    3    3    0    0  0.10679102674E+00  0.33736781792E-01 -0.85613390863E-01  0.89121947159E+00  0.88000000000E+00 0. -1.
        -11    1    4    4    0    0 -0.41212613643E-01 -0.68222644513E-02  0.54614649115E-01  0.68760772497E-01  0.51100000000E-03 0.  1.
         11    1    4    4    0    0 -0.57205131506E-01 -0.33453468452E-01  0.21423838471E-01  0.69647710644E-01  0.51100000000E-03 0. -1.
</event>
<event>
 8    1  0.2123879E+004  0.1043930E+01  0.7957747E-01            NaN
         13   -1    0    0    0    0  0.00000000000E+00  0.00000000000E+00  0.74505805969E-08  0.10566000000E+00  0.10566000000E+00 0.  1.
     999900   -1    0    0    0    0 -0.00000000000E+00 -0.00000000000E+00 -0.74505805969E-08  0.93827000000E+00  0.93827000000E+00 0. -1.
     999902    2    1    2    0    0  0.90546204702E-02  0.45393864103E-02 -0.11245089303E-01  0.10287957932E+01  0.10286844706E+01 0.  0.
     999903    2    3    3    0    0  0.61722582871E-01 -0.84079652815E-01 -0.81443787092E-01  0.14000160697E+00  0.45697858201E-01 0.  0.
         14    1    1    2    0    0 -0.90546204702E-02 -0.45393864103E-02  0.11245089303E-01  0.15134206761E-01  0.00000000000E+00 0.  1.
     999901    1    3    3    0    0 -0.52667962401E-01  0.88619039225E-01  0.70198697790E-01  0.88879418627E+00  0.88000000000E+00 0.  1.
        -11    1    4    4    0    0  0.30066876459E-01 -0.71561047125E-01 -0.68673687312E-01  0.10364042153E+00  0.51100000000E-03 0. -1.
         11    1    4    4    0    0  0.31655706412E-01 -0.12518605690E-01 -0.12770099780E-01  0.36361185435E-01  0.51100000000E-03 0.  1.
</event>
<event>
 8    1  0.2123879E+004  0.1043930E+01  0.7957747E-01            NaN
         13   -1    0    0    0    0  0.00000000000E+00  0.00000000000E+00  0.74505805969E-08  0.10566000000E+00  0.10566000000E+00 0.  1.
     999900   -1    0    0    0    0 -0.00000000000E+00 -0.00000000000E+00 -0.74505805969E-08  0.93827000000E+00  0.93827000000E+00 0.  1.
     999902    2    1    2    0    0 -0.13452660445E-01 -0.78138257161E-03 -0.33327415619E-02  0.10300486529E+01  0.10299551133E+01 0.  0.
     999903    2    3    3    0    0  0.10386442446E+00  0.77481629108E-01  0.20417500398E-01  0.13850366163E+00  0.44442867221E-01 0.  0.
         14    1    1    2    0    0  0.13452660445E-01  0.78138257161E-03  0.33327415619E-02  0.13881347128E-01  0.00000000000E+00 0. -1.
     999901    1    3    3    0    0 -0.11731708490E+00 -0.78263011680E-01 -0.23750241960E-01  0.89154499124E+00  0.88000000000E+00 0. -1.
        -11    1    4    4    0    0  0.52204162446E-01  0.13125609720E-01  0.15837367840E-02  0.53854670647E-01  0.51100000000E-03 0. -1.
         11    1    4    4    0    0  0.51660262010E-01  0.64356019388E-01  0.18833763614E-01  0.84648990988E-01  0.51100000000E-03 0.  1.
</event>
<event>
 8    1  0.2123879E+004  0.1043930E+01  0.7957747E-01            NaN
         13   -1    0    0    0    0  0.00000000000E+00  0.00000000000E+00  0.74505805969E-08  0.10566000000E+00  0.10566000000E+00 0.  1.
     999900   -1    0    0    0    0 -0.00000000000E+00 -0.00000000000E+00 -0.74505805969E-08  0.93827000000E+00  0.93827000000E+00 0. -1.
     999902    2    1    2    0    0 -0.43659604619E-03 -0.15377542398E-01  0.86376825681E-02  0.10262871831E+01  0.10261355239E+01 0.  0.
     999903    2    3    3    0    0 -0.52511983390E-01  0.80278240492E-01  0.85485645724E-01  0.13624927148E+00  0.45320680243E-01 0.  0.
         14    1    1    2    0    0  0.43659604619E-03  0.15377542398E-01 -0.86376825681E-02  0.17642816851E-01  0.00000000000E+00 0. -1.
     999901    1    3    3    0    0  0.52075387344E-01 -0.95655782890E-01 -0.76847963156E-01  0.89003791167E+00  0.88000000000E+00 0.  1.
        -11    1    4    4    0    0  0.80808100370E-02  0.11656100991E-01  0.15498459342E-01  0.21014936215E-01  0.51100000000E-03 0. -1.
         11    1    4    4    0    0 -0.60592793427E-01  0.68622139501E-01  0.69987186382E-01  0.11523433526E+00  0.51100000000E-03 0.  1.
</event>
<event>
 8    1  0.2649370E+004  0.1043930E+01  0.7957747E-01            NaN
         13   -1    0    0    0    0  0.00000000000E+00  0.00000000000E+00  0.74505805969E-08  0.10566000000E+00  0.10566000000E+00 0.  1.
     999900   -1    0    0    0    0 -0.00000000000E+00 -0.00000000000E+00 -0.74505805969E-08  0.93827000000E+00  0.93827000000E+00 0. -1.
     999902    2    1    2    0    0 -0.11195673491E-01  0.66194951451E-04  0.70437663849E-02  0.10307026748E+01  0.10306177961E+01 0.  0.
     999903    2    3    3    0    0 -0.69847881834E-01 -0.11161846742E+00  0.25445847499E-01  0.14151642776E+00  0.45188486429E-01 0.  0.
         14    1    1    2    0    0  0.11195673491E-01 -0.66194951451E-04 -0.70437663849E-02  0.13227325186E-01  0.00000000000E+00 0. -1.
     999901    1    3    3    0    0  0.58652208344E-01  0.11168466237E+00 -0.18402081114E-01  0.88918624705E+00  0.88000000000E+00 0. -1.
        -11    1    4    4    0    0 -0.54445984855E-01 -0.72910060695E-01  0.37075845146E-01  0.98260478483E-01  0.51100000000E-03 0. -1.
         11    1    4    4    0    0 -0.15401896979E-01 -0.38708406728E-01 -0.11629997647E-01  0.43255949281E-01  0.51100000000E-03 0.  1.
</event>
<event>
 8    1  0.2123879E+004  0.1043930E+01  0.7957747E-01            NaN
         13   -1    0    0    0    0  0.00000000000E+00  0.00000000000E+00  0.74505805969E-08  0.10566000000E+00  0.10566000000E+00 0. -1.
     999900   -1    0    0    0    0 -0.00000000000E+00 -0.00000000000E+00 -0.74505805969E-08  0.93827000000E+00  0.93827000000E+00 0.  1.
     999902    2    1    2    0    0 -0.31288129678E-02  0.78290922845E-02  0.96950523526E-02  0.10310817240E+01  0.10310016699E+01 0.  0.
     999903    2    3    3    0    0  0.12973649069E+00  0.29885612122E-01  0.48325537376E-04  0.14078248309E+00  0.45771152300E-01 0.  0.
         14    1    1    2    0    0  0.31288129678E-02 -0.78290922845E-02 -0.96950523526E-02  0.12848276021E-01  0.00000000000E+00 0. -1.
     999901    1    3    3    0    0 -0.13286530366E+00 -0.22056519838E-01  0.96467268152E-02  0.89029924089E+00  0.88000000000E+00 0. -1.
        -11    1    4    4    0    0  0.10165832559E+00  0.87327616339E-02 -0.13864616655E-01  0.10297167087E+00  0.51100000000E-03 0.  1.
         11    1    4    4    0    0  0.28078165102E-01  0.21152850488E-01  0.13912942192E-01  0.37810812220E-01  0.51100000000E-03 0. -1.
</event>
<event>
 8    1  0.2123879E+004  0.1043930E+01  0.7957747E-01            NaN
         13   -1    0    0    0    0  0.00000000000E+00  0.00000000000E+00  0.74505805969E-08  0.10566000000E+00  0.10566000000E+00 0.  1.
     999900   -1    0    0    0    0 -0.00000000000E+00 -0.00000000000E+00 -0.74505805969E-08  0.93827000000E+00  0.93827000000E+00 0.  1.
     999902    2    1    2    0    0 -0.75046702646E-02  0.11591143524E-01 -0.12700489506E-02  0.10300632156E+01  0.10299698736E+01 0.  0.
     999903    2    3    3    0    0 -0.72579425830E-01 -0.10184806057E+00 -0.42202878630E-01  0.13945742553E+00  0.45016553362E-01 0.  0.
         14    1    1    2    0    0  0.75046702646E-02 -0.11591143524E-01  0.12700489506E-02  0.13866784353E-01  0.00000000000E+00 0. -1.
     999901    1    3    3    0    0  0.65074755565E-01  0.11343920409E+00  0.40932829680E-01  0.89060579011E+00  0.88000000000E+00 0. -1.
        -11    1    4    4    0    0 -0.34378359993E-01 -0.14657870749E-01 -0.73995373367E-02  0.38101693984E-01  0.51100000000E-03 0. -1.
         11    1    4    4    0    0 -0.38201065837E-01 -0.87190189819E-01 -0.34803341293E-01  0.10135573155E+00  0.51100000000E-03 0.  1.
</event>
<event>
 8    1  0.2123879E+004  0.1043930E+01  0.7957747E-01            NaN
         13   -1    0    0    0    0  0.00000000000E+00  0.00000000000E+00  0.74505805969E-08  0.10566000000E+00  0.10566000000E+00 0.  1.
     999900   -1    0    0    0    0 -0.00000000000E+00 -0.00000000000E+00 -0.74505805969E-08  0.93827000000E+00  0.93827000000E+00 0.  1.
     999902    2    1    2    0    0  0.60070003903E-02 -0.40610792231E-02  0.90725271553E-02  0.10323159065E+01  0.10322505722E+01 0.  0.
     999903    2    3    3    0    0 -0.81315675203E-01  0.89968927813E-01 -0.55517393252E-01  0.14066645203E+00  0.44701485066E-01 0.  0.
         14    1    1    2    0    0 -0.60070003903E-02  0.40610792231E-02 -0.90725271553E-02  0.11614093470E-01  0.00000000000E+00 0. -1.
     999901    1    3    3    0    0  0.87322675593E-01 -0.94030007036E-01  0.64589920407E-01  0.89164945450E+00  0.88000000000E+00 0. -1.
        -11    1    4    4    0    0 -0.56731265200E-01  0.86067000458E-01 -0.52206955435E-01  0.11554995602E+00  0.51100000000E-03 0. -1.
         11    1    4    4    0    0 -0.24584410002E-01  0.39019273550E-02 -0.33104378170E-02  0.25116496009E-01  0.51100000000E-03 0.  1.
</event>
<event>
 8    1  0.2123879E+004  0.1043930E+01  0.7957747E-01            NaN
         13   -1    0    0    0    0  0.00000000000E+00  0.00000000000E+00  0.74505805969E-08  0.10566000000E+00  0.10566000000E+00 0.  1.
     999900   -1    0    0    0    0 -0.00000000000E+00 -0.00000000000E+00 -0.74505805969E-08  0.93827000000E+00  0.93827000000E+00 0. -1.
     999902    2    1    2    0    0 -0.11140148966E-01  0.21647864863E-02  0.94859885859E-02  0.10291390163E+01  0.10290327214E+01 0.  0.
     999903    2    3    3    0    0  0.60081211305E-02  0.31441274203E-01 -0.12660338498E+00  0.13803212400E+00  0.44719111388E-01 0.  0.
         14    1    1    2    0    0  0.11140148966E-01 -0.21647864863E-02 -0.94859885859E-02  0.14790983706E-01  0.00000000000E+00 0.  1.
     999901    1    3    3    0    0 -0.17148270097E-01 -0.29276487716E-01  0.13608937357E+00  0.89110689230E+00  0.88000000000E+00 0.  1.
        -11    1    4    4    0    0  0.12517743462E-01 -0.26615754794E-02 -0.73343435787E-01  0.74453331554E-01  0.51100000000E-03 0. -1.
         11    1    4    4    0    0 -0.65096223315E-02  0.34102849682E-01 -0.53259949196E-01  0.63578792444E-01  0.51100000000E-03 0.  1.
</event>
<event>
 8    1  0.2123879E+004  0.1043930E+01  0.7957747E-01            NaN
         13   -1    0    0    0    0  0.00000000000E+00  0.00000000000E+00  0.74505805969E-08  0.10566000000E+00  0.10566000000E+00 0. -1.
     999900   -1    0    0    0    0 -0.00000000000E+00 -0.00000000000E+00 -0.74505805969E-08  0.93827000000E+00  0.93827000000E+00 0. -1.
     999902    2    1    2    0    0 -0.93290916037E-02  0.10295780206E-01 -0.87996099842E-03  0.10300084566E+01  0.10299143708E+01 0.  0.
     999903    2    3    3    0    0 -0.15569750041E-01  0.15496715000E-01 -0.13157764000E+00  0.14031869107E+00  0.43521195102E-01 0.  0.
         14    1    1    2    0    0  0.93290916037E-02 -0.10295780206E-01  0.87996099842E-03  0.13921543433E-01  0.00000000000E+00 0. -1.
     999901    1    3    3    0    0  0.62406584371E-02 -0.52009347939E-02  0.13069767900E+00  0.88968976550E+00  0.88000000000E+00 0.  1.
        -11    1    4    4    0    0 -0.23064101577E-01  0.90067033063E-02 -0.33086713164E-01  0.41328745384E-01  0.51100000000E-03 0. -1.
         11    1    4    4    0    0  0.74943515362E-02  0.64900116941E-02 -0.98490926833E-01  0.98989945682E-01  0.51100000000E-03 0.  1.
</event>
<event>
 8    1  0.2123879E+004  0.1043930E+01  0.7957747E-01            NaN
         13   -1    0    0    0    0  0.00000000000E+00  0.00000000000E+00  0.74505805969E-08  0.10566000000E+00  0.10566000000E+00 0.  1.
     999900   -1    0    0    0    0 -0.00000000000E+00 -0.00000000000E+00 -0.74505805969E-08  0.93827000000E+00  0.93827000000E+00 0.  1.
     999902    2    1    2    0    0 -0.15544033597E-02 -0.13674303457E-01 -0.43542642832E-02  0.10294952377E+01  0.10293940364E+01 0.  0.
     999903    2    3    3    0    0 -0.12855235873E-01 -0.48576580509E-01 -0.12538809531E+00  0.14045358176E+00  0.38471975791E-01 0.  0.
         14    1    1    2    0    0  0.15544033597E-02  0.13674303457E-01  0.43542642832E-02  0.14434762287E-01  0.00000000000E+00 0.  1.
     999901    1    3    3    0    0  0.11300832513E-01  0.34902277052E-01  0.12103383103E+00  0.88904165595E+00  0.88000000000E+00 0. -1.
        -11    1    4    4    0    0 -0.25081650624E-01 -0.30805763040E-01 -0.63415215210E-01  0.74832044444E-01  0.51100000000E-03 0. -1.
         11    1    4    4    0    0  0.12226414752E-01 -0.17770817469E-01 -0.61972880101E-01  0.65621537320E-01  0.51100000000E-03 0.  1.
</event>
<event>
 8    1  0.2123879E+004  0.1043930E+01  0.7957747E-01            NaN
         13   -1    0    0    0    0  0.00000000000E+00  0.00000000000E+00  0.74505805969E-08  0.10566000000E+00  0.10566000000E+00 0. -1.
     999900   -1    0    0    0    0 -0.00000000000E+00 -0.00000000000E+00 -0.74505805969E-08  0.93827000000E+00  0.93827000000E+00 0.  1.
     999902    2    1    2    0    0 -0.93699002907E-02  0.99644337468E-02  0.11811763594E-02  0.10302011927E+01  0.10301097113E+01 0.  0.
     999903    2    3    3    0    0 -0.10605302896E+00  0.81481649257E-01  0.16362706787E-01  0.14189222714E+00  0.44487771716E-01 0.  0.
         14    1    1    2    0    0  0.93699002907E-02 -0.99644337468E-02 -0.11811763594E-02  0.13728807266E-01  0.00000000000E+00 0.  1.
     999901    1    3    3    0    0  0.96683128672E-01 -0.71517215510E-01 -0.15181530428E-01  0.88830896559E+00  0.88000000000E+00 0. -1.
        -11    1    4    4    0    0 -0.54187570545E-01  0.34390925565E-01 -0.13751116568E-01  0.65638273063E-01  0.51100000000E-03 0. -1.
         11    1    4    4    0    0 -0.51865458418E-01  0.47090723692E-01  0.30113823356E-01  0.76253954080E-01  0.51100000000E-03 0.  1.
</event>
<event>
 8    1  0.2123879E+004  0.1043930E+01  0.7957747E-01            NaN
         13   -1    0    0    0    0  0.00000000000E+00  0.00000000000E+00  0.74505805969E-08  0.10566000000E+00  0.10566000000E+00 0. -1.
     999900   -1    0    0    0    0 -0.00000000000E+00 -0.00000000000E+00 -0.74505805969E-08  0.93827000000E+00  0.93827000000E+00 0.  1.
     999902    2    1    2    0    0  0.36478452408E-02  0.84333845540E-02  0.12834560936E-01  0.10281453649E+01  0.10280241907E+01 0.  0.
     999903    2    3    3    0    0  0.87018367764E-01  0.96025153102E-01 -0.22930670664E-01  0.13915598719E+00  0.45227721108E-01 0.  0.
         14    1    1    2    0    0 -0.36478452408E-02 -0.84333845540E-02 -0.12834560936E-01  0.15784635072E-01  0.00000000000E+00 0.  1.
     999901    1    3    3    0    0 -0.83370522523E-01 -0.87591768548E-01  0.35765231599E-01  0.88898937774E+00  0.88000000000E+00 0. -1.
        -11    1    4    4    0    0  0.15507264796E-01  0.34463061296E-01  0.10201589061E-01  0.39147303812E-01  0.51100000000E-03 0. -1.
         11    1    4    4    0    0  0.71511102968E-01  0.61562091806E-01 -0.33132259725E-01  0.10000868338E+00  0.51100000000E-03 0.  1.
</event>
<event>
 8    1  0.2123879E+004  0.1043930E+01  0.7957747E-01            NaN
         13   -1    0    0    0    0  0.00000000000E+00  0.00000000000E+00  0.74505805969E-08  0.10566000000E+00  0.10566000000E+00 0.  1.
     999900   -1    0    0    0    0 -0.00000000000E+00 -0.00000000000E+00 -0.74505805969E-08  0.93827000000E+00  0.93827000000E+00 0.  1.
     999902    2    1    2    0    0  0.93663998046E-02  0.70823526912E-02  0.96233807476E-02  0.10287478189E+01  0.10286357841E+01 0.  0.
     999903    2    3    3    0    0 -0.82438118280E-01  0.92929734760E-01  0.43335854893E-01  0.13917805019E+00  0.45393329766E-01 0.  0.
         14    1    1    2    0    0 -0.93663998046E-02 -0.70823526912E-02 -0.96233807476E-02  0.15182181067E-01  0.00000000000E+00 0. -1.
     999901    1    3    3    0    0  0.91804518085E-01 -0.85847382069E-01 -0.33712474146E-01  0.88956976874E+00  0.88000000000E+00 0. -1.
        -11    1    4    4    0    0 -0.63836071693E-02 -0.29704620871E-02  0.10144468565E-01  0.12359022978E-01  0.51100000000E-03 0. -1.
         11    1    4    4    0    0 -0.76054511111E-01  0.95900196847E-01  0.33191386328E-01  0.12681902721E+00  0.51100000000E-03 0.  1.
</event>
<event>
 8    1  0.2123879E+004  0.1043930E+01  0.7957747E-01            NaN
         13   -1    0    0    0    0  0.00000000000E+00  0.00000000000E+00  0.74505805969E-08  0.10566000000E+00  0.10566000000E+00 0. -1.
     999900   -1    0    0    0    0 -0.00000000000E+00 -0.00000000000E+00 -0.74505805969E-08  0.93827000000E+00  0.93827000000E+00 0.  1.
     999902    2    1    2    0    0  0.13304348131E-01 -0.10338750175E-02  0.10261227753E-03  0.10305851468E+01  0.10304987432E+01 0.  0.
     999903    2    3    3    0    0 -0.78765212307E-01 -0.14887849419E-01 -0.10498816540E+00  0.13945507321E+00  0.44716840669E-01 0.  0.
         14    1    1    2    0    0 -0.13304348131E-01  0.10338750175E-02 -0.10261227753E-03  0.13344853166E-01  0.00000000000E+00 0.  1.
     999901    1    3    3    0    0  0.92069560437E-01  0.13853974402E-01  0.10509077768E+00  0.89113007363E+00  0.88000000000E+00 0. -1.
        -11    1    4    4    0    0 -0.51220065485E-01  0.56772265993E-02 -0.37568699406E-01  0.63776126460E-01  0.51100000000E-03 0.  1.
         11    1    4    4    0    0 -0.27545146822E-01 -0.20565076018E-01 -0.67419465995E-01  0.75678946750E-01  0.51100000000E-03 0. -1.
</event>
<event>
 8    1  0.2123879E+004  0.1043930E+01  0.7957747E-01            NaN
         13   -1    0    0    0    0  0.00000000000E+00  0.00000000000E+00  0.74505805969E-08  0.10566000000E+00  0.10566000000E+00 0.  1.
     999900   -1    0    0    0    0 -0.00000000000E+00 -0.00000000000E+00 -0.74505805969E-08  0.93827000000E+00  0.93827000000E+00 0.  1.
     999902    2    1    2    0    0  0.14707572473E-02  0.55306250680E-02  0.12569455353E-01  0.10301190569E+01  0.10300264702E+01 0.  0.
     999903    2    3    3    0    0  0.48744355316E-02  0.50691642657E-01  0.12449592005E+00  0.14187436315E+00  0.45118710677E-01 0.  0.
         14    1    1    2    0    0 -0.14707572473E-02 -0.55306250680E-02 -0.12569455353E-01  0.13810943067E-01  0.00000000000E+00 0. -1.
     999901    1    3    3    0    0 -0.34036782843E-02 -0.45161017589E-01 -0.11192646470E+00  0.88824469378E+00  0.88000000000E+00 0.  1.
        -11    1    4    4    0    0 -0.10817146565E-01  0.50627733606E-01  0.10270928283E+00  0.11502015463E+00  0.51100000000E-03 0. -1.
         11    1    4    4    0    0  0.15691582096E-01  0.63909050704E-04  0.21786637215E-01  0.26854208519E-01  0.51100000000E-03 0.  1.
</event>
<event>
 8    1  0.2123879E+004  0.1043930E+01  0.7957747E-01            NaN
         13   -1    0    0    0    0  0.00000000000E+00  0.00000000000E+00  0.74505805969E-08  0.10566000000E+00  0.10566000000E+00 0.  1.
     999900   -1    0    0    0    0 -0.00000000000E+00 -0.00000000000E+00 -0.74505805969E-08  0.93827000000E+00  0.93827000000E+00 0.  1.
     999902    2    1    2    0    0  0.79295697791E-03 -0.13339344775E-01 -0.40778150772E-02  0.10299587626E+01  0.10298639993E+01 0.  0.
     999903    2    3    3    0    0 -0.72053748546E-02 -0.49483354949E-01  0.12290454703E+00  0.14007400425E+00  0.44885177318E-01 0.  0.
         14    1    1    2    0    0 -0.79295697791E-03  0.13339344775E-01  0.40778150772E-02  0.13971237440E-01  0.00000000000E+00 0. -1.
     999901    1    3    3    0    0  0.79983318325E-02  0.36144010174E-01 -0.12698236211E+00  0.88988475831E+00  0.88000000000E+00 0.  1.
        -11    1    4    4    0    0  0.52909975579E-02 -0.41841053039E-01  0.48653463500E-01  0.64390131279E-01  0.51100000000E-03 0.  1.
         11    1    4    4    0    0 -0.12496372412E-01 -0.76423019103E-02  0.74251083528E-01  0.75683872972E-01  0.51100000000E-03 0. -1.
</event>
<event>
 8    1  0.2123879E+004  0.1043930E+01  0.7957747E-01            NaN
         13   -1    0    0    0    0  0.00000000000E+00  0.00000000000E+00  0.74505805969E-08  0.10566000000E+00  0.10566000000E+00 0.  1.
     999900   -1    0    0    0    0 -0.00000000000E+00 -0.00000000000E+00 -0.74505805969E-08  0.93827000000E+00  0.93827000000E+00 0.  1.
     999902    2    1    2    0    0 -0.15431081919E-01 -0.10729085679E-02 -0.45081357411E-02  0.10278181190E+01  0.10276918278E+01 0.  0.
     999903    2    3    3    0    0  0.25445419467E-01  0.86353836440E-01 -0.94175478726E-01  0.13801220953E+00  0.45540034536E-01 0.  0.
         14    1    1    2    0    0  0.15431081919E-01  0.10729085679E-02  0.45081357411E-02  0.16111881015E-01  0.00000000000E+00 0. -1.
     999901    1    3    3    0    0 -0.40876501385E-01 -0.87426745008E-01  0.89667342985E-01  0.88980590946E+00  0.88000000000E+00 0. -1.
        -11    1    4    4    0    0  0.25616460258E-01  0.67250257800E-01 -0.44073878468E-01  0.84389383779E-01  0.51100000000E-03 0.  1.
         11    1    4    4    0    0 -0.17104079141E-03  0.19103578639E-01 -0.50101600259E-01  0.53622825749E-01  0.51100000000E-03 0. -1.
</event>
<event>
 8    1  0.2123879E+004  0.1043930E+01  0.7957747E-01            NaN
         13   -1    0    0    0    0  0.00000000000E+00  0.00000000000E+00  0.74505805969E-08  0.10566000000E+00  0.10566000000E+00 0. -1.
     999900   -1    0    0    0    0 -0.00000000000E+00 -0.00000000000E+00 -0.74505805969E-08  0.93827000000E+00  0.93827000000E+00 0.  1.
     999902    2    1    2    0    0  0.12824497130E-01 -0.36898490802E-02  0.34276162605E-02  0.10301520732E+01  0.10300599316E+01 0.  0.
     999903    2    3    3    0    0  0.99258602868E-01  0.59875019323E-02  0.90376227558E-01  0.14160012384E+00  0.44661080831E-01 0.  0.
         14    1    1    2    0    0 -0.12824497130E-01  0.36898490802E-02 -0.34276162605E-02  0.13777926771E-01  0.00000000000E+00 0.  1.
     999901    1    3    3    0    0 -0.86434105738E-01 -0.96773510124E-02 -0.86948611297E-01  0.88855194939E+00  0.88000000000E+00 0.  1.
        -11    1    4    4    0    0  0.28298292386E-01 -0.10258092068E-01  0.49976902055E-01  0.58343582894E-01  0.51100000000E-03 0. -1.
         11    1    4    4    0    0  0.70960310482E-01  0.16245594001E-01  0.40399325503E-01  0.83256540945E-01  0.51100000000E-03 0.  1.
</event>
<event>
 8    1  0.2123879E+004  0.1043930E+01  0.7957747E-01            NaN
         13   -1    0    0    0    0  0.00000000000E+00  0.00000000000E+00  0.74505805969E-08  0.10566000000E+00  0.10566000000E+00 0. -1.
     999900   -1    0    0    0    0 -0.00000000000E+00 -0.00000000000E+00 -0.74505805969E-08  0.93827000000E+00  0.93827000000E+00 0.  1.
     999902    2    1    2    0    0 -0.80834004883E-02 -0.12626657935E-01  0.12155366265E-02  0.10288883451E+01  0.10287783897E+01 0.  0.
     999903    2    3    3    0    0  0.98348039446E-02  0.11904407389E+00  0.50961705189E-01  0.13752258121E+00  0.45245442338E-01 0.  0.
         14    1    1    2    0    0  0.80834004883E-02  0.12626657935E-01 -0.12155366265E-02  0.15041654940E-01  0.00000000000E+00 0.  1.
     999901    1    3    3    0    0 -0.17918204433E-01 -0.13167073182E+00 -0.49746168562E-01  0.89136576384E+00  0.88000000000E+00 0.  1.
        -11    1    4    4    0    0 -0.12379098389E-01  0.32565407527E-01  0.25968305791E-03  0.34843599134E-01  0.51100000000E-03 0. -1.
         11    1    4    4    0    0  0.22213902333E-01  0.86478666358E-01  0.50702022131E-01  0.10267898208E+00  0.51100000000E-03 0.  1.
</event>
<event>
 8    1  0.2123879E+004  0.1043930E+01  0.7957747E-01            NaN
         13   -1    0    0    0    0  0.00000000000E+00  0.00000000000E+00  0.74505805969E-08  0.10566000000E+00  0.10566000000E+00 0. -1.
     999900   -1    0    0    0    0 -0.00000000000E+00 -0.00000000000E+00 -0.74505805969E-08  0.93827000000E+00  0.93827000000E+00 0. -1.
     999902    2    1    2    0    0 -0.59440551085E-02 -0.93315094085E-02 -0.95501131057E-02  0.10293144768E+01  0.10292107066E+01 0.  0.
     999903    2    3    3    0    0  0.11090612993E+00 -0.64557437438E-01 -0.31452832119E-01  0.13960463757E+00  0.45081501722E-01 0.  0.
         14    1    1    2    0    0  0.59440551085E-02  0.93315094085E-02  0.95501131057E-02  0.14615523231E-01  0.00000000000E+00 0.  1.
     999901    1    3    3    0    0 -0.11685018504E+00  0.55225928029E-01  0.21902719013E-01  0.88970983920E+00  0.88000000000E+00 0.  1.
        -11    1    4    4    0    0  0.72176365471E-01 -0.34824776160E-01  0.24202642265E-02  0.80176752036E-01  0.51100000000E-03 0.  1.
         11    1    4    4    0    0  0.38729764461E-01 -0.29732661278E-01 -0.33873096345E-01  0.59427885532E-01  0.51100000000E-03 0. -1.
</event>
<event>
 8    1  0.2123879E+004  0.1043930E+01  0.7957747E-01            NaN
         13   -1    0    0    0    0  0.00000000000E+00  0.00000000000E+00  0.74505805969E-08  0.10566000000E+00  0.10566000000E+00 0.  1.
     999900   -1    0    0    0    0 -0.00000000000E+00 -0.00000000000E+00 -0.74505805969E-08  0.93827000000E+00  0.93827000000E+00 0.  1.
     999902    2    1    2    0    0  0.70745154271E-02  0.11998905623E-01  0.29131782986E-02  0.10296994304E+01  0.10296010916E+01 0.  0.
     999903    2    3    3    0    0 -0.94798583029E-02 -0.99694216388E-01 -0.84007162530E-01  0.13823740287E+00  0.44984127213E-01 0.  0.
         14    1    1    2    0    0 -0.70745154271E-02 -0.11998905623E-01 -0.29131782986E-02  0.14230569647E-01  0.00000000000E+00 0. -1.
     999901    1    3    3    0    0  0.16554373730E-01  0.11169312201E+00  0.86920340829E-01  0.89146202748E+00  0.88000000000E+00 0. -1.
        -11    1    4    4    0    0  0.13101604296E-01 -0.23133805471E-01 -0.37123447154E-01  0.45664389192E-01  0.51100000000E-03 0. -1.
         11    1    4    4    0    0 -0.22581462599E-01 -0.76560410917E-01 -0.46883715376E-01  0.92573013677E-01  0.51100000000E-03 0.  1.
</event>
<event>
 8    1  0.2123879E+004  0.1043930E+01  0.7957747E-01            NaN
         13   -1    0    0    0    0  0.00000000000E+00  0.00000000000E+00  0.74505805969E-08  0.10566000000E+00  0.10566000000E+00 0. -1.
     999900   -1    0    0    0    0 -0.00000000000E+00 -0.00000000000E+00 -0.74505805969E-08  0.93827000000E+00  0.93827000000E+00 0.  1.
     999902    2    1    2    0    0 -0.10841527655E-01 -0.13910995437E-02  0.46311004821E-02  0.10320589861E+01  0.10319907121E+01 0.  0.
     999903    2    3    3    0    0  0.12752885730E-01  0.12532879417E+00  0.46419261705E-01  0.14168778359E+00  0.45285068377E-01 0.  0.
         14    1    1    2    0    0  0.10841527655E-01  0.13910995437E-02 -0.46311004821E-02  0.11871013921E-01  0.00000000000E+00 0.  1.
     999901    1    3    3    0    0 -0.23594413385E-01 -0.12671989372E+00 -0.41788161223E-01  0.89037120249E+00  0.88000000000E+00 0. -1.
        -11    1    4    4    0    0  0.11272913185E-01  0.57938621442E-01 -0.13943833662E-02  0.59043779115E-01  0.51100000000E-03 0.  1.
         11    1    4    4    0    0  0.14799725447E-02  0.67390172730E-01  0.47813645071E-01  0.82644004473E-01  0.51100000000E-03 0. -1.
</event>
<event>
 8    1  0.2123879E+004  0.1043930E+01  0.7957747E-01            NaN
         13   -1    0    0    0    0  0.00000000000E+00  0.00000000000E+00  0.74505805969E-08  0.10566000000E+00  0.10566000000E+00 0.  1.
     999900   -1    0    0    0    0 -0.00000000000E+00 -0.00000000000E+00 -0.74505805969E-08  0.93827000000E+00  0.93827000000E+00 0.  1.
     999902    2    1    2    0    0 -0.11283732351E-01 -0.73949684222E-02  0.18301282197E-02  0.10303153923E+01  0.10302254365E+01 0.  0.
     999903    2    3    3    0    0  0.61137669410E-01 -0.83611213099E-01  0.83180516594E-01  0.14033131318E+00  0.45224214102E-01 0.  0.
         14    1    1    2    0    0  0.11283732351E-01  0.73949684222E-02 -0.18301282197E-02  0.13614607708E-01  0.00000000000E+00 0. -1.
     999901    1    3    3    0    0 -0.72421401761E-01  0.76216244677E-01 -0.81350388374E-01  0.88998407911E+00  0.88000000000E+00 0.  1.
        -11    1    4    4    0    0  0.35673997755E-01 -0.38581244973E-01  0.14814141804E-01  0.54597312186E-01  0.51100000000E-03 0.  1.
         11    1    4    4    0    0  0.25463671655E-01 -0.45029968125E-01  0.68366374790E-01  0.85734000994E-01  0.51100000000E-03 0. -1.
</event>
<event>
 8    1  0.2123879E+004  0.1043930E+01  0.7957747E-01            NaN
         13   -1    0    0    0    0  0.00000000000E+00  0.00000000000E+00  0.74505805969E-08  0.10566000000E+00  0.10566000000E+00 0. -1.
     999900   -1    0    0    0    0 -0.00000000000E+00 -0.00000000000E+00 -0.74505805969E-08  0.93827000000E+00  0.93827000000E+00 0.  1.
     999902    2    1    2    0    0  0.53167947668E-02 -0.74592265340E-02  0.49056201877E-02  0.10335389713E+01  0.10334867352E+01 0.  0.
     999903    2    3    3    0    0 -0.42077759267E-01  0.11994731125E+00  0.45754249690E-01  0.14216515517E+00  0.44267196423E-01 0.  0.
         14    1    1    2    0    0 -0.53167947668E-02  0.74592265340E-02 -0.49056201877E-02  0.10391028655E-01  0.00000000000E+00 0. -1.
     999901    1    3    3    0    0  0.47394554033E-01 -0.12740653779E+00 -0.40848629503E-01  0.89137381617E+00  0.88000000000E+00 0. -1.
        -11    1    4    4    0    0 -0.12616168608E-03  0.28214044704E-01 -0.59113574975E-02  0.28831467250E-01  0.51100000000E-03 0. -1.
         11    1    4    4    0    0 -0.41951597581E-01  0.91733266550E-01  0.51665607188E-01  0.11333368792E+00  0.51100000000E-03 0.  1.
</event>
<event>
 8    1  0.2123879E+004  0.1043930E+01  0.7957747E-01            NaN
         13   -1    0    0    0    0  0.00000000000E+00  0.00000000000E+00  0.74505805969E-08  0.10566000000E+00  0.10566000000E+00 0. -1.
     999900   -1    0    0    0    0 -0.00000000000E+00 -0.00000000000E+00 -0.74505805969E-08  0.93827000000E+00  0.93827000000E+00 0. -1.
     999902    2    1    2    0    0  0.68386005747E-03  0.12938039865E-01  0.48601199864E-02  0.10300923229E+01  0.10299993750E+01 0.  0.
     999903    2    3    3    0    0  0.67831032712E-01  0.60429786238E-01 -0.96992047846E-01  0.14040806835E+00  0.45322844674E-01 0.  0.
         14    1    1    2    0    0 -0.68386005747E-03 -0.12938039865E-01 -0.48601199864E-02  0.13837677060E-01  0.00000000000E+00 0.  1.
     999901    1    3    3    0    0 -0.67147172655E-01 -0.47491746373E-01  0.10185216783E+00  0.88968425459E+00  0.88000000000E+00 0.  1.
        -11    1    4    4    0    0  0.70072839181E-01  0.39489157626E-01 -0.78017032174E-01  0.11205585568E+00  0.51100000000E-03 0.  1.
         11    1    4    4    0    0 -0.22418064685E-02  0.20940628612E-01 -0.18975015672E-01  0.28352212677E-01  0.51100000000E-03 0. -1.
</event>
<event>
 8    1  0.2123879E+004  0.1043930E+01  0.7957747E-01            NaN
         13   -1    0    0    0    0  0.00000000000E+00  0.00000000000E+00  0.74505805969E-08  0.10566000000E+00  0.10566000000E+00 0.  1.
     999900   -1    0    0    0    0 -0.00000000000E+00 -0.00000000000E+00 -0.74505805969E-08  0.93827000000E+00  0.93827000000E+00 0.  1.
     999902    2    1    2    0    0 -0.12432291796E-01 -0.54688505162E-02 -0.15251783754E-02  0.10302626530E+01  0.10301719943E+01 0.  0.
     999903    2    3    3    0    0 -0.13341917649E+00  0.14885422398E-01 -0.12687928781E-01  0.14168135131E+00  0.43478377599E-01 0.  0.
         14    1    1    2    0    0  0.12432291796E-01  0.54688505162E-02  0.15251783754E-02  0.13667347012E-01  0.00000000000E+00 0.  1.
     999901    1    3    3    0    0  0.12098688469E+00 -0.20354272914E-01  0.11162750406E-01  0.88858130168E+00  0.88000000000E+00 0.  1.
        -11    1    4    4    0    0 -0.18407204346E-01  0.77880482439E-02  0.12699726622E-01  0.23685925031E-01  0.51100000000E-03 0.  1.
         11    1    4    4    0    0 -0.11501197214E+00  0.70973741540E-02 -0.25387655403E-01  0.11799542628E+00  0.51100000000E-03 0. -1.
</event>
<event>
 8    1  0.2123879E+004  0.1043930E+01  0.7957747E-01            NaN
         13   -1    0    0    0    0  0.00000000000E+00  0.00000000000E+00  0.74505805969E-08  0.10566000000E+00  0.10566000000E+00 0. -1.
     999900   -1    0    0    0    0 -0.00000000000E+00 -0.00000000000E+00 -0.74505805969E-08  0.93827000000E+00  0.93827000000E+00 0. -1.
     999902    2    1    2    0    0 -0.75809416652E-02  0.63447195708E-02 -0.10035095955E-01  0.10298435067E+01  0.10297471626E+01 0.  0.
     999903    2    3    3    0    0  0.62257469178E-01 -0.30239525363E-01 -0.11358143682E+00  0.14027189332E+00  0.44553786624E-01 0.  0.
         14    1    1    2    0    0  0.75809416652E-02 -0.63447195708E-02  0.10035095955E-01  0.14086493310E-01  0.00000000000E+00 0. -1.
     999901    1    3    3    0    0 -0.69838410843E-01  0.36584244934E-01  0.10354634087E+00  0.88957161337E+00  0.88000000000E+00 0.  1.
        -11    1    4    4    0    0  0.12530527450E-01 -0.76198126099E-02 -0.66659465038E-01  0.68255557009E-01  0.51100000000E-03 0.  1.
         11    1    4    4    0    0  0.49726941728E-01 -0.22619712753E-01 -0.46921971783E-01  0.72016336311E-01  0.51100000000E-03 0. -1.
</event>
<event>
 8    1  0.2123879E+004  0.1043930E+01  0.7957747E-01            NaN
         13   -1    0    0    0    0  0.00000000000E+00  0.00000000000E+00  0.74505805969E-08  0.10566000000E+00  0.10566000000E+00 0. -1.
     999900   -1    0    0    0    0 -0.00000000000E+00 -0.00000000000E+00 -0.74505805969E-08  0.93827000000E+00  0.93827000000E+00 0. -1.
     999902    2    1    2    0    0  0.69753708678E-02  0.13122623930E-01 -0.20547535610E-02  0.10289272979E+01  0.10288179155E+01 0.  0.
     999903    2    3    3    0    0  0.11489096848E-01 -0.49005417609E-01  0.12069600253E+00  0.13822644163E+00  0.44782740414E-01 0.  0.
         14    1    1    2    0    0 -0.69753708678E-02 -0.13122623930E-01  0.20547535610E-02  0.15002702081E-01  0.00000000000E+00 0. -1.
     999901    1    3    3    0    0 -0.45137259803E-02  0.62128041539E-01 -0.12275075609E+00  0.89070085629E+00  0.88000000000E+00 0. -1.
        -11    1    4    4    0    0  0.48812894359E-02 -0.47520721139E-01  0.57902397766E-01  0.75066601843E-01  0.51100000000E-03 0.  1.
         11    1    4    4    0    0  0.66078074122E-02 -0.14846964697E-02  0.62793604761E-01  0.63159839790E-01  0.51100000000E-03 0. -1.
</event>
<event>
 8    1  0.2123879E+004  0.1043930E+01  0.7957747E-01            NaN
         13   -1    0    0    0    0  0.00000000000E+00  0.00000000000E+00  0.74505805969E-08  0.10566000000E+00  0.10566000000E+00 0.  1.
     999900   -1    0    0    0    0 -0.00000000000E+00 -0.00000000000E+00 -0.74505805969E-08  0.93827000000E+00  0.93827000000E+00 0. -1.
     999902    2    1    2    0    0  0.12066482678E-01  0.14085026503E-02 -0.15993069801E-01  0.10238461217E+01  0.10236491190E+01 0.  0.
     999903    2    3    3    0    0 -0.11169852229E+00 -0.55799365540E-01  0.91114400807E-02  0.13299217578E+00  0.44875064350E-01 0.  0.
         14    1    1    2    0    0 -0.12066482678E-01 -0.14085026503E-02  0.15993069801E-01  0.20083878251E-01  0.00000000000E+00 0.  1.
     999901    1    3    3    0    0  0.12376500497E+00  0.57207868191E-01 -0.25104509882E-01  0.89085394597E+00  0.88000000000E+00 0. -1.
        -11    1    4    4    0    0 -0.39628311438E-01 -0.38102191926E-01  0.18903651856E-01  0.58135955067E-01  0.51100000000E-03 0. -1.
         11    1    4    4    0    0 -0.72070210854E-01 -0.17697173614E-01 -0.97922117750E-02  0.74856220710E-01  0.51100000000E-03 0.  1.
</event>
<event>
 8    1  0.2123879E+004  0.1043930E+01  0.7957747E-01            NaN
         13   -1    0    0    0    0  0.00000000000E+00  0.00000000000E+00  0.74505805969E-08  0.10566000000E+00  0.10566000000E+00 0.  1.
     999900   -1    0    0    0    0 -0.00000000000E+00 -0.00000000000E+00 -0.74505805969E-08  0.93827000000E+00  0.93827000000E+00 0.  1.
     999902    2    1    2    0    0 -0.95943014258E-02  0.64437370549E-02  0.60633669743E-02  0.10308786864E+01  0.10307960658E+01 0.  0.
     999903    2    3    3    0    0 -0.63127751678E-02  0.95426125399E-01  0.94718084015E-01  0.14195332808E+00  0.45091411313E-01 0.  0.
         14    1    1    2    0    0  0.95943014258E-02 -0.64437370549E-02 -0.60633669743E-02  0.13051313579E-01  0.00000000000E+00 0. -1.
     999901    1    3    3    0    0 -0.32815262579E-02 -0.88982388344E-01 -0.88654717041E-01  0.88892535834E+00  0.88000000000E+00 0.  1.
        -11    1    4    4    0    0  0.12238558729E-01  0.39605849744E-01  0.17791662322E-01  0.45113302061E-01  0.51100000000E-03 0.  1.
         11    1    4    4    0    0 -0.18551333897E-01  0.55820275655E-01  0.76926421693E-01  0.96840026018E-01  0.51100000000E-03 0. -1.
</event>
<event>
 8    1  0.2123879E+004  0.1043930E+01  0.7957747E-01            NaN
         13   -1    0    0    0    0  0.00000000000E+00  0.00000000000E+00  0.74505805969E-08  0.10566000000E+00  0.10566000000E+00 0. -1.
     999900   -1    0    0    0    0 -0.00000000000E+00 -0.00000000000E+00 -0.74505805969E-08  0.93827000000E+00  0.93827000000E+00 0. -1.
     999902    2    1    2    0    0  0.80362226964E-02  0.47159129432E-02  0.10801523450E-01  0.10296648810E+01  0.10295660608E+01 0.  0.
     999903    2    3    3    0    0 -0.10133460538E+00  0.69503674655E-01 -0.46489866518E-01  0.13868691528E+00  0.44421726029E-01 0.  0.
         14    1    1    2    0    0 -0.80362226964E-02 -0.47159129432E-02 -0.10801523450E-01  0.14265118960E-01  0.00000000000E+00 0.  1.
     999901    1    3    3    0    0  0.10937082808E+00 -0.64787761712E-01  0.57291389968E-01  0.89097796576E+00  0.88000000000E+00 0. -1.
        -11    1    4    4    0    0 -0.29697154578E-01  0.96547385962E-03 -0.13446031788E-02  0.29747642066E-01  0.51100000000E-03 0.  1.
         11    1    4    4    0    0 -0.71637450802E-01  0.68538200795E-01 -0.45145263339E-01  0.10893927322E+00  0.51100000000E-03 0. -1.
</event>
<event>
 8    1  0.2123879E+004  0.1043930E+01  0.7957747E-01            NaN
         13   -1    0    0    0    0  0.00000000000E+00  0.00000000000E+00  0.74505805969E-08  0.10566000000E+00  0.10566000000E+00 0. -1.
     999900   -1    0    0    0    0 -0.00000000000E+00 -0.00000000000E+00 -0.74505805969E-08  0.93827000000E+00  0.93827000000E+00 0.  1.
     999902    2    1    2    0    0  0.35111264072E-02 -0.58179872968E-02  0.86539343264E-02  0.10329269293E+01  0.10328683235E+01 0.  0.
     999903    2    3    3    0    0 -0.77717372007E-01  0.58981241051E-01  0.94293134757E-01  0.14268478160E+00  0.44147196170E-01 0.  0.
         14    1    1    2    0    0 -0.35111264072E-02  0.58179872968E-02 -0.86539343264E-02  0.11003070670E-01  0.00000000000E+00 0.  1.
     999901    1    3    3    0    0  0.81228498414E-01 -0.64799228348E-01 -0.85639200431E-01  0.89024214773E+00  0.88000000000E+00 0.  1.
        -11    1    4    4    0    0 -0.71025538344E-01  0.34246611524E-01  0.83583097054E-01  0.11490801857E+00  0.51100000000E-03 0.  1.
         11    1    4    4    0    0 -0.66918336632E-02  0.24734629527E-01  0.10710037703E-01  0.27776763026E-01  0.51100000000E-03 0. -1.
</event>
<event>
 8    1  0.2123879E+004  0.1043930E+01  0.7957747E-01            NaN
         13   -1    0    0    0    0  0.00000000000E+00  0.00000000000E+00  0.74505805969E-08  0.10566000000E+00  0.10566000000E+00 0.  1.
     999900   -1    0    0    0    0 -0.00000000000E+00 -0.00000000000E+00 -0.74505805969E-08  0.93827000000E+00  0.93827000000E+00 0.  1.
     999902    2    1    2    0    0  0.74281210966E-02  0.53040037652E-02 -0.10137386652E-01  0.10302890306E+01  0.10301987238E+01 0.  0.
     999903    2    3    3    0    0 -0.98316764570E-01 -0.10488381135E-01  0.86226818860E-01  0.13859545070E+00  0.44692754788E-01 0.  0.
         14    1    1    2    0    0 -0.74281210966E-02 -0.53040037652E-02  0.10137386652E-01  0.13640969434E-01  0.00000000000E+00 0.  1.
     999901    1    3    3    0    0  0.10574488567E+00  0.15792384900E-01 -0.96364205512E-01  0.89169357986E+00  0.88000000000E+00 0.  1.
        -11    1    4    4    0    0 -0.44866333348E-01 -0.93576448885E-02  0.12473018851E-01  0.47501481095E-01  0.51100000000E-03 0. -1.
         11    1    4    4    0    0 -0.53450431222E-01 -0.11307362462E-02  0.73753800008E-01  0.91093969608E-01  0.51100000000E-03 0.  1.
</event>
<event>
 8    1  0.2123879E+004  0.1043930E+01  0.7957747E-01            NaN
         13   -1    0    0    0    0  0.00000000000E+00  0.00000000000E+00  0.74505805969E-08  0.10566000000E+00  0.10566000000E+00 0. -1.
     999900   -1    0    0    0    0 -0.00000000000E+00 -0.00000000000E+00 -0.74505805969E-08  0.93827000000E+00  0.93827000000E+00 0.  1.
     999902    2    1    2    0    0 -0.15687468189E-01 -0.55530778945E-03  0.16458313153E-02  0.10281466611E+01  0.10280255070E+01 0.  0.
     999903    2    3    3    0    0  0.30444486585E-01 -0.12818001831E-01  0.12621838200E+00  0.13809225196E+00  0.45246239205E-01 0.  0.
         14    1    1    2    0    0  0.15687468189E-01  0.55530778945E-03 -0.16458313153E-02  0.15783338862E-01  0.00000000000E+00 0. -1.
     999901    1    3    3    0    0 -0.46131954773E-01  0.12262694041E-01 -0.12457255068E+00  0.89005440918E+00  0.88000000000E+00 0.  1.
        -11    1    4    4    0    0  0.31412799919E-01 -0.27073375070E-01  0.87874415189E-01  0.97169468468E-01  0.51100000000E-03 0. -1.
         11    1    4    4    0    0 -0.96831333472E-03  0.14255373240E-01  0.38343966810E-01  0.40922783491E-01  0.51100000000E-03 0.  1.
</event>
<event>
 8    1  0.2123879E+004  0.1043930E+01  0.7957747E-01            NaN
         13   -1    0    0    0    0  0.00000000000E+00  0.00000000000E+00  0.74505805969E-08  0.10566000000E+00  0.10566000000E+00 0. -1.
     999900   -1    0    0    0    0 -0.00000000000E+00 -0.00000000000E+00 -0.74505805969E-08  0.93827000000E+00  0.93827000000E+00 0.  1.
     999902    2    1    2    0    0  0.10908684856E-01  0.58756840115E-02  0.52626328905E-02  0.10304682626E+01  0.10303803288E+01 0.  0.
     999903    2    3    3    0    0  0.10852824997E+00  0.78753785975E-01 -0.78827131619E-02  0.14197875940E+00  0.45992293994E-01 0.  0.
         14    1    1    2    0    0 -0.10908684856E-01 -0.58756840115E-02 -0.52626328905E-02  0.13461737363E-01  0.00000000000E+00 0. -1.
     999901    1    3    3    0    0 -0.97619565115E-01 -0.72878101964E-01  0.13145346052E-01  0.88848950324E+00  0.88000000000E+00 0. -1.
        -11    1    4    4    0    0  0.10066271827E-01  0.23128524432E-01  0.10642549904E-01  0.27382174135E-01  0.51100000000E-03 0.  1.
         11    1    4    4    0    0  0.98461978144E-01  0.55625261543E-01 -0.18525263066E-01  0.11459658527E+00  0.51100000000E-03 0. -1.
</event>
<event>
 8    1  0.2563457E+004  0.1043930E+01  0.7957747E-01            NaN
         13   -1    0    0    0    0  0.00000000000E+00  0.00000000000E+00  0.74505805969E-08  0.10566000000E+00  0.10566000000E+00 0. -1.
     999900   -1    0    0    0    0 -0.00000000000E+00 -0.00000000000E+00 -0.74505805969E-08  0.93827000000E+00  0.93827000000E+00 0.  1.
     999902    2    1    2    0    0 -0.56588169452E-03 -0.12194176386E-01 -0.99290909150E-02  0.10281945303E+01  0.10280741156E+01 0.  0.
     999903    2    3    3    0    0  0.77349689114E-01  0.62464322163E-02 -0.10699865713E+00  0.13924380451E+00  0.43796485555E-01 0.  0.
         14    1    1    2    0    0  0.56588169452E-03  0.12194176386E-01  0.99290909150E-02  0.15735469685E-01  0.00000000000E+00 0. -1.
     999901    1    3    3    0    0 -0.77915570809E-01 -0.18440608602E-01  0.97069566211E-01  0.88895072580E+00  0.88000000000E+00 0. -1.
        -11    1    4    4    0    0  0.30923454816E-01  0.22562830356E-01 -0.33974339304E-01  0.51184550634E-01  0.51100000000E-03 0.  1.
         11    1    4    4    0    0  0.46426234298E-01 -0.16316398140E-01 -0.73024317822E-01  0.88059253879E-01  0.51100000000E-03 0. -1.
</event>
<event>
 8    1  0.2123879E+004  0.1043930E+01  0.7957747E-01            NaN
         13   -1    0    0    0    0  0.00000000000E+00  0.00000000000E+00  0.74505805969E-08  0.10566000000E+00  0.10566000000E+00 0.  1.
     999900   -1    0    0    0    0 -0.00000000000E+00 -0.00000000000E+00 -0.74505805969E-08  0.93827000000E+00  0.93827000000E+00 0.  1.
     999902    2    1    2    0    0 -0.17142818336E-02 -0.14001939121E-01  0.39554383323E-02  0.10292794521E+01  0.10291751804E+01 0.  0.
     999903    2    3    3    0    0 -0.97012495480E-01  0.87243340229E-01 -0.20352254708E-04  0.13835399898E+00  0.46032639775E-01 0.  0.
         14    1    1    2    0    0  0.17142818336E-02  0.14001939121E-01 -0.39554383323E-02  0.14650547900E-01  0.00000000000E+00 0.  1.
     999901    1    3    3    0    0  0.95298213646E-01 -0.10124527935E+00  0.39757905870E-02  0.89092545312E+00  0.88000000000E+00 0.  1.
        -11    1    4    4    0    0 -0.47822530231E-01  0.67434414070E-01 -0.13176038226E-01  0.83715373158E-01  0.51100000000E-03 0.  1.
         11    1    4    4    0    0 -0.49189965249E-01  0.19808926159E-01  0.13155685972E-01  0.54638625817E-01  0.51100000000E-03 0. -1.
</event>
<event>
 8    1  0.2123879E+004  0.1043930E+01  0.7957747E-01            NaN
         13   -1    0    0    0    0  0.00000000000E+00  0.00000000000E+00  0.74505805969E-08  0.10566000000E+00  0.10566000000E+00 0.  1.
     999900   -1    0    0    0    0 -0.00000000000E+00 -0.00000000000E+00 -0.74505805969E-08  0.93827000000E+00  0.93827000000E+00 0. -1.
     999902    2    1    2    0    0  0.16737648056E-01  0.59049723086E-02 -0.23993893090E-02  0.10260198177E+01  0.10258634859E+01 0.  0.
     999903    2    3    3    0    0  0.71671250303E-01 -0.84050507405E-01  0.69186534216E-01  0.13684366338E+00  0.41691195429E-01 0.  0.
         14    1    1    2    0    0 -0.16737648056E-01 -0.59049723086E-02  0.23993893090E-02  0.17910182285E-01  0.00000000000E+00 0.  1.
     999901    1    3    3    0    0 -0.54933602247E-01  0.89955479713E-01 -0.71585923525E-01  0.88917615433E+00  0.88000000000E+00 0.  1.
        -11    1    4    4    0    0  0.66114329978E-01 -0.49077779781E-01  0.43763873589E-01  0.93248436175E-01  0.51100000000E-03 0. -1.
         11    1    4    4    0    0  0.55569203256E-02 -0.34972727624E-01  0.25422660627E-01  0.43595227208E-01  0.51100000000E-03 0.  1.
</event>
<event>
 8    1  0.2123879E+004  0.1043930E+01  0.7957747E-01            NaN
         13   -1    0    0    0    0  0.00000000000E+00  0.00000000000E+00  0.74505805969E-08  0.10566000000E+00  0.10566000000E+00 0. -1.
     999900   -1    0    0    0    0 -0.00000000000E+00 -0.00000000000E+00 -0.74505805969E-08  0.93827000000E+00  0.93827000000E+00 0. -1.
     999902    2    1    2    0    0  0.34865383741E-02 -0.57428583156E-02 -0.12312042029E-01  0.10299042112E+01  0.10298087014E+01 0.  0.
     999903    2    3    3    0    0  0.83665164630E-01  0.98557510230E-01  0.20813182869E-01  0.13950853542E+00  0.48124840564E-01 0.  0.
         14    1    1    2    0    0 -0.34865383741E-02  0.57428583156E-02  0.12312042029E-01  0.14025788762E-01  0.00000000000E+00 0. -1.
     999901    1    3    3    0    0 -0.80178626256E-01 -0.10430036855E+00 -0.33125224897E-01  0.89039567582E+00  0.88000000000E+00 0. -1.
        -11    1    4    4    0    0  0.68411108256E-01  0.56090637316E-01 -0.29322707344E-02  0.88516092661E-01  0.51100000000E-03 0.  1.
         11    1    4    4    0    0  0.15254056374E-01  0.42466872915E-01  0.23745453603E-01  0.50992442762E-01  0.51100000000E-03 0. -1.
</event>
<event>
 7    1  0.2626578E+004  0.1043930E+01  0.7957747E-01            NaN
         13   -1    0    0    0    0  0.00000000000E+00  0.00000000000E+00  0.74505805969E-08  0.10566000000E+00  0.10566000000E+00 0. -1.
     999900   -1    0    0    0    0 -0.00000000000E+00 -0.00000000000E+00 -0.74505805969E-08  0.93827000000E+00  0.93827000000E+00 0.  1.
     999903    2    1    2    0    0  0.11368777486E+00 -0.30626617220E-01  0.48084812944E-03  0.12598704456E+00  0.44828610804E-01 0.  0.
         14    1    1    2    0    0 -0.56972818232E-02  0.17801539847E-01  0.24598789365E-01  0.30894243466E-01  0.00000000000E+00 0. -1.
     999901    1    1    2    0    0 -0.10799049304E+00  0.12825077374E-01 -0.25079637495E-01  0.88704871197E+00  0.88000000000E+00 0. -1.
        -11    1    3    3    0    0  0.31718167430E-01 -0.29729927306E-01 -0.53488950998E-02  0.43803909900E-01  0.51100000000E-03 0.  1.
         11    1    3    3    0    0  0.81969607433E-01 -0.89668991404E-03  0.58297432292E-02  0.82183134660E-01  0.51100000000E-03 0. -1.
</event>
<event>
 8    1  0.2123879E+004  0.1043930E+01  0.7957747E-01            NaN
         13   -1    0    0    0    0  0.00000000000E+00  0.00000000000E+00  0.74505805969E-08  0.10566000000E+00  0.10566000000E+00 0. -1.
     999900   -1    0    0    0    0 -0.00000000000E+00 -0.00000000000E+00 -0.74505805969E-08  0.93827000000E+00  0.93827000000E+00 0. -1.
     999902    2    1    2    0    0 -0.28547826226E-02 -0.91378465830E-02 -0.11784160906E-01  0.10287472311E+01  0.10286351875E+01 0.  0.
     999903    2    3    3    0    0 -0.91294967203E-01 -0.50769394038E-01 -0.82653662503E-01  0.14050326782E+00  0.44690468075E-01 0.  0.
         14    1    1    2    0    0  0.28547826226E-02  0.91378465830E-02  0.11784160906E-01  0.15182768926E-01  0.00000000000E+00 0. -1.
     999901    1    3    3    0    0  0.88440184580E-01  0.41631547455E-01  0.70869501597E-01  0.88824396325E+00  0.88000000000E+00 0.  1.
        -11    1    4    4    0    0 -0.24632799176E-01 -0.37041279114E-01 -0.42242491074E-01  0.61347537252E-01  0.51100000000E-03 0. -1.
         11    1    4    4    0    0 -0.66662168026E-01 -0.13728114923E-01 -0.40411171429E-01  0.79155730573E-01  0.51100000000E-03 0.  1.
</event>
<event>
 8    1  0.2123879E+004  0.1043930E+01  0.7957747E-01            NaN
         13   -1    0    0    0    0  0.00000000000E+00  0.00000000000E+00  0.74505805969E-08  0.10566000000E+00  0.10566000000E+00 0. -1.
     999900   -1    0    0    0    0 -0.00000000000E+00 -0.00000000000E+00 -0.74505805969E-08  0.93827000000E+00  0.93827000000E+00 0. -1.
     999902    2    1    2    0    0  0.19820027683E-02  0.97753897112E-02 -0.10166090960E-01  0.10296879501E+01  0.10295894515E+01 0.  0.
     999903    2    3    3    0    0  0.26401288032E-01 -0.12320328502E+00 -0.38289298546E-01  0.13891831424E+00  0.44228386793E-01 0.  0.
         14    1    1    2    0    0 -0.19820027683E-02 -0.97753897112E-02  0.10166090960E-01  0.14242049866E-01  0.00000000000E+00 0. -1.
     999901    1    3    3    0    0 -0.24419285263E-01  0.13297867473E+00  0.28123207587E-01  0.89076963589E+00  0.88000000000E+00 0.  1.
        -11    1    4    4    0    0  0.29273532641E-01 -0.10693678653E+00 -0.46781760075E-01  0.12033790019E+00  0.51100000000E-03 0.  1.
         11    1    4    4    0    0 -0.28722446094E-02 -0.16266498496E-01  0.84924615286E-02  0.18580414049E-01  0.51100000000E-03 0. -1.
</event>
<event>
 8    1  0.2388901E+004  0.1043930E+01  0.7957747E-01            NaN
         13   -1    0    0    0    0  0.00000000000E+00  0.00000000000E+00  0.74505805969E-08  0.10566000000E+00  0.10566000000E+00 0. -1.
     999900   -1    0    0    0    0 -0.00000000000E+00 -0.00000000000E+00 -0.74505805969E-08  0.93827000000E+00  0.93827000000E+00 0.  1.
     999902    2    1    2    0    0 -0.13568578551E-01  0.25736303119E-02  0.23974323295E-03  0.10301174197E+01  0.10300248109E+01 0.  0.
     999903    2    3    3    0    0 -0.10488303507E-01 -0.71524584212E-01  0.11128292272E+00  0.14004404006E+00  0.44751241445E-01 0.  0.
         14    1    1    2    0    0  0.13568578551E-01 -0.25736303119E-02 -0.23974323295E-03  0.13812580269E-01  0.00000000000E+00 0.  1.
     999901    1    3    3    0    0 -0.30802750438E-02  0.74098214524E-01 -0.11104317948E+00  0.89007337967E+00  0.88000000000E+00 0.  1.
        -11    1    4    4    0    0 -0.28142918088E-01 -0.41541559171E-01  0.67875338034E-01  0.84409997105E-01  0.51100000000E-03 0. -1.
         11    1    4    4    0    0  0.17654614582E-01 -0.29983025041E-01  0.43407584682E-01  0.55634042955E-01  0.51100000000E-03 0.  1.
</event>
<event>
 8    1  0.2123879E+004  0.1043930E+01  0.7957747E-01            NaN
         13   -1    0    0    0    0  0.00000000000E+00  0.00000000000E+00  0.74505805969E-08  0.10566000000E+00  0.10566000000E+00 0. -1.
     999900   -1    0    0    0    0 -0.00000000000E+00 -0.00000000000E+00 -0.74505805969E-08  0.93827000000E+00  0.93827000000E+00 0. -1.
     999902    2    1    2    0    0 -0.37643003981E-02  0.46692585883E-02 -0.13957589770E-01  0.10287383495E+01  0.10286261738E+01 0.  0.
     999903    2    3    3    0    0  0.72515369773E-01  0.10758176662E+00 -0.22778835050E-01  0.13941985380E+00  0.45680465689E-01 0.  0.
         14    1    1    2    0    0  0.37643003981E-02 -0.46692585883E-02  0.13957589770E-01  0.15191650517E-01  0.00000000000E+00 0. -1.
     999901    1    3    3    0    0 -0.76279670171E-01 -0.10291250803E+00  0.88212452800E-02  0.88931849568E+00  0.88000000000E+00 0.  1.
        -11    1    4    4    0    0  0.46702019402E-01  0.36917624951E-01 -0.23968485941E-01  0.64177403247E-01  0.51100000000E-03 0. -1.
         11    1    4    4    0    0  0.25813350371E-01  0.70664141670E-01  0.11896508915E-02  0.75242450555E-01  0.51100000000E-03 0.  1.
</event>
<event>
 8    1  0.2123879E+004  0.1043930E+01  0.7957747E-01            NaN
         13   -1    0    0    0    0  0.00000000000E+00  0.00000000000E+00  0.74505805969E-08  0.10566000000E+00  0.10566000000E+00 0. -1.
     999900   -1    0    0    0    0 -0.00000000000E+00 -0.00000000000E+00 -0.74505805969E-08  0.93827000000E+00  0.93827000000E+00 0.  1.
     999902    2    1    2    0    0  0.23689430505E-02 -0.13991858334E-01  0.94784906600E-03  0.10297073980E+01  0.10296091700E+01 0.  0.
     999903    2    3    3    0    0  0.12292137593E+00 -0.51842078921E-01 -0.70426050421E-02  0.14064644638E+00  0.43983619536E-01 0.  0.
         14    1    1    2    0    0 -0.23689430505E-02  0.13991858334E-01 -0.94784906600E-03  0.14222602036E-01  0.00000000000E+00 0. -1.
     999901    1    3    3    0    0 -0.12055243288E+00  0.37850220587E-01  0.79904541081E-02  0.88906095158E+00  0.88000000000E+00 0.  1.
        -11    1    4    4    0    0  0.57102911842E-01 -0.16559465970E-01 -0.23909202270E-01  0.64084861928E-01  0.51100000000E-03 0.  1.
         11    1    4    4    0    0  0.65818464085E-01 -0.35282612951E-01  0.16866597228E-01  0.76561584455E-01  0.51100000000E-03 0. -1.
</event>
<event>
 8    1  0.2123879E+004  0.1043930E+01  0.7957747E-01            NaN
         13   -1    0    0    0    0  0.00000000000E+00  0.00000000000E+00  0.74505805969E-08  0.10566000000E+00  0.10566000000E+00 0.  1.
     999900   -1    0    0    0    0 -0.00000000000E+00 -0.00000000000E+00 -0.74505805969E-08  0.93827000000E+00  0.93827000000E+00 0. -1.
     999902    2    1    2    0    0  0.25322349445E-02  0.15297430992E-01  0.30635264595E-02  0.10281246590E+01  0.10280031642E+01 0.  0.
     999903    2    3    3    0    0 -0.11985956493E+00  0.40644076150E-01  0.36134650886E-01  0.13867769357E+00  0.43675318740E-01 0.  0.
         14    1    1    2    0    0 -0.25322349445E-02 -0.15297430992E-01 -0.30635264595E-02  0.15805340969E-01  0.00000000000E+00 0. -1.
     999901    1    3    3    0    0  0.12239179988E+00 -0.25346645158E-01 -0.33071124427E-01  0.88944696546E+00  0.88000000000E+00 0. -1.
        -11    1    4    4    0    0 -0.90587273589E-01  0.48163391406E-01  0.20416136909E-01  0.10460805980E+00  0.51100000000E-03 0.  1.
         11    1    4    4    0    0 -0.29272291344E-01 -0.75193152565E-02  0.15718513977E-01  0.34069633769E-01  0.51100000000E-03 0. -1.
</event>
<event>
 8    1  0.2123879E+004  0.1043930E+01  0.7957747E-01            NaN
         13   -1    0    0    0    0  0.00000000000E+00  0.00000000000E+00  0.74505805969E-08  0.10566000000E+00  0.10566000000E+00 0. -1.
     999900   -1    0    0    0    0 -0.00000000000E+00 -0.00000000000E+00 -0.74505805969E-08  0.93827000000E+00  0.93827000000E+00 0.  1.
     999902    2    1    2    0    0 -0.13517050630E-01  0.85777675412E-02 -0.71503881157E-03  0.10279050184E+01  0.10277800966E+01 0.  0.
     999903    2    3    3    0    0 -0.50618349303E-01  0.23833965336E-01  0.11875542529E+00  0.13892670051E+00  0.45469790957E-01 0.  0.
         14    1    1    2    0    0  0.13517050630E-01 -0.85777675412E-02  0.71503881157E-03  0.16024981567E-01  0.00000000000E+00 0. -1.
     999901    1    3    3    0    0  0.37101298673E-01 -0.15256197795E-01 -0.11947046410E+00  0.88897831792E+00  0.88000000000E+00 0.  1.
        -11    1    4    4    0    0 -0.28152551331E-01 -0.36144998191E-02  0.22128457193E-01  0.35993895234E-01  0.51100000000E-03 0.  1.
         11    1    4    4    0    0 -0.22465797973E-01  0.27448465155E-01  0.96626968099E-01  0.10293280528E+00  0.51100000000E-03 0. -1.
</event>
<event>
 8    1  0.2123879E+004  0.1043930E+01  0.7957747E-01            NaN
         13   -1    0    0    0    0  0.00000000000E+00  0.00000000000E+00  0.74505805969E-08  0.10566000000E+00  0.10566000000E+00 0.  1.
     999900   -1    0    0    0    0 -0.00000000000E+00 -0.00000000000E+00 -0.74505805969E-08  0.93827000000E+00  0.93827000000E+00 0.  1.
     999902    2    1    2    0    0 -0.13071099350E-01  0.27838785678E-03 -0.21414831733E-02  0.10306817138E+01  0.10305965641E+01 0.  0.
     999903    2    3    3    0    0  0.41631757848E-01  0.31245132599E-01  0.12167458935E+00  0.13979352679E+00  0.45034018989E-01 0.  0.
         14    1    1    2    0    0  0.13071099350E-01 -0.27838785678E-03  0.21414831733E-02  0.13248286236E-01  0.00000000000E+00 0.  1.
     999901    1    3    3    0    0 -0.54702857198E-01 -0.30966744742E-01 -0.12381607253E+00  0.89088818697E+00  0.88000000000E+00 0.  1.
        -11    1    4    4    0    0  0.36708661486E-01  0.41277731917E-02  0.44458726016E-01  0.57804876780E-01  0.51100000000E-03 0. -1.
         11    1    4    4    0    0  0.49230963623E-02  0.27117359407E-01  0.77215863338E-01  0.81988650014E-01  0.51100000000E-03 0.  1.
</event>
<event>
 8    1  0.2123879E+004  0.1043930E+01  0.7957747E-01            NaN
         13   -1    0    0    0    0  0.00000000000E+00  0.00000000000E+00  0.74505805969E-08  0.10566000000E+00  0.10566000000E+00 0. -1.
     999900   -1    0    0    0    0 -0.00000000000E+00 -0.00000000000E+00 -0.74505805969E-08  0.93827000000E+00  0.93827000000E+00 0. -1.
     999902    2    1    2    0    0 -0.16117053044E-02  0.13879246023E-01 -0.26461155185E-02  0.10297091353E+01  0.10296109316E+01 0.  0.
     999903    2    3    3    0    0 -0.10141388257E+00 -0.27190093214E-01 -0.77424494630E-01  0.13996817799E+00  0.50719441385E-01 0.  0.
         14    1    1    2    0    0  0.16117053044E-02 -0.13879246023E-01  0.26461155185E-02  0.14220864653E-01  0.00000000000E+00 0. -1.
     999901    1    3    3    0    0  0.99802177267E-01  0.41069339237E-01  0.74778379112E-01  0.88974095736E+00  0.88000000000E+00 0.  1.
        -11    1    4    4    0    0 -0.85603199156E-02 -0.12668342873E-01  0.37847940377E-02  0.15759180661E-01  0.51100000000E-03 0. -1.
         11    1    4    4    0    0 -0.92853562656E-01 -0.14521750341E-01 -0.81209288668E-01  0.12420899733E+00  0.51100000000E-03 0.  1.
</event>
<event>
 8    1  0.2123879E+004  0.1043930E+01  0.7957747E-01            NaN
         13   -1    0    0    0    0  0.00000000000E+00  0.00000000000E+00  0.74505805969E-08  0.10566000000E+00  0.10566000000E+00 0. -1.
     999900   -1    0    0    0    0 -0.00000000000E+00 -0.00000000000E+00 -0.74505805969E-08  0.93827000000E+00  0.93827000000E+00 0.  1.
     999902    2    1    2    0    0 -0.38645709407E-02  0.11994843688E-01 -0.74717924617E-02  0.10292794414E+01  0.10291751696E+01 0.  0.
     999903    2    3    3    0    0  0.61551461313E-01  0.58157904947E-01 -0.10269468138E+00  0.14052881045E+00  0.45069110094E-01 0.  0.
         14    1    1    2    0    0  0.38645709407E-02 -0.11994843688E-01  0.74717924617E-02  0.14650558564E-01  0.00000000000E+00 0. -1.
     999901    1    3    3    0    0 -0.65416032253E-01 -0.46163061260E-01  0.95222888923E-01  0.88875063098E+00  0.88000000000E+00 0. -1.
        -11    1    4    4    0    0  0.16435318613E-01  0.13840662599E-01 -0.19538732976E-02  0.21581528698E-01  0.51100000000E-03 0.  1.
         11    1    4    4    0    0  0.45116142700E-01  0.44317242348E-01 -0.10074080809E+00  0.11894728175E+00  0.51100000000E-03 0. -1.
</event>
<event>
 8    1  0.2123879E+004  0.1043930E+01  0.7957747E-01            NaN
         13   -1    0    0    0    0  0.00000000000E+00  0.00000000000E+00  0.74505805969E-08  0.10566000000E+00  0.10566000000E+00 0.  1.
     999900   -1    0    0    0    0 -0.00000000000E+00 -0.00000000000E+00 -0.74505805969E-08  0.93827000000E+00  0.93827000000E+00 0.  1.
     999902    2    1    2    0    0 -0.79660677226E-02 -0.18826693767E-02 -0.11232708709E-01  0.10300312078E+01  0.10299374314E+01 0.  0.
     999903    2    3    3    0    0  0.10544585920E+00 -0.38174158171E-01  0.67327771987E-01  0.13854307753E+00  0.45662455875E-01 0.  0.
         14    1    1    2    0    0  0.79660677226E-02  0.18826693767E-02  0.11232708709E-01  0.13898792173E-01  0.00000000000E+00 0. -1.
     999901    1    3    3    0    0 -0.11341192692E+00  0.36291488794E-01 -0.78560480696E-01  0.89148813029E+00  0.88000000000E+00 0.  1.
        -11    1    4    4    0    0  0.65809502162E-01 -0.66279937903E-02  0.55918721582E-01  0.86614002452E-01  0.51100000000E-03 0.  1.
         11    1    4    4    0    0  0.39636357040E-01 -0.31546164381E-01  0.11409050405E-01  0.51929075080E-01  0.51100000000E-03 0. -1.
</event>
<event>
 8    1  0.2123879E+004  0.1043930E+01  0.7957747E-01            NaN
         13   -1    0    0    0    0  0.00000000000E+00  0.00000000000E+00  0.74505805969E-08  0.10566000000E+00  0.10566000000E+00 0. -1.
     999900   -1    0    0    0    0 -0.00000000000E+00 -0.00000000000E+00 -0.74505805969E-08  0.93827000000E+00  0.93827000000E+00 0. -1.
     999902    2    1    2    0    0  0.11915807458E-01 -0.21338816320E-02  0.67992038868E-02  0.10300458691E+01  0.10299522918E+01 0.  0.
     999903    2    3    3    0    0 -0.99465417015E-01  0.53113887393E-01  0.68308704848E-01  0.13918027210E+00  0.44616306090E-01 0.  0.
         14    1    1    2    0    0 -0.11915807458E-01  0.21338816320E-02 -0.67992038868E-02  0.13884130930E-01  0.00000000000E+00 0.  1.
     999901    1    3    3    0    0  0.11138122447E+00 -0.55247769025E-01 -0.61509500962E-01  0.89086559697E+00  0.88000000000E+00 0.  1.
        -11    1    4    4    0    0 -0.45856005401E-01  0.42358609289E-01  0.18235782800E-01  0.65037142523E-01  0.51100000000E-03 0. -1.
         11    1    4    4    0    0 -0.53609411614E-01  0.10755278104E-01  0.50072922049E-01  0.74143129582E-01  0.51100000000E-03 0.  1.
</event>
<event>
 8    1  0.2123879E+004  0.1043930E+01  0.7957747E-01            NaN
         13   -1    0    0    0    0  0.00000000000E+00  0.00000000000E+00  0.74505805969E-08  0.10566000000E+00  0.10566000000E+00 0. -1.
     999900   -1    0    0    0    0 -0.00000000000E+00 -0.00000000000E+00 -0.74505805969E-08  0.93827000000E+00  0.93827000000E+00 0. -1.
     999902    2    1    2    0    0  0.75150609707E-02  0.91379794246E-02 -0.66121091340E-02  0.10303764471E+01  0.10302873016E+01 0.  0.
     999903    2    3    3    0    0 -0.99608609607E-01 -0.82271538115E-01  0.18179650908E-01  0.13883519058E+00  0.47478725170E-01 0.  0.
         14    1    1    2    0    0 -0.75150609707E-02 -0.91379794246E-02  0.66121091340E-02  0.13553552913E-01  0.00000000000E+00 0.  1.
     999901    1    3    3    0    0  0.10712367058E+00  0.91409517539E-01 -0.24791760042E-01  0.89154125651E+00  0.88000000000E+00 0. -1.
        -11    1    4    4    0    0 -0.66790495880E-01 -0.27829260025E-01  0.20551571560E-01  0.75220118771E-01  0.51100000000E-03 0. -1.
         11    1    4    4    0    0 -0.32818113727E-01 -0.54442278090E-01 -0.23719206524E-02  0.63615071805E-01  0.51100000000E-03 0.  1.
</event>
<event>
 8    1  0.2123879E+004  0.1043930E+01  0.7957747E-01            NaN
         13   -1    0    0    0    0  0.00000000000E+00  0.00000000000E+00  0.74505805969E-08  0.10566000000E+00  0.10566000000E+00 0. -1.
     999900   -1    0    0    0    0 -0.00000000000E+00 -0.00000000000E+00 -0.74505805969E-08  0.93827000000E+00  0.93827000000E+00 0.  1.
     999902    2    1    2    0    0 -0.51961999915E-02  0.66998949533E-02 -0.10610549082E-01  0.10303479222E+01  0.10302583986E+01 0.  0.
     999903    2    3    3    0    0 -0.79169052033E-01 -0.10373603156E+00  0.24143238046E-01  0.13968754781E+00  0.43598303041E-01 0.  0.
         14    1    1    2    0    0  0.51961999915E-02 -0.66998949533E-02  0.10610549082E-01  0.13582077844E-01  0.00000000000E+00 0. -1.
     999901    1    3    3    0    0  0.73972852042E-01  0.11043592651E+00 -0.34753787129E-01  0.89066037434E+00  0.88000000000E+00 0.  1.
        -11    1    4    4    0    0 -0.32398734143E-01 -0.18769646821E-01 -0.64272633797E-02  0.37994058106E-01  0.51100000000E-03 0. -1.
         11    1    4    4    0    0 -0.46770317891E-01 -0.84966384734E-01  0.30570501426E-01  0.10169348971E+00  0.51100000000E-03 0.  1.
</event>
<event>
 8    1  0.2123879E+004  0.1043930E+01  0.7957747E-01            NaN
         13   -1    0    0    0    0  0.00000000000E+00  0.00000000000E+00  0.74505805969E-08  0.10566000000E+00  0.10566000000E+00 0.  1.
     999900   -1    0    0    0    0 -0.00000000000E+00 -0.00000000000E+00 -0.74505805969E-08  0.93827000000E+00  0.93827000000E+00 0. -1.
     999902    2    1    2    0    0  0.19970988329E-01 -0.38778892944E-02 -0.64214989700E-02  0.10225965978E+01  0.10223740450E+01 0.  0.
     999903    2    3    3    0    0  0.99060346806E-01 -0.50830665122E-01 -0.63469899073E-01  0.13596577850E+00  0.45404361126E-01 0.  0.
         14    1    1    2    0    0 -0.19970988329E-01  0.38778892944E-02  0.64214989700E-02  0.21333402195E-01  0.00000000000E+00 0.  1.
     999901    1    3    3    0    0 -0.79089358478E-01  0.46952775827E-01  0.57048400103E-01  0.88663081930E+00  0.88000000000E+00 0. -1.
        -11    1    4    4    0    0  0.35002965985E-01 -0.26358831288E-01 -0.49267441334E-01  0.65935859070E-01  0.51100000000E-03 0.  1.
         11    1    4    4    0    0  0.64057380822E-01 -0.24471833833E-01 -0.14202457738E-01  0.70029919433E-01  0.51100000000E-03 0. -1.
</event>
<event>
 7    1  0.2405604E+004  0.1043930E+01  0.7957747E-01            NaN
         13   -1    0    0    0    0  0.00000000000E+00  0.00000000000E+00  0.74505805969E-08  0.10566000000E+00  0.10566000000E+00 0. -1.
     999900   -1    0    0    0    0 -0.00000000000E+00 -0.00000000000E+00 -0.74505805969E-08  0.93827000000E+00  0.93827000000E+00 0.  1.
     999903    2    1    2    0    0 -0.62324250926E-01  0.91471412011E-02  0.75375119219E-01  0.10885985305E+00  0.46915632390E-01 0.  0.
         14    1    1    2    0    0 -0.20363539003E-01 -0.16102813550E-03 -0.46401513182E-01  0.50673465210E-01  0.00000000000E+00 0.  1.
     999901    1    1    2    0    0  0.82687789928E-01 -0.89861130656E-02 -0.28973606037E-01  0.88439668174E+00  0.88000000000E+00 0.  1.
        -11    1    3    3    0    0 -0.39710035225E-01  0.28391564864E-01  0.48226040025E-01  0.68622007480E-01  0.51100000000E-03 0. -1.
         11    1    3    3    0    0 -0.22614215701E-01 -0.19244423663E-01  0.27149079194E-01  0.40237845568E-01  0.51100000000E-03 0.  1.
</event>
<event>
 8    1  0.2123879E+004  0.1043930E+01  0.7957747E-01            NaN
         13   -1    0    0    0    0  0.00000000000E+00  0.00000000000E+00  0.74505805969E-08  0.10566000000E+00  0.10566000000E+00 0. -1.
     999900   -1    0    0    0    0 -0.00000000000E+00 -0.00000000000E+00 -0.74505805969E-08  0.93827000000E+00  0.93827000000E+00 0. -1.
     999902    2    1    2    0    0  0.10688795909E-01  0.11495819161E-01 -0.44450775668E-02  0.10276154994E+01  0.10274859861E+01 0.  0.
     999903    2    3    3    0    0 -0.11785669457E+00  0.39010808576E-01  0.35810484108E-01  0.13694073942E+00  0.45368840651E-01 0.  0.
         14    1    1    2    0    0 -0.10688795909E-01 -0.11495819161E-01  0.44450775668E-02  0.16314500628E-01  0.00000000000E+00 0.  1.
     999901    1    3    3    0    0  0.12854549047E+00 -0.27514989415E-01 -0.40255561675E-01  0.89067475995E+00  0.88000000000E+00 0.  1.
        -11    1    4    4    0    0 -0.68349578976E-01  0.31516783849E-01 -0.19162542455E-03  0.75267990883E-01  0.51100000000E-03 0. -1.
         11    1    4    4    0    0 -0.49507115590E-01  0.74940247273E-02  0.36002109533E-01  0.61672748540E-01  0.51100000000E-03 0.  1.
</event>
<event>
 8    1  0.2123879E+004  0.1043930E+01  0.7957747E-01            NaN
         13   -1    0    0    0    0  0.00000000000E+00  0.00000000000E+00  0.74505805969E-08  0.10566000000E+00  0.10566000000E+00 0. -1.
     999900   -1    0    0    0    0 -0.00000000000E+00 -0.00000000000E+00 -0.74505805969E-08  0.93827000000E+00  0.93827000000E+00 0.  1.
     999902    2    1    2    0    0 -0.10904675046E-01  0.59531619631E-02  0.65226176479E-02  0.10298980145E+01  0.10298024197E+01 0.  0.
     999903    2    3    3    0    0 -0.67262847669E-01  0.10857844542E+00 -0.39140213196E-01  0.14096984727E+00  0.45021906495E-01 0.  0.
         14    1    1    2    0    0  0.10904675046E-01 -0.59531619631E-02 -0.65226176479E-02  0.14031985469E-01  0.00000000000E+00 0.  1.
     999901    1    3    3    0    0  0.56358172623E-01 -0.10262528346E+00  0.45662830844E-01  0.88892816726E+00  0.88000000000E+00 0. -1.
        -11    1    4    4    0    0 -0.46430410291E-01  0.34243796313E-01 -0.10584987577E-01  0.58657682094E-01  0.51100000000E-03 0. -1.
         11    1    4    4    0    0 -0.20832437378E-01  0.74334649108E-01 -0.28555225619E-01  0.82312165178E-01  0.51100000000E-03 0.  1.
</event>
<event>
 8    1  0.2123879E+004  0.1043930E+01  0.7957747E-01            NaN
         13   -1    0    0    0    0  0.00000000000E+00  0.00000000000E+00  0.74505805969E-08  0.10566000000E+00  0.10566000000E+00 0.  1.
     999900   -1    0    0    0    0 -0.00000000000E+00 -0.00000000000E+00 -0.74505805969E-08  0.93827000000E+00  0.93827000000E+00 0. -1.
     999902    2    1    2    0    0 -0.11997094625E-01 -0.53338902949E-02 -0.35161023018E-02  0.10303379567E+01  0.10302483009E+01 0.  0.
     999903    2    3    3    0    0  0.13245310717E+00 -0.15233461437E-01  0.94028679711E-02  0.13841264477E+00  0.35968908217E-01 0.  0.
         14    1    1    2    0    0  0.11997094625E-01  0.53338902949E-02  0.35161023018E-02  0.13592043279E-01  0.00000000000E+00 0. -1.
     999901    1    3    3    0    0 -0.14445020180E+00  0.98995711424E-02 -0.12918970273E-01  0.89192531195E+00  0.88000000000E+00 0. -1.
        -11    1    4    4    0    0  0.60852133736E-01  0.10959326519E-01  0.31480829150E-02  0.61913331076E-01  0.51100000000E-03 0.  1.
         11    1    4    4    0    0  0.71600973438E-01 -0.26192787957E-01  0.62547850561E-02  0.76499313692E-01  0.51100000000E-03 0. -1.
</event>
<event>
 8    1  0.2123879E+004  0.1043930E+01  0.7957747E-01            NaN
         13   -1    0    0    0    0  0.00000000000E+00  0.00000000000E+00  0.74505805969E-08  0.10566000000E+00  0.10566000000E+00 0.  1.
     999900   -1    0    0    0    0 -0.00000000000E+00 -0.00000000000E+00 -0.74505805969E-08  0.93827000000E+00  0.93827000000E+00 0. -1.
     999902    2    1    2    0    0 -0.86525976845E-02  0.52162325394E-02 -0.76847100685E-02  0.10312362497E+01  0.10311581214E+01 0.  0.
     999903    2    3    3    0    0 -0.44849504102E-01 -0.27848320058E-01 -0.12397554810E+00  0.14223285278E+00  0.45532855559E-01 0.  0.
         14    1    1    2    0    0  0.86525976845E-02 -0.52162325394E-02  0.76847100685E-02  0.12693750330E-01  0.00000000000E+00 0.  1.
     999901    1    3    3    0    0  0.36196906418E-01  0.33064552598E-01  0.11629083803E+00  0.88900339689E+00  0.88000000000E+00 0.  1.
        -11    1    4    4    0    0 -0.95055637196E-02  0.59241514259E-02 -0.63432466574E-01  0.64415760869E-01  0.51100000000E-03 0.  1.
         11    1    4    4    0    0 -0.35343940382E-01 -0.33772471484E-01 -0.60543081525E-01  0.77817091911E-01  0.51100000000E-03 0. -1.
</event>
<event>
 7    1  0.2123879E+004  0.1043930E+01  0.7957747E-01            NaN
         13   -1    0    0    0    0  0.00000000000E+00  0.00000000000E+00  0.74505805969E-08  0.10566000000E+00  0.10566000000E+00 0.  1.
     999900   -1    0    0    0    0 -0.00000000000E+00 -0.00000000000E+00 -0.74505805969E-08  0.93827000000E+00  0.93827000000E+00 0.  1.
     999903    2    1    2    0    0 -0.53535737603E-01  0.10273918955E+00  0.21455145811E-01  0.12599455483E+00  0.44641777468E-01 0.  0.
         14    1    1    2    0    0 -0.20678118215E-01 -0.14518933534E-01 -0.16913039821E-01  0.30404521372E-01  0.00000000000E+00 0. -1.
     999901    1    1    2    0    0  0.74213855819E-01 -0.88220256016E-01 -0.45421059896E-02  0.88753092380E+00  0.88000000000E+00 0.  1.
        -11    1    3    3    0    0 -0.31735129346E-01  0.31228245972E-01 -0.87211937968E-02  0.45372261607E-01  0.51100000000E-03 0.  1.
         11    1    3    3    0    0 -0.21800608258E-01  0.71510943578E-01  0.30176339607E-01  0.80622293225E-01  0.51100000000E-03 0. -1.
</event>
<event>
 8    1  0.2123879E+004  0.1043930E+01  0.7957747E-01            NaN
         13   -1    0    0    0    0  0.00000000000E+00  0.00000000000E+00  0.74505805969E-08  0.10566000000E+00  0.10566000000E+00 0. -1.
     999900   -1    0    0    0    0 -0.00000000000E+00 -0.00000000000E+00 -0.74505805969E-08  0.93827000000E+00  0.93827000000E+00 0.  1.
     999902    2    1    2    0    0  0.23363296981E-02 -0.19042139832E-02 -0.13241341957E-01  0.10303499557E+01  0.10302604591E+01 0.  0.
     999903    2    3    3    0    0 -0.62163842827E-01 -0.38446641848E-01 -0.11237476103E+00  0.14168632072E+00  0.45874164179E-01 0.  0.
         14    1    1    2    0    0 -0.23363296981E-02  0.19042139832E-02  0.13241341957E-01  0.13580044337E-01  0.00000000000E+00 0. -1.
     999901    1    3    3    0    0  0.64500172526E-01  0.36542427865E-01  0.99133419071E-01  0.88866363494E+00  0.88000000000E+00 0. -1.
        -11    1    4    4    0    0 -0.46039028984E-01 -0.15053220972E-01 -0.36462991907E-01  0.60630046604E-01  0.51100000000E-03 0.  1.
         11    1    4    4    0    0 -0.16124813843E-01 -0.23393420877E-01 -0.75911769121E-01  0.81056274118E-01  0.51100000000E-03 0. -1.
</event>
<event>
 8    1  0.2123879E+004  0.1043930E+01  0.7957747E-01            NaN
         13   -1    0    0    0    0  0.00000000000E+00  0.00000000000E+00  0.74505805969E-08  0.10566000000E+00  0.10566000000E+00 0. -1.
     999900   -1    0    0    0    0 -0.00000000000E+00 -0.00000000000E+00 -0.74505805969E-08  0.93827000000E+00  0.93827000000E+00 0. -1.
     999902    2    1    2    0    0 -0.36459382977E-02  0.16522400270E-01  0.11431135326E-02  0.10269715424E+01  0.10268315147E+01 0.  0.
     999903    2    3    3    0    0 -0.10345744327E+00  0.80420621283E-01 -0.10128108507E-01  0.13895557426E+00  0.45112682687E-01 0.  0.
         14    1    1    2    0    0  0.36459382977E-02 -0.16522400270E-01 -0.11431135326E-02  0.16958457633E-01  0.00000000000E+00 0. -1.
     999901    1    3    3    0    0  0.99811504973E-01 -0.63898221013E-01  0.11271222039E-01  0.88801596811E+00  0.88000000000E+00 0. -1.
        -11    1    4    4    0    0 -0.77058458215E-02  0.22837719449E-01 -0.12584081101E-01  0.27194883850E-01  0.51100000000E-03 0. -1.
         11    1    4    4    0    0 -0.95751597449E-01  0.57582901834E-01  0.24559725938E-02  0.11176069041E+00  0.51100000000E-03 0.  1.
</event>
<event>
 8    1  0.2123879E+004  0.1043930E+01  0.7957747E-01            NaN
         13   -1    0    0    0    0  0.00000000000E+00  0.00000000000E+00  0.74505805969E-08  0.10566000000E+00  0.10566000000E+00 0.  1.
     999900   -1    0    0    0    0 -0.00000000000E+00 -0.00000000000E+00 -0.74505805969E-08  0.93827000000E+00  0.93827000000E+00 0. -1.
     999902    2    1    2    0    0 -0.11691746282E-02  0.13449079362E-01 -0.55317665787E-02  0.10293407866E+01  0.10292373924E+01 0.  0.
     999903    2    3    3    0    0  0.24991140918E-01  0.72686915194E-01 -0.10791887494E+00  0.14104094804E+00  0.48354117619E-01 0.  0.
         14    1    1    2    0    0  0.11691746282E-02 -0.13449079362E-01  0.55317665787E-02  0.14589213360E-01  0.00000000000E+00 0.  1.
     999901    1    3    3    0    0 -0.26160315546E-01 -0.59237835832E-01  0.10238710836E+00  0.88829983860E+00  0.88000000000E+00 0.  1.
        -11    1    4    4    0    0  0.10614589916E-01 -0.36270258025E-02 -0.54836605507E-02  0.12496259012E-01  0.51100000000E-03 0.  1.
         11    1    4    4    0    0  0.14376551002E-01  0.76313940997E-01 -0.10243521439E+00  0.12854468902E+00  0.51100000000E-03 0. -1.
</event>
<event>
 8    1  0.2123879E+004  0.1043930E+01  0.7957747E-01            NaN
         13   -1    0    0    0    0  0.00000000000E+00  0.00000000000E+00  0.74505805969E-08  0.10566000000E+00  0.10566000000E+00 0.  1.
     999900   -1    0    0    0    0 -0.00000000000E+00 -0.00000000000E+00 -0.74505805969E-08  0.93827000000E+00  0.93827000000E+00 0.  1.
     999902    2    1    2    0    0  0.45109180415E-02 -0.97797477835E-02 -0.89957726340E-02  0.10298973319E+01  0.10298017278E+01 0.  0.
     999903    2    3    3    0    0 -0.58114715680E-01 -0.85793969346E-02  0.11711212887E+00  0.13870340596E+00  0.45524255807E-01 0.  0.
         14    1    1    2    0    0 -0.45109180415E-02  0.97797477835E-02  0.89957726340E-02  0.14032668084E-01  0.00000000000E+00 0.  1.
     999901    1    3    3    0    0  0.62625633722E-01 -0.12003508489E-02 -0.12610790150E+00  0.89119392596E+00  0.88000000000E+00 0.  1.
        -11    1    4    4    0    0 -0.52575671724E-01  0.10011826603E-01  0.96798590837E-01  0.11061042554E+00  0.51100000000E-03 0.  1.
         11    1    4    4    0    0 -0.55390439564E-02 -0.18591223537E-01  0.20313538029E-01  0.28092980419E-01  0.51100000000E-03 0. -1.
</event>
<event>
 8    1  0.2123879E+004  0.1043930E+01  0.7957747E-01            NaN
         13   -1    0    0    0    0  0.00000000000E+00  0.00000000000E+00  0.74505805969E-08  0.10566000000E+00  0.10566000000E+00 0. -1.
     999900   -1    0    0    0    0 -0.00000000000E+00 -0.00000000000E+00 -0.74505805969E-08  0.93827000000E+00  0.93827000000E+00 0.  1.
     999902    2    1    2    0    0  0.94123597163E-02 -0.35661620819E-02  0.73180822938E-02  0.10314855492E+01  0.10314104779E+01 0.  0.
     999903    2    3    3    0    0 -0.57873878418E-01 -0.81424525630E-01 -0.87975985601E-01  0.14037931423E+00  0.44578454925E-01 0.  0.
         14    1    1    2    0    0 -0.94123597163E-02  0.35661620819E-02 -0.73180822938E-02  0.12444450807E-01  0.00000000000E+00 0.  1.
     999901    1    3    3    0    0  0.67286238135E-01  0.77858363548E-01  0.95294067895E-01  0.89110623496E+00  0.88000000000E+00 0. -1.
        -11    1    4    4    0    0 -0.36835461711E-01 -0.63853118072E-01 -0.36962436807E-01  0.82465476308E-01  0.51100000000E-03 0. -1.
         11    1    4    4    0    0 -0.21038416707E-01 -0.17571407558E-01 -0.51013548794E-01  0.57913837921E-01  0.51100000000E-03 0.  1.
</event>
<event>
 8    1  0.2123879E+004  0.1043930E+01  0.7957747E-01            NaN
         13   -1    0    0    0    0  0.00000000000E+00  0.00000000000E+00  0.74505805969E-08  0.10566000000E+00  0.10566000000E+00 0. -1.
     999900   -1    0    0    0    0 -0.00000000000E+00 -0.00000000000E+00 -0.74505805969E-08  0.93827000000E+00  0.93827000000E+00 0.  1.
     999902    2    1    2    0    0 -0.67224587342E-02 -0.11117373316E-01  0.38594935827E-02  0.10303770250E+01  0.10302878872E+01 0.  0.
     999903    2    3    3    0    0  0.12707564988E-01  0.12511109317E+00  0.36953887385E-01  0.13906845900E+00  0.46477722138E-01 0.  0.
         14    1    1    2    0    0  0.67224587342E-02  0.11117373316E-01 -0.38594935827E-02  0.13552975009E-01  0.00000000000E+00 0.  1.
     999901    1    3    3    0    0 -0.19430023722E-01 -0.13622846648E+00 -0.33094393802E-01  0.89130856599E+00  0.88000000000E+00 0. -1.
        -11    1    4    4    0    0  0.82243741185E-02  0.45637778635E-01  0.37223377016E-01  0.59466697283E-01  0.51100000000E-03 0. -1.
         11    1    4    4    0    0  0.44831908694E-02  0.79473314533E-01 -0.26948963106E-03  0.79601761719E-01  0.51100000000E-03 0.  1.
</event>
<event>
 8    1  0.2123879E+004  0.1043930E+01  0.7957747E-01            NaN
         13   -1    0    0    0    0  0.00000000000E+00  0.00000000000E+00  0.74505805969E-08  0.10566000000E+00  0.10566000000E+00 0. -1.
     999900   -1    0    0    0    0 -0.00000000000E+00 -0.00000000000E+00 -0.74505805969E-08  0.93827000000E+00  0.93827000000E+00 0.  1.
     999902    2    1    2    0    0  0.11053264863E-01 -0.31408429508E-02  0.69448815963E-02  0.10305034986E+01  0.10304160275E+01 0.  0.
     999903    2    3    3    0    0  0.89728491732E-01 -0.43403464223E-01  0.90101917081E-01  0.14217587746E+00  0.46481843054E-01 0.  0.
         14    1    1    2    0    0 -0.11053264863E-01  0.31408429508E-02 -0.69448815963E-02  0.13426501367E-01  0.00000000000E+00 0.  1.
     999901    1    3    3    0    0 -0.78675226869E-01  0.40262621272E-01 -0.83157035485E-01  0.88832762118E+00  0.88000000000E+00 0.  1.
        -11    1    4    4    0    0  0.10137171444E-01  0.80489700894E-02  0.21780923428E-01  0.25342018679E-01  0.51100000000E-03 0.  1.
         11    1    4    4    0    0  0.79591320288E-01 -0.51452434313E-01  0.68320993654E-01  0.11683385878E+00  0.51100000000E-03 0. -1.
</event>
<event>
 7    1  0.2123879E+004  0.1043930E+01  0.7957747E-01            NaN
         13   -1    0    0    0    0  0.00000000000E+00  0.00000000000E+00  0.74505805969E-08  0.10566000000E+00  0.10566000000E+00 0.  1.
     999900   -1    0    0    0    0 -0.00000000000E+00 -0.00000000000E+00 -0.74505805969E-08  0.93827000000E+00  0.93827000000E+00 0.  1.
     999903    2    1    2    0    0  0.64980266742E-01  0.96639804955E-01 -0.11980693593E-01  0.12570353748E+00  0.45783789136E-01 0.  0.
         14    1    1    2    0    0 -0.27733966332E-01  0.73048702907E-03  0.16073386888E-01  0.32063378890E-01  0.00000000000E+00 0.  1.
     999901    1    1    2    0    0 -0.37246300410E-01 -0.97370291985E-01 -0.40926932949E-02  0.88616308363E+00  0.88000000000E+00 0.  1.
        -11    1    3    3    0    0  0.22785360486E-01  0.72341954794E-01 -0.13238324989E-01  0.76993801345E-01  0.51100000000E-03 0.  1.
         11    1    3    3    0    0  0.42194906256E-01  0.24297850161E-01  0.12576313966E-02  0.48709736133E-01  0.51100000000E-03 0. -1.
</event>
<event>
 8    1  0.2123879E+004  0.1043930E+01  0.7957747E-01            NaN
         13   -1    0    0    0    0  0.00000000000E+00  0.00000000000E+00  0.74505805969E-08  0.10566000000E+00  0.10566000000E+00 0.  1.
     999900   -1    0    0    0    0 -0.00000000000E+00 -0.00000000000E+00 -0.74505805969E-08  0.93827000000E+00  0.93827000000E+00 0. -1.
     999902    2    1    2    0    0  0.64449186308E-02  0.14000232655E-01  0.12046223980E-02  0.10284705496E+01  0.10283543537E+01 0.  0.
     999903    2    3    3    0    0  0.48115734994E-02 -0.85470423375E-01  0.97791062562E-01  0.13761364774E+00  0.45233611569E-01 0.  0.
         14    1    1    2    0    0 -0.64449186308E-02 -0.14000232655E-01 -0.12046223980E-02  0.15459450367E-01  0.00000000000E+00 0.  1.
     999901    1    3    3    0    0  0.16333451314E-02  0.99470656030E-01 -0.96586440164E-01  0.89085690189E+00  0.88000000000E+00 0.  1.
        -11    1    4    4    0    0 -0.12728305345E-01 -0.31297503001E-01  0.61253381831E-01  0.69955567025E-01  0.51100000000E-03 0.  1.
         11    1    4    4    0    0  0.17539878844E-01 -0.54172920374E-01  0.36537680731E-01  0.67658080714E-01  0.51100000000E-03 0. -1.
</event>
<event>
 8    1  0.2123879E+004  0.1043930E+01  0.7957747E-01            NaN
         13   -1    0    0    0    0  0.00000000000E+00  0.00000000000E+00  0.74505805969E-08  0.10566000000E+00  0.10566000000E+00 0. -1.
     999900   -1    0    0    0    0 -0.00000000000E+00 -0.00000000000E+00 -0.74505805969E-08  0.93827000000E+00  0.93827000000E+00 0. -1.
     999902    2    1    2    0    0 -0.12281941942E-01  0.81469611924E-03 -0.42607183377E-02  0.10309045039E+01  0.10308222119E+01 0.  0.
     999903    2    3    3    0    0 -0.12166712440E+00  0.50766771124E-01 -0.27371408399E-01  0.14242578614E+00  0.46430123291E-01 0.  0.
         14    1    1    2    0    0  0.12281941942E-01 -0.81469611924E-03  0.42607183377E-02  0.13025496090E-01  0.00000000000E+00 0. -1.
     999901    1    3    3    0    0  0.10938518246E+00 -0.49952075004E-01  0.23110690061E-01  0.88847871777E+00  0.88000000000E+00 0.  1.
        -11    1    4    4    0    0 -0.40522311739E-01  0.33324183520E-01 -0.27900075008E-01  0.59424189203E-01  0.51100000000E-03 0.  1.
         11    1    4    4    0    0 -0.81144812663E-01  0.17442587604E-01  0.52866660944E-03  0.83001596935E-01  0.51100000000E-03 0. -1.
</event>
<event>
 8    1  0.2123879E+004  0.1043930E+01  0.7957747E-01            NaN
         13   -1    0    0    0    0  0.00000000000E+00  0.00000000000E+00  0.74505805969E-08  0.10566000000E+00  0.10566000000E+00 0. -1.
     999900   -1    0    0    0    0 -0.00000000000E+00 -0.00000000000E+00 -0.74505805969E-08  0.93827000000E+00  0.93827000000E+00 0.  1.
     999902    2    1    2    0    0  0.11387541664E-03  0.50044191497E-02  0.69214539889E-02  0.10353881206E+01  0.10353528850E+01 0.  0.
     999903    2    3    3    0    0  0.10971808300E-01 -0.10324567415E+00  0.91564841273E-01  0.14465781324E+00  0.41972764587E-01 0.  0.
         14    1    1    2    0    0 -0.11387541664E-03 -0.50044191497E-02 -0.69214539889E-02  0.85418794160E-02  0.00000000000E+00 0.  1.
     999901    1    3    3    0    0 -0.10857932883E-01  0.10825009330E+00 -0.84643387284E-01  0.89073030734E+00  0.88000000000E+00 0.  1.
        -11    1    4    4    0    0  0.15590391140E-01 -0.97616063947E-01  0.67989638894E-01  0.11997836619E+00  0.51100000000E-03 0.  1.
         11    1    4    4    0    0 -0.46185828403E-02 -0.56296102014E-02  0.23575202379E-01  0.24679447050E-01  0.51100000000E-03 0. -1.
</event>
<event>
 8    1  0.2123879E+004  0.1043930E+01  0.7957747E-01            NaN
         13   -1    0    0    0    0  0.00000000000E+00  0.00000000000E+00  0.74505805969E-08  0.10566000000E+00  0.10566000000E+00 0. -1.
     999900   -1    0    0    0    0 -0.00000000000E+00 -0.00000000000E+00 -0.74505805969E-08  0.93827000000E+00  0.93827000000E+00 0. -1.
     999902    2    1    2    0    0  0.10917843024E-01 -0.82166348764E-02 -0.32086005755E-02  0.10298940639E+01  0.10297984149E+01 0.  0.
     999903    2    3    3    0    0  0.53302051302E-01 -0.10732835826E+00  0.60236633899E-01  0.14104939095E+00  0.43657685052E-01 0.  0.
         14    1    1    2    0    0 -0.10917843024E-01  0.82166348764E-02  0.32086005755E-02  0.14035936115E-01  0.00000000000E+00 0. -1.
     999901    1    3    3    0    0 -0.42384208279E-01  0.99111723386E-01 -0.63445234474E-01  0.88884467293E+00  0.88000000000E+00 0. -1.
        -11    1    4    4    0    0  0.45901696315E-01 -0.10429081242E+00  0.42551309893E-01  0.12163229166E+00  0.51100000000E-03 0.  1.
         11    1    4    4    0    0  0.74003549873E-02 -0.30375458405E-02  0.17685324005E-01  0.19417099290E-01  0.51100000000E-03 0. -1.
</event>
<event>
 8    1  0.2123879E+004  0.1043930E+01  0.7957747E-01            NaN
         13   -1    0    0    0    0  0.00000000000E+00  0.00000000000E+00  0.74505805969E-08  0.10566000000E+00  0.10566000000E+00 0. -1.
     999900   -1    0    0    0    0 -0.00000000000E+00 -0.00000000000E+00 -0.74505805969E-08  0.93827000000E+00  0.93827000000E+00 0. -1.
     999902    2    1    2    0    0  0.65645268071E-02 -0.70507202258E-02  0.99586995259E-02  0.10300742660E+01  0.10299810737E+01 0.  0.
     999903    2    3    3    0    0  0.33668147652E-01 -0.65798897584E-01 -0.10943977154E+00  0.13965753802E+00  0.45432645118E-01 0.  0.
         14    1    1    2    0    0 -0.65645268071E-02  0.70507202258E-02 -0.99586995259E-02  0.13855733981E-01  0.00000000000E+00 0.  1.
     999901    1    3    3    0    0 -0.27103620845E-01  0.58748177359E-01  0.11939847106E+00  0.89041672800E+00  0.88000000000E+00 0.  1.
        -11    1    4    4    0    0  0.10393879058E-01 -0.42502393145E-01 -0.28360853933E-01  0.52144849235E-01  0.51100000000E-03 0. -1.
         11    1    4    4    0    0  0.23274268594E-01 -0.23296504439E-01 -0.81078917605E-01  0.87512688786E-01  0.51100000000E-03 0.  1.
</event>
<event>
 8    1  0.2123879E+004  0.1043930E+01  0.7957747E-01            NaN
         13   -1    0    0    0    0  0.00000000000E+00  0.00000000000E+00  0.74505805969E-08  0.10566000000E+00  0.10566000000E+00 0. -1.
     999900   -1    0    0    0    0 -0.00000000000E+00 -0.00000000000E+00 -0.74505805969E-08  0.93827000000E+00  0.93827000000E+00 0. -1.
     999902    2    1    2    0    0  0.13985193242E-01  0.18352667181E-02  0.87423325049E-03  0.10297978339E+01  0.10297008598E+01 0.  0.
     999903    2    3    3    0    0  0.21444270921E-01  0.11341596942E+00 -0.65707180020E-01  0.14022547845E+00  0.44974575315E-01 0.  0.
         14    1    1    2    0    0 -0.13985193242E-01 -0.18352667181E-02 -0.87423325049E-03  0.14132166066E-01  0.00000000000E+00 0. -1.
     999901    1    3    3    0    0 -0.74590776791E-02 -0.11158070270E+00  0.66581413271E-01  0.88957235549E+00  0.88000000000E+00 0.  1.
        -11    1    4    4    0    0 -0.68044720059E-02  0.39117475357E-01 -0.46221327133E-02  0.39976279835E-01  0.51100000000E-03 0.  1.
         11    1    4    4    0    0  0.28248742927E-01  0.74298494061E-01 -0.61085047307E-01  0.10024919861E+00  0.51100000000E-03 0. -1.
</event>
<event>
 8    1  0.2123879E+004  0.1043930E+01  0.7957747E-01            NaN
         13   -1    0    0    0    0  0.00000000000E+00  0.00000000000E+00  0.74505805969E-08  0.10566000000E+00  0.10566000000E+00 0. -1.
     999900   -1    0    0    0    0 -0.00000000000E+00 -0.00000000000E+00 -0.74505805969E-08  0.93827000000E+00  0.93827000000E+00 0.  1.
     999902    2    1    2    0    0 -0.66299378412E-02  0.93953440370E-03  0.12352460940E-01  0.10298793028E+01  0.10297834511E+01 0.  0.
     999903    2    3    3    0    0  0.37471149966E-01 -0.34023000122E-01 -0.12019695900E+00  0.13817496082E+00  0.45643830132E-01 0.  0.
         14    1    1    2    0    0  0.66299378412E-02 -0.93953440370E-03 -0.12352460940E-01  0.14050697205E-01  0.00000000000E+00 0.  1.
     999901    1    3    3    0    0 -0.44101087807E-01  0.34962534525E-01  0.13254941994E+00  0.89170434197E+00  0.88000000000E+00 0. -1.
        -11    1    4    4    0    0  0.16607650925E-02  0.89740038937E-02 -0.35527561530E-01  0.36684596711E-01  0.51100000000E-03 0.  1.
         11    1    4    4    0    0  0.35810384874E-01 -0.42997004015E-01 -0.84669397467E-01  0.10149036411E+00  0.51100000000E-03 0. -1.
</event>
<event>
 8    1  0.2123879E+004  0.1043930E+01  0.7957747E-01            NaN
         13   -1    0    0    0    0  0.00000000000E+00  0.00000000000E+00  0.74505805969E-08  0.10566000000E+00  0.10566000000E+00 0. -1.
     999900   -1    0    0    0    0 -0.00000000000E+00 -0.00000000000E+00 -0.74505805969E-08  0.93827000000E+00  0.93827000000E+00 0.  1.
     999902    2    1    2    0    0 -0.29902734823E-02  0.92003896662E-02 -0.11930555562E-01  0.10285700826E+01  0.10284553893E+01 0.  0.
     999903    2    3    3    0    0  0.10129151294E+00 -0.20685993339E-01 -0.80954099469E-01  0.13922642775E+00  0.46287698674E-01 0.  0.
         14    1    1    2    0    0  0.29902734823E-02 -0.92003896662E-02  0.11930555562E-01  0.15359917367E-01  0.00000000000E+00 0. -1.
     999901    1    3    3    0    0 -0.10428178642E+00  0.29886383005E-01  0.69023543907E-01  0.88934365488E+00  0.88000000000E+00 0. -1.
        -11    1    4    4    0    0  0.36656447767E-01  0.12963053522E-01 -0.17666842455E-01  0.42709651870E-01  0.51100000000E-03 0.  1.
         11    1    4    4    0    0  0.64635065174E-01 -0.33649046861E-01 -0.63287257014E-01  0.96516775879E-01  0.51100000000E-03 0. -1.
</event>
<event>
 8    1  0.2123879E+004  0.1043930E+01  0.7957747E-01            NaN
         13   -1    0    0    0    0  0.00000000000E+00  0.00000000000E+00  0.74505805969E-08  0.10566000000E+00  0.10566000000E+00 0.  1.
     999900   -1    0    0    0    0 -0.00000000000E+00 -0.00000000000E+00 -0.74505805969E-08  0.93827000000E+00  0.93827000000E+00 0.  1.
     999902    2    1    2    0    0 -0.81275697413E-02 -0.96261471591E-03  0.10915168976E-01  0.10302872389E+01  0.10301969082E+01 0.  0.
     999903    2    3    3    0    0  0.13145407112E+00  0.89076122542E-02  0.37614247303E-02  0.13920271321E+00  0.44763028029E-01 0.  0.
         14    1    1    2    0    0  0.81275697413E-02  0.96261471591E-03 -0.10915168976E-01  0.13642761112E-01  0.00000000000E+00 0. -1.
     999901    1    3    3    0    0 -0.13958164086E+00 -0.98702269701E-02  0.71537442457E-02  0.89108452568E+00  0.88000000000E+00 0. -1.
        -11    1    4    4    0    0  0.46167850700E-01  0.10642171278E-01  0.21567063607E-01  0.52058866693E-01  0.51100000000E-03 0. -1.
         11    1    4    4    0    0  0.85286220422E-01 -0.17345590238E-02 -0.17805638876E-01  0.87143846517E-01  0.51100000000E-03 0.  1.
</event>
<event>
 7    1  0.2123879E+004  0.1043930E+01  0.7957747E-01            NaN
         13   -1    0    0    0    0  0.00000000000E+00  0.00000000000E+00  0.74505805969E-08  0.10566000000E+00  0.10566000000E+00 0.  1.
     999900   -1    0    0    0    0 -0.00000000000E+00 -0.00000000000E+00 -0.74505805969E-08  0.93827000000E+00  0.93827000000E+00 0. -1.
     999902    2    1    2    0    0  0.10967213361E-01  0.66848142705E-02  0.51560906973E-02  0.10300897767E+01  0.10299967943E+01 0.  0.
         14    1    1    2    0    0 -0.10967213361E-01 -0.66848142705E-02 -0.51560906973E-02  0.13840223337E-01  0.00000000000E+00 0.  1.
     999901    1    3    3    0    0 -0.71787136984E-01  0.94835863735E-01 -0.61625742361E-01  0.89013761083E+00  0.88000000000E+00 0. -1.
        -11    1    3    3    0    0  0.49211090600E-01 -0.48596243833E-01  0.50338938527E-01  0.85542949480E-01  0.51100000000E-03 0. -1.
         11    1    3    3    0    0  0.33543259746E-01 -0.39554805632E-01  0.16442894531E-01  0.54409216357E-01  0.51100000000E-03 0.  1.
</event>
<event>
 8    1  0.2123879E+004  0.1043930E+01  0.7957747E-01            NaN
         13   -1    0    0    0    0  0.00000000000E+00  0.00000000000E+00  0.74505805969E-08  0.10566000000E+00  0.10566000000E+00 0. -1.
     999900   -1    0    0    0    0 -0.00000000000E+00 -0.00000000000E+00 -0.74505805969E-08  0.93827000000E+00  0.93827000000E+00 0.  1.
     999902    2    1    2    0    0 -0.43953629194E-03  0.68558463796E-02 -0.11241978446E-01  0.10307551034E+01  0.10306709005E+01 0.  0.
     999903    2    3    3    0    0 -0.45649349762E-01 -0.12005351158E+00 -0.34144833348E-01  0.14020782606E+00  0.44672766519E-01 0.  0.
         14    1    1    2    0    0  0.43953629194E-03 -0.68558463796E-02  0.11241978446E-01  0.13174896626E-01  0.00000000000E+00 0. -1.
     999901    1    3    3    0    0  0.45209813470E-01  0.12690935796E+00  0.22902854902E-01  0.89054727732E+00  0.88000000000E+00 0. -1.
        -11    1    4    4    0    0 -0.16445634976E-01 -0.15515754429E-01  0.76842683678E-02  0.23885280962E-01  0.51100000000E-03 0. -1.
         11    1    4    4    0    0 -0.29203714786E-01 -0.10453775715E+00 -0.41829101715E-01  0.11632254510E+00  0.51100000000E-03 0.  1.
</event>
<event>
 8    1  0.2123879E+004  0.1043930E+01  0.7957747E-01            NaN
         13   -1    0    0    0    0  0.00000000000E+00  0.00000000000E+00  0.74505805969E-08  0.10566000000E+00  0.10566000000E+00 0. -1.
     999900   -1    0    0    0    0 -0.00000000000E+00 -0.00000000000E+00 -0.74505805969E-08  0.93827000000E+00  0.93827000000E+00 0. -1.
     999902    2    1    2    0    0 -0.12966655046E-02  0.10996704436E-01 -0.84719059416E-02  0.10299879040E+01  0.10298935384E+01 0.  0.
     999903    2    3    3    0    0  0.10287338708E+00 -0.52151280027E-01  0.62859253443E-01  0.13873754521E+00  0.44655693137E-01 0.  0.
         14    1    1    2    0    0  0.12966655046E-02 -0.10996704436E-01  0.84719059416E-02  0.13942095975E-01  0.00000000000E+00 0. -1.
     999901    1    3    3    0    0 -0.10417005258E+00  0.63147984463E-01 -0.71331159384E-01  0.89125035882E+00  0.88000000000E+00 0. -1.
        -11    1    4    4    0    0  0.83420324359E-01 -0.51872192995E-01  0.66912754653E-01  0.11885812037E+00  0.51100000000E-03 0. -1.
         11    1    4    4    0    0  0.19453062716E-01 -0.27908703152E-03 -0.40535012108E-02  0.19879424833E-01  0.51100000000E-03 0.  1.
</event>
<event>
 8    1  0.2123879E+004  0.1043930E+01  0.7957747E-01            NaN
         13   -1    0    0    0    0  0.00000000000E+00  0.00000000000E+00  0.74505805969E-08  0.10566000000E+00  0.10566000000E+00 0. -1.
     999900   -1    0    0    0    0 -0.00000000000E+00 -0.00000000000E+00 -0.74505805969E-08  0.93827000000E+00  0.93827000000E+00 0. -1.
     999902    2    1    2    0    0  0.53521789138E-02  0.43513743140E-02  0.12048651749E-01  0.10300465463E+01  0.10299529782E+01 0.  0.
     999903    2    3    3    0    0  0.63172763241E-01  0.11688083348E+00 -0.16404110256E-01  0.14054350594E+00  0.42795501838E-01 0.  0.
         14    1    1    2    0    0 -0.53521789138E-02 -0.43513743140E-02 -0.12048651749E-01  0.13883453695E-01  0.00000000000E+00 0.  1.
     999901    1    3    3    0    0 -0.57820584327E-01 -0.11252945917E+00  0.28452762005E-01  0.88950304036E+00  0.88000000000E+00 0. -1.
        -11    1    4    4    0    0  0.24216864583E-01  0.83913329816E-01 -0.19222486036E-01  0.89429684901E-01  0.51100000000E-03 0.  1.
         11    1    4    4    0    0  0.38955898657E-01  0.32967503667E-01  0.28183757795E-02  0.51113821039E-01  0.51100000000E-03 0. -1.
</event>
<event>
 8    1  0.2123879E+004  0.1043930E+01  0.7957747E-01            NaN
         13   -1    0    0    0    0  0.00000000000E+00  0.00000000000E+00  0.74505805969E-08  0.10566000000E+00  0.10566000000E+00 0.  1.
     999900   -1    0    0    0    0 -0.00000000000E+00 -0.00000000000E+00 -0.74505805969E-08  0.93827000000E+00  0.93827000000E+00 0. -1.
     999902    2    1    2    0    0  0.14881653897E-01 -0.10927139890E-01  0.69522681480E-02  0.10242018465E+01  0.10240118272E+01 0.  0.
     999903    2    3    3    0    0  0.20239846796E-01  0.11844565088E-01  0.12337593304E+00  0.13622564718E+00  0.52781255897E-01 0.  0.
         14    1    1    2    0    0 -0.14881653897E-01  0.10927139890E-01 -0.69522681480E-02  0.19728153520E-01  0.00000000000E+00 0. -1.
     999901    1    3    3    0    0 -0.53581928987E-02 -0.22771704977E-01 -0.11642366490E+00  0.88797619930E+00  0.88000000000E+00 0. -1.
        -11    1    4    4    0    0  0.16005452743E-01  0.31400327712E-01  0.58160224739E-01  0.68007558114E-01  0.51100000000E-03 0.  1.
         11    1    4    4    0    0  0.42343940536E-02 -0.19555762624E-01  0.65215708306E-01  0.68218089065E-01  0.51100000000E-03 0. -1.
</event>
<event>
 8    1  0.2123879E+004  0.1043930E+01  0.7957747E-01            NaN
         13   -1    0    0    0    0  0.00000000000E+00  0.00000000000E+00  0.74505805969E-08  0.10566000000E+00  0.10566000000E+00 0.  1.
     999900   -1    0    0    0    0 -0.00000000000E+00 -0.00000000000E+00 -0.74505805969E-08  0.93827000000E+00  0.93827000000E+00 0.  1.
     999902    2    1    2    0    0 -0.10656073341E-01 -0.71790674797E-03  0.73977142444E-02  0.10309379461E+01  0.10308560788E+01 0.  0.
     999903    2    3    3    0    0 -0.23164702418E-01  0.10786241075E+00  0.76464712395E-01  0.14149070122E+00  0.44742185904E-01 0.  0.
         14    1    1    2    0    0  0.10656073341E-01  0.71790674797E-03 -0.73977142444E-02  0.12992053925E-01  0.00000000000E+00 0. -1.
     999901    1    3    3    0    0  0.12508629076E-01 -0.10858031749E+00 -0.69066998150E-01  0.88944724486E+00  0.88000000000E+00 0.  1.
        -11    1    4    4    0    0 -0.12620985464E-01  0.52333240930E-01  0.10906390354E-01  0.54929662769E-01  0.51100000000E-03 0. -1.
         11    1    4    4    0    0 -0.10543716953E-01  0.55529169817E-01  0.65558322041E-01  0.86561038450E-01  0.51100000000E-03 0.  1.
</event>
<event>
 8    1  0.2123879E+004  0.1043930E+01  0.7957747E-01            NaN
         13   -1    0    0    0    0  0.00000000000E+00  0.00000000000E+00  0.74505805969E-08  0.10566000000E+00  0.10566000000E+00 0.  1.
     999900   -1    0    0    0    0 -0.00000000000E+00 -0.00000000000E+00 -0.74505805969E-08  0.93827000000E+00  0.93827000000E+00 0. -1.
     999902    2    1    2    0    0  0.11480410326E-01  0.77797845925E-02 -0.49888127716E-03  0.10300529055E+01  0.10299594236E+01 0.  0.
     999903    2    3    3    0    0  0.87318040094E-01 -0.97655901048E-01 -0.14902089083E-01  0.14040382732E+00  0.48270563814E-01 0.  0.
         14    1    1    2    0    0 -0.11480410326E-01 -0.77797845925E-02  0.49888127716E-03  0.13877094512E-01  0.00000000000E+00 0. -1.
     999901    1    3    3    0    0 -0.75837629768E-01  0.10543568564E+00  0.14403207806E-01  0.88964907817E+00  0.88000000000E+00 0.  1.
        -11    1    4    4    0    0  0.22760730626E-01 -0.10311551969E-02 -0.73713558290E-02  0.23952288981E-01  0.51100000000E-03 0. -1.
         11    1    4    4    0    0  0.64557309468E-01 -0.96624745852E-01 -0.75307332539E-02  0.11645153834E+00  0.51100000000E-03 0.  1.
</event>
<event>
 8    1  0.2123879E+004  0.1043930E+01  0.7957747E-01            NaN
         13   -1    0    0    0    0  0.00000000000E+00  0.00000000000E+00  0.74505805969E-08  0.10566000000E+00  0.10566000000E+00 0.  1.
     999900   -1    0    0    0    0 -0.00000000000E+00 -0.00000000000E+00 -0.74505805969E-08  0.93827000000E+00  0.93827000000E+00 0.  1.
     999902    2    1    2    0    0  0.56238158211E-02 -0.12275808950E-01 -0.26856647721E-02  0.10301628077E+01  0.10300708105E+01 0.  0.
     999903    2    3    3    0    0 -0.80160673002E-01  0.91696301879E-01  0.48929362742E-01  0.13840427004E+00  0.43905741671E-01 0.  0.
         14    1    1    2    0    0 -0.56238158211E-02  0.12275808950E-01  0.26856647721E-02  0.13767192344E-01  0.00000000000E+00 0.  1.
     999901    1    3    3    0    0  0.85784488823E-01 -0.10397211083E+00 -0.51615027514E-01  0.89175853762E+00  0.88000000000E+00 0. -1.
        -11    1    4    4    0    0 -0.45242525787E-01  0.47345254891E-01  0.49271524568E-01  0.81953667121E-01  0.51100000000E-03 0. -1.
         11    1    4    4    0    0 -0.34918147215E-01  0.44351046988E-01 -0.34216182635E-03  0.56450602916E-01  0.51100000000E-03 0.  1.
</event>
<event>
 8    1  0.2123879E+004  0.1043930E+01  0.7957747E-01            NaN
         13   -1    0    0    0    0  0.00000000000E+00  0.00000000000E+00  0.74505805969E-08  0.10566000000E+00  0.10566000000E+00 0. -1.
     999900   -1    0    0    0    0 -0.00000000000E+00 -0.00000000000E+00 -0.74505805969E-08  0.93827000000E+00  0.93827000000E+00 0.  1.
     999902    2    1    2    0    0 -0.27225924336E-02 -0.13487249994E-01  0.14252604222E-02  0.10300970759E+01  0.10300041922E+01 0.  0.
     999903    2    3    3    0    0  0.11760906094E+00 -0.56866280589E-01 -0.25452325917E-01  0.14044329394E+00  0.44842310779E-01 0.  0.
         14    1    1    2    0    0  0.27225924336E-02  0.13487249994E-01 -0.14252604222E-02  0.13832924103E-01  0.00000000000E+00 0.  1.
     999901    1    3    3    0    0 -0.12033165337E+00  0.43379030595E-01  0.26877586339E-01  0.88965378195E+00  0.88000000000E+00 0. -1.
        -11    1    4    4    0    0  0.87781695776E-01 -0.29817151367E-01  0.17895773975E-03  0.92709124555E-01  0.51100000000E-03 0. -1.
         11    1    4    4    0    0  0.29827365163E-01 -0.27049129222E-01 -0.25631283657E-01  0.47734169388E-01  0.51100000000E-03 0.  1.
</event>
<event>
 8    1  0.2123879E+004  0.1043930E+01  0.7957747E-01            NaN
         13   -1    0    0    0    0  0.00000000000E+00  0.00000000000E+00  0.74505805969E-08  0.10566000000E+00  0.10566000000E+00 0.  1.
     999900   -1    0    0    0    0 -0.00000000000E+00 -0.00000000000E+00 -0.74505805969E-08  0.93827000000E+00  0.93827000000E+00 0. -1.
     999902    2    1    2    0    0 -0.12417567541E-01  0.48472871682E-02 -0.37497175548E-02  0.10300825252E+01  0.10299894447E+01 0.  0.
     999903    2    3    3    0    0  0.10306541943E-01  0.42495074814E-01 -0.12581712376E+00  0.14056906677E+00  0.44918344937E-01 0.  0.
         14    1    1    2    0    0  0.12417567541E-01 -0.48472871682E-02  0.37497175548E-02  0.13847474797E-01  0.00000000000E+00 0. -1.
     999901    1    3    3    0    0 -0.22724109484E-01 -0.37647787646E-01  0.12206740621E+00  0.88951345843E+00  0.88000000000E+00 0.  1.
        -11    1    4    4    0    0  0.22936055455E-01  0.18475992808E-01 -0.34809579831E-01  0.45600360953E-01  0.51100000000E-03 0. -1.
         11    1    4    4    0    0 -0.12629513512E-01  0.24019082006E-01 -0.91007543931E-01  0.94968705821E-01  0.51100000000E-03 0.  1.
</event>
<event>
 8    1  0.2547823E+004  0.1043930E+01  0.7957747E-01            NaN
         13   -1    0    0    0    0  0.00000000000E+00  0.00000000000E+00  0.74505805969E-08  0.10566000000E+00  0.10566000000E+00 0.  1.
     999900   -1    0    0    0    0 -0.00000000000E+00 -0.00000000000E+00 -0.74505805969E-08  0.93827000000E+00  0.93827000000E+00 0.  1.
     999902    2    1    2    0    0  0.10226662318E-01 -0.23130287156E-02  0.97088824421E-02  0.10296402441E+01  0.10295410799E+01 0.  0.
     999903    2    3    3    0    0  0.72746775565E-01  0.21854320486E-01  0.11091223519E+00  0.14130756776E+00  0.43549972593E-01 0.  0.
         14    1    1    2    0    0 -0.10226662318E-01  0.23130287156E-02 -0.97088824421E-02  0.14289755851E-01  0.00000000000E+00 0. -1.
     999901    1    3    3    0    0 -0.62520113246E-01 -0.24167349202E-01 -0.10120335275E+00  0.88833267639E+00  0.88000000000E+00 0. -1.
        -11    1    4    4    0    0  0.74199853772E-02  0.73947115237E-02  0.49127675581E-01  0.50234724748E-01  0.51100000000E-03 0.  1.
         11    1    4    4    0    0  0.65326790187E-01  0.14459608962E-01  0.61784559611E-01  0.91072843015E-01  0.51100000000E-03 0. -1.
</event>
<event>
 8    1  0.2123879E+004  0.1043930E+01  0.7957747E-01            NaN
         13   -1    0    0    0    0  0.00000000000E+00  0.00000000000E+00  0.74505805969E-08  0.10566000000E+00  0.10566000000E+00 0.  1.
     999900   -1    0    0    0    0 -0.00000000000E+00 -0.00000000000E+00 -0.74505805969E-08  0.93827000000E+00  0.93827000000E+00 0.  1.
     999902    2    1    2    0    0 -0.72246086639E-02  0.65825941504E-02 -0.87377239459E-02  0.10308199529E+01  0.10307365822E+01 0.  0.
     999903    2    3    3    0    0  0.56290025415E-01 -0.97672047929E-01  0.67983010066E-01  0.13908613038E+00  0.44887259871E-01 0.  0.
         14    1    1    2    0    0  0.72246086639E-02 -0.65825941504E-02  0.87377239459E-02  0.13110047134E-01  0.00000000000E+00 0. -1.
     999901    1    3    3    0    0 -0.63514634078E-01  0.10425464208E+00 -0.76720734012E-01  0.89173382249E+00  0.88000000000E+00 0. -1.
        -11    1    4    4    0    0  0.57318838389E-01 -0.76009246796E-01  0.38989017312E-01  0.10287496986E+00  0.51100000000E-03 0. -1.
         11    1    4    4    0    0 -0.10288129746E-02 -0.21662801134E-01  0.28993992754E-01  0.36211160516E-01  0.51100000000E-03 0.  1.
</event>
<event>
 8    1  0.2123879E+004  0.1043930E+01  0.7957747E-01            NaN
         13   -1    0    0    0    0  0.00000000000E+00  0.00000000000E+00  0.74505805969E-08  0.10566000000E+00  0.10566000000E+00 0. -1.
     999900   -1    0    0    0    0 -0.00000000000E+00 -0.00000000000E+00 -0.74505805969E-08  0.93827000000E+00  0.93827000000E+00 0.  1.
     999902    2    1    2    0    0 -0.27839847643E-02 -0.76934640572E-02  0.11573708349E-01  0.10297564089E+01  0.10296588614E+01 0.  0.
     999903    2    3    3    0    0 -0.99052797442E-01  0.70196288254E-01 -0.50361672963E-01  0.13893067437E+00  0.45016203861E-01 0.  0.
         14    1    1    2    0    0  0.27839847643E-02  0.76934640572E-02 -0.11573708349E-01  0.14173591123E-01  0.00000000000E+00 0.  1.
     999901    1    3    3    0    0  0.96268812678E-01 -0.77889752312E-01  0.61935381313E-01  0.89082573451E+00  0.88000000000E+00 0. -1.
        -11    1    4    4    0    0 -0.51413613765E-01  0.58554129118E-01 -0.17411393397E-01  0.79845873144E-01  0.51100000000E-03 0.  1.
         11    1    4    4    0    0 -0.47639183678E-01  0.11642159136E-01 -0.32950279567E-01  0.59084801221E-01  0.51100000000E-03 0. -1.
</event>
<event>
 8    1  0.2123879E+004  0.1043930E+01  0.7957747E-01            NaN
         13   -1    0    0    0    0  0.00000000000E+00  0.00000000000E+00  0.74505805969E-08  0.10566000000E+00  0.10566000000E+00 0. -1.
     999900   -1    0    0    0    0 -0.00000000000E+00 -0.00000000000E+00 -0.74505805969E-08  0.93827000000E+00  0.93827000000E+00 0.  1.
     999902    2    1    2    0    0  0.11225726806E-01  0.12209349854E-02  0.83653679805E-02  0.10298769930E+01  0.10297811096E+01 0.  0.
     999903    2    3    3    0    0  0.13058918291E+00 -0.29220047407E-01  0.59553251325E-02  0.14129379690E+00  0.44956926963E-01 0.  0.
         14    1    1    2    0    0 -0.11225726806E-01 -0.12209349854E-02 -0.83653679805E-02  0.14053007010E-01  0.00000000000E+00 0.  1.
     999901    1    3    3    0    0 -0.11936345611E+00  0.30440982392E-01  0.24100428480E-02  0.88858319609E+00  0.88000000000E+00 0.  1.
        -11    1    4    4    0    0  0.57402637750E-01 -0.33879041513E-01 -0.62482507486E-02  0.66948891200E-01  0.51100000000E-03 0.  1.
         11    1    4    4    0    0  0.73186545161E-01  0.46589941060E-02  0.12203575881E-01  0.74344905703E-01  0.51100000000E-03 0. -1.
</event>
<event>
 7    1  0.2123879E+004  0.1043930E+01  0.7957747E-01            NaN
         13   -1    0    0    0    0  0.00000000000E+00  0.00000000000E+00  0.74505805969E-08  0.10566000000E+00  0.10566000000E+00 0. -1.
     999900   -1    0    0    0    0 -0.00000000000E+00 -0.00000000000E+00 -0.74505805969E-08  0.93827000000E+00  0.93827000000E+00 0. -1.
     999903    2    1    2    0    0  0.43630103373E-01  0.98852889602E-01 -0.34594043662E-01  0.12217896388E+00  0.45337309736E-01 0.  0.
         14    1    1    2    0    0  0.26006816908E-01 -0.12779656019E-01 -0.16495766971E-01  0.33343432061E-01  0.00000000000E+00 0.  1.
     999901    1    1    2    0    0 -0.69636920280E-01 -0.86073233582E-01  0.51089810634E-01  0.88840760406E+00  0.88000000000E+00 0.  1.
        -11    1    3    3    0    0  0.43429849375E-01  0.75421078482E-01 -0.43258120674E-01  0.97190622086E-01  0.51100000000E-03 0.  1.
         11    1    3    3    0    0  0.20025399765E-03  0.23431811119E-01  0.86640770114E-02  0.24988341791E-01  0.51100000000E-03 0. -1.
</event>
<event>
 7    1  0.2123879E+004  0.1043930E+01  0.7957747E-01            NaN
         13   -1    0    0    0    0  0.00000000000E+00  0.00000000000E+00  0.74505805969E-08  0.10566000000E+00  0.10566000000E+00 0. -1.
     999900   -1    0    0    0    0 -0.00000000000E+00 -0.00000000000E+00 -0.74505805969E-08  0.93827000000E+00  0.93827000000E+00 0.  1.
     999903    2    1    2    0    0 -0.15127341726E-01  0.10709135776E+00 -0.38889933864E-02  0.11707351898E+00  0.44650746948E-01 0.  0.
         14    1    1    2    0    0 -0.91830273785E-02  0.26054471005E-01  0.23536289674E-01  0.36292153185E-01  0.00000000000E+00 0. -1.
     999901    1    1    2    0    0  0.24310369104E-01 -0.13314582876E+00 -0.19647296288E-01  0.89056432784E+00  0.88000000000E+00 0.  1.
        -11    1    3    3    0    0 -0.21401645264E-01  0.53076262151E-01 -0.19557826360E-01  0.60480490383E-01  0.51100000000E-03 0. -1.
         11    1    3    3    0    0  0.62743035383E-02  0.54015095604E-01  0.15668832974E-01  0.56593028597E-01  0.51100000000E-03 0.  1.
</event>
<event>
 8    1  0.2123879E+004  0.1043930E+01  0.7957747E-01            NaN
         13   -1    0    0    0    0  0.00000000000E+00  0.00000000000E+00  0.74505805969E-08  0.10566000000E+00  0.10566000000E+00 0. -1.
     999900   -1    0    0    0    0 -0.00000000000E+00 -0.00000000000E+00 -0.74505805969E-08  0.93827000000E+00  0.93827000000E+00 0. -1.
     999902    2    1    2    0    0  0.12168469982E-01 -0.22677083365E-02 -0.52265510273E-02  0.10304938176E+01  0.10304062194E+01 0.  0.
     999903    2    3    3    0    0 -0.12898424313E+00  0.10736058633E-01  0.21099457138E-01  0.13876165762E+00  0.45358710319E-01 0.  0.
         14    1    1    2    0    0 -0.12168469982E-01  0.22677083365E-02  0.52265510273E-02  0.13436182436E-01  0.00000000000E+00 0. -1.
     999901    1    3    3    0    0  0.14115271312E+00 -0.13003766970E-01 -0.26326008165E-01  0.89173215995E+00  0.88000000000E+00 0.  1.
        -11    1    4    4    0    0 -0.82915172261E-01  0.28376202923E-01  0.10111170638E-01  0.88219224526E-01  0.51100000000E-03 0. -1.
         11    1    4    4    0    0 -0.46069070873E-01 -0.17640144290E-01  0.10988286499E-01  0.50542433092E-01  0.51100000000E-03 0.  1.
</event>
<event>
 8    1  0.2123879E+004  0.1043930E+01  0.7957747E-01            NaN
         13   -1    0    0    0    0  0.00000000000E+00  0.00000000000E+00  0.74505805969E-08  0.10566000000E+00  0.10566000000E+00 0.  1.
     999900   -1    0    0    0    0 -0.00000000000E+00 -0.00000000000E+00 -0.74505805969E-08  0.93827000000E+00  0.93827000000E+00 0.  1.
     999902    2    1    2    0    0 -0.92467967295E-02  0.90825583462E-02  0.77984968711E-02  0.10288034449E+01  0.10286922356E+01 0.  0.
     999903    2    3    3    0    0  0.68688641402E-01  0.98467657513E-01 -0.51567827252E-01  0.13886637470E+00  0.47017232808E-01 0.  0.
         14    1    1    2    0    0  0.92467967295E-02 -0.90825583462E-02 -0.77984968711E-02  0.15126555104E-01  0.00000000000E+00 0. -1.
     999901    1    3    3    0    0 -0.77935438132E-01 -0.89385099167E-01  0.59366324124E-01  0.88993707020E+00  0.88000000000E+00 0. -1.
        -11    1    4    4    0    0  0.38509295746E-01  0.58160629639E-01 -0.54356055459E-01  0.88433401976E-01  0.51100000000E-03 0. -1.
         11    1    4    4    0    0  0.30179345656E-01  0.40307027874E-01  0.27882282068E-02  0.50432972724E-01  0.51100000000E-03 0.  1.
</event>
<event>
 8    1  0.2123879E+004  0.1043930E+01  0.7957747E-01            NaN
         13   -1    0    0    0    0  0.00000000000E+00  0.00000000000E+00  0.74505805969E-08  0.10566000000E+00  0.10566000000E+00 0. -1.
     999900   -1    0    0    0    0 -0.00000000000E+00 -0.00000000000E+00 -0.74505805969E-08  0.93827000000E+00  0.93827000000E+00 0.  1.
     999902    2    1    2    0    0  0.75734356553E-02 -0.37735601878E-02  0.11767379929E-01  0.10294362802E+01  0.10293342446E+01 0.  0.
     999903    2    3    3    0    0 -0.80705150434E-01  0.53426188930E-01 -0.87118836932E-01  0.13767207145E+00  0.44679173448E-01 0.  0.
         14    1    1    2    0    0 -0.75734356553E-02  0.37735601878E-02 -0.11767379929E-01  0.14493719830E-01  0.00000000000E+00 0.  1.
     999901    1    3    3    0    0  0.88278586089E-01 -0.57199749118E-01  0.98886216861E-01  0.89176420872E+00  0.88000000000E+00 0.  1.
        -11    1    4    4    0    0 -0.54599999133E-01  0.47622388047E-01 -0.38169359565E-01  0.81891470125E-01  0.51100000000E-03 0. -1.
         11    1    4    4    0    0 -0.26105151300E-01  0.58038008829E-02 -0.48949477367E-01  0.55780601329E-01  0.51100000000E-03 0.  1.
</event>
<event>
 8    1  0.2123879E+004  0.1043930E+01  0.7957747E-01            NaN
         13   -1    0    0    0    0  0.00000000000E+00  0.00000000000E+00  0.74505805969E-08  0.10566000000E+00  0.10566000000E+00 0. -1.
     999900   -1    0    0    0    0 -0.00000000000E+00 -0.00000000000E+00 -0.74505805969E-08  0.93827000000E+00  0.93827000000E+00 0. -1.
     999902    2    1    2    0    0  0.86210802271E-02 -0.13194172465E-01 -0.52926923844E-02  0.10273040623E+01  0.10271695160E+01 0.  0.
     999903    2    3    3    0    0 -0.56726632933E-01 -0.77875402909E-01 -0.88668520349E-01  0.13859403431E+00  0.45428081432E-01 0.  0.
         14    1    1    2    0    0 -0.86210802271E-02  0.13194172465E-01  0.52926923844E-02  0.16625937688E-01  0.00000000000E+00 0. -1.
     999901    1    3    3    0    0  0.65347713160E-01  0.64681230444E-01  0.83375827965E-01  0.88871002800E+00  0.88000000000E+00 0.  1.
        -11    1    4    4    0    0 -0.51507207781E-01 -0.83162762155E-01 -0.75909377739E-01  0.12382056458E+00  0.51100000000E-03 0.  1.
         11    1    4    4    0    0 -0.52194251518E-02  0.52873592459E-02 -0.12759142611E-01  0.14773469730E-01  0.51100000000E-03 0. -1.
</event>
<event>
 8    1  0.2123879E+004  0.1043930E+01  0.7957747E-01            NaN
         13   -1    0    0    0    0  0.00000000000E+00  0.00000000000E+00  0.74505805969E-08  0.10566000000E+00  0.10566000000E+00 0. -1.
     999900   -1    0    0    0    0 -0.00000000000E+00 -0.00000000000E+00 -0.74505805969E-08  0.93827000000E+00  0.93827000000E+00 0. -1.
     999902    2    1    2    0    0 -0.12565308483E-01  0.29211518760E-02 -0.30176796726E-02  0.10306813587E+01  0.10305962045E+01 0.  0.
     999903    2    3    3    0    0 -0.35554926475E-01  0.57514144273E-01  0.11526068007E+00  0.14079446267E+00  0.44339900307E-01 0.  0.
         14    1    1    2    0    0  0.12565308483E-01 -0.29211518760E-02  0.30176796726E-02  0.13248641295E-01  0.00000000000E+00 0.  1.
     999901    1    3    3    0    0  0.22989617992E-01 -0.54592992397E-01 -0.11827835974E+00  0.88988689604E+00  0.88000000000E+00 0. -1.
        -11    1    4    4    0    0 -0.13467379047E-02  0.37826317320E-01  0.35951927206E-01  0.52205805958E-01  0.51100000000E-03 0.  1.
         11    1    4    4    0    0 -0.34208188570E-01  0.19687826953E-01  0.79308752866E-01  0.88588656710E-01  0.51100000000E-03 0. -1.
</event>
<event>
 8    1  0.2123879E+004  0.1043930E+01  0.7957747E-01            NaN
         13   -1    0    0    0    0  0.00000000000E+00  0.00000000000E+00  0.74505805969E-08  0.10566000000E+00  0.10566000000E+00 0.  1.
     999900   -1    0    0    0    0 -0.00000000000E+00 -0.00000000000E+00 -0.74505805969E-08  0.93827000000E+00  0.93827000000E+00 0.  1.
     999902    2    1    2    0    0 -0.10856853961E-01  0.57864938684E-02  0.71950695100E-02  0.10296778488E+01  0.10295792094E+01 0.  0.
     999903    2    3    3    0    0 -0.36294789837E-01 -0.16161681029E-01  0.12740863064E+00  0.14086959542E+00  0.45086273403E-01 0.  0.
         14    1    1    2    0    0  0.10856853961E-01 -0.57864938684E-02 -0.71950695100E-02  0.14252151222E-01  0.00000000000E+00 0. -1.
     999901    1    3    3    0    0  0.25437935876E-01  0.21948174897E-01 -0.12021356113E+00  0.88880825336E+00  0.88000000000E+00 0.  1.
        -11    1    4    4    0    0  0.30222274810E-02 -0.46255094618E-02  0.70633453377E-01  0.70851076588E-01  0.51100000000E-03 0. -1.
         11    1    4    4    0    0 -0.39317017318E-01 -0.11536171567E-01  0.56775177259E-01  0.70018518829E-01  0.51100000000E-03 0.  1.
</event>
<event>
 8    1  0.2123879E+004  0.1043930E+01  0.7957747E-01            NaN
         13   -1    0    0    0    0  0.00000000000E+00  0.00000000000E+00  0.74505805969E-08  0.10566000000E+00  0.10566000000E+00 0.  1.
     999900   -1    0    0    0    0 -0.00000000000E+00 -0.00000000000E+00 -0.74505805969E-08  0.93827000000E+00  0.93827000000E+00 0. -1.
     999902    2    1    2    0    0 -0.11605017128E-01 -0.69589197446E-02  0.19105511231E-02  0.10302642328E+01  0.10301735952E+01 0.  0.
     999903    2    3    3    0    0  0.15931267627E-01  0.73268490010E-01 -0.10865965313E+00  0.13929820973E+00  0.44440905705E-01 0.  0.
         14    1    1    2    0    0  0.11605017128E-01  0.69589197446E-02 -0.19105511231E-02  0.13665767163E-01  0.00000000000E+00 0.  1.
     999901    1    3    3    0    0 -0.27536284755E-01 -0.80227409755E-01  0.11057020426E+00  0.89096602310E+00  0.88000000000E+00 0.  1.
        -11    1    4    4    0    0 -0.91075231648E-02  0.51088964145E-01 -0.51783751218E-01  0.73313349717E-01  0.51100000000E-03 0. -1.
         11    1    4    4    0    0  0.25038790792E-01  0.22179525866E-01 -0.56875901914E-01  0.65984860017E-01  0.51100000000E-03 0.  1.
</event>
<event>
 8    1  0.2123879E+004  0.1043930E+01  0.7957747E-01            NaN
         13   -1    0    0    0    0  0.00000000000E+00  0.00000000000E+00  0.74505805969E-08  0.10566000000E+00  0.10566000000E+00 0. -1.
     999900   -1    0    0    0    0 -0.00000000000E+00 -0.00000000000E+00 -0.74505805969E-08  0.93827000000E+00  0.93827000000E+00 0. -1.
     999902    2    1    2    0    0  0.13585752844E-01  0.23421437903E-02 -0.80114436340E-02  0.10279850463E+01  0.10278613788E+01 0.  0.
     999903    2    3    3    0    0  0.11088597559E+00 -0.29176422618E-01  0.64272033717E-01  0.13911742152E+00  0.45560941943E-01 0.  0.
         14    1    1    2    0    0 -0.13585752844E-01 -0.23421437903E-02  0.80114436340E-02  0.15944953652E-01  0.00000000000E+00 0.  1.
     999901    1    3    3    0    0 -0.97300222751E-01  0.31518566409E-01 -0.72283477351E-01  0.88886762483E+00  0.88000000000E+00 0. -1.
        -11    1    4    4    0    0  0.71600929185E-01 -0.12939233350E-01  0.63538294959E-01  0.96599652521E-01  0.51100000000E-03 0.  1.
         11    1    4    4    0    0  0.39285046410E-01 -0.16237189269E-01  0.73373875784E-03  0.42517768995E-01  0.51100000000E-03 0. -1.
</event>
<event>
 8    1  0.2123879E+004  0.1043930E+01  0.7957747E-01            NaN
         13   -1    0    0    0    0  0.00000000000E+00  0.00000000000E+00  0.74505805969E-08  0.10566000000E+00  0.10566000000E+00 0.  1.
     999900   -1    0    0    0    0 -0.00000000000E+00 -0.00000000000E+00 -0.74505805969E-08  0.93827000000E+00  0.93827000000E+00 0. -1.
     999902    2    1    2    0    0 -0.96108695317E-02 -0.90312398083E-02 -0.46526924678E-02  0.10299450205E+01  0.10298500694E+01 0.  0.
     999903    2    3    3    0    0  0.57115224988E-01  0.11170527347E+00 -0.35186161531E-01  0.13867515669E+00  0.47460679238E-01 0.  0.
         14    1    1    2    0    0  0.96108695317E-02  0.90312398083E-02  0.46526924678E-02  0.13984979543E-01  0.00000000000E+00 0.  1.
     999901    1    3    3    0    0 -0.66726094520E-01 -0.12073651327E+00  0.30533469063E-01  0.89126986377E+00  0.88000000000E+00 0. -1.
        -11    1    4    4    0    0  0.60960125899E-01  0.73119418469E-01 -0.21934730807E-01  0.97693294773E-01  0.51100000000E-03 0.  1.
         11    1    4    4    0    0 -0.38449009115E-02  0.38585854997E-01 -0.13251430724E-01  0.40981861916E-01  0.51100000000E-03 0. -1.
</event>
<event>
 8    1  0.2123879E+004  0.1043930E+01  0.7957747E-01            NaN
         13   -1    0    0    0    0  0.00000000000E+00  0.00000000000E+00  0.74505805969E-08  0.10566000000E+00  0.10566000000E+00 0. -1.
     999900   -1    0    0    0    0 -0.00000000000E+00 -0.00000000000E+00 -0.74505805969E-08  0.93827000000E+00  0.93827000000E+00 0.  1.
     999902    2    1    2    0    0 -0.33215879134E-02 -0.52903003348E-02 -0.12361162838E-01  0.10300801419E+01  0.10299870291E+01 0.  0.
     999903    2    3    3    0    0  0.58630781998E-02 -0.10512164707E+00  0.79941394813E-01  0.13959127723E+00  0.44834826920E-01 0.  0.
         14    1    1    2    0    0  0.33215879134E-02  0.52903003348E-02  0.12361162838E-01  0.13849858144E-01  0.00000000000E+00 0. -1.
     999901    1    3    3    0    0 -0.91846661132E-02  0.99831346732E-01 -0.92302557651E-01  0.89048886463E+00  0.88000000000E+00 0.  1.
        -11    1    4    4    0    0 -0.16198718375E-01 -0.68899485940E-01  0.39848122048E-01  0.81226052419E-01  0.51100000000E-03 0.  1.
         11    1    4    4    0    0  0.22061796575E-01 -0.36222161126E-01  0.40093272765E-01  0.58365224807E-01  0.51100000000E-03 0. -1.
</event>
<event>
 8    1  0.2123879E+004  0.1043930E+01  0.7957747E-01            NaN
         13   -1    0    0    0    0  0.00000000000E+00  0.00000000000E+00  0.74505805969E-08  0.10566000000E+00  0.10566000000E+00 0. -1.
     999900   -1    0    0    0    0 -0.00000000000E+00 -0.00000000000E+00 -0.74505805969E-08  0.93827000000E+00  0.93827000000E+00 0.  1.
     999902    2    1    2    0    0 -0.41240693868E-02 -0.68564844582E-02 -0.18133902142E-01  0.10241093609E+01  0.10239175384E+01 0.  0.
     999903    2    3    3    0    0  0.49641892988E-01 -0.73073678806E-01 -0.94187350756E-01  0.13672014382E+00  0.44911697933E-01 0.  0.
         14    1    1    2    0    0  0.41240693868E-02  0.68564844582E-02  0.18133902142E-01  0.19820639100E-01  0.00000000000E+00 0. -1.
     999901    1    3    3    0    0 -0.53765962374E-01  0.66217194347E-01  0.76053448614E-01  0.88738921708E+00  0.88000000000E+00 0. -1.
        -11    1    4    4    0    0 -0.26225071376E-02 -0.44210877453E-02 -0.26652308203E-01  0.27148300391E-01  0.51100000000E-03 0. -1.
         11    1    4    4    0    0  0.52264400125E-01 -0.68652591060E-01 -0.67535042553E-01  0.10957184343E+00  0.51100000000E-03 0.  1.
</event>
<event>
 8    1  0.2123879E+004  0.1043930E+01  0.7957747E-01            NaN
         13   -1    0    0    0    0  0.00000000000E+00  0.00000000000E+00  0.74505805969E-08  0.10566000000E+00  0.10566000000E+00 0. -1.
     999900   -1    0    0    0    0 -0.00000000000E+00 -0.00000000000E+00 -0.74505805969E-08  0.93827000000E+00  0.93827000000E+00 0. -1.
     999902    2    1    2    0    0 -0.22460620640E-02 -0.43045461715E-02  0.13120187755E-01  0.10299402452E+01  0.10298452289E+01 0.  0.
     999903    2    3    3    0    0  0.42424412015E-01  0.71012655625E-01 -0.10158791116E+00  0.13818574979E+00  0.43961002690E-01 0.  0.
         14    1    1    2    0    0  0.22460620640E-02  0.43045461715E-02 -0.13120187755E-01  0.13989754796E-01  0.00000000000E+00 0.  1.
     999901    1    3    3    0    0 -0.44670474079E-01 -0.75317201797E-01  0.11470809891E+00  0.89175449542E+00  0.88000000000E+00 0.  1.
        -11    1    4    4    0    0  0.46741981025E-01  0.41631178034E-01 -0.79426662585E-01  0.10112775892E+00  0.51100000000E-03 0. -1.
         11    1    4    4    0    0 -0.43175690100E-02  0.29381477591E-01 -0.22161248570E-01  0.37057990862E-01  0.51100000000E-03 0.  1.
</event>
<event>
 8    1  0.2123879E+004  0.1043930E+01  0.7957747E-01            NaN
         13   -1    0    0    0    0  0.00000000000E+00  0.00000000000E+00  0.74505805969E-08  0.10566000000E+00  0.10566000000E+00 0.  1.
     999900   -1    0    0    0    0 -0.00000000000E+00 -0.00000000000E+00 -0.74505805969E-08  0.93827000000E+00  0.93827000000E+00 0.  1.
     999902    2    1    2    0    0  0.36939845904E-03  0.25431173258E-02 -0.14561753085E-01  0.10291432304E+01  0.10290369965E+01 0.  0.
     999903    2    3    3    0    0  0.47625783540E-01  0.73966197954E-01  0.96313021819E-01  0.13806094576E+00  0.45226240985E-01 0.  0.
         14    1    1    2    0    0 -0.36939845904E-03 -0.25431173258E-02  0.14561753085E-01  0.14786769554E-01  0.00000000000E+00 0.  1.
     999901    1    3    3    0    0 -0.47256385081E-01 -0.71423080628E-01 -0.11087477490E+00  0.89108228469E+00  0.88000000000E+00 0. -1.
        -11    1    4    4    0    0  0.59378247448E-02  0.46564433135E-01  0.32666878427E-01  0.57191697501E-01  0.51100000000E-03 0. -1.
         11    1    4    4    0    0  0.41687958795E-01  0.27401764819E-01  0.63646143393E-01  0.80869248256E-01  0.51100000000E-03 0.  1.
</event>
<event>
 8    1  0.2123879E+004  0.1043930E+01  0.7957747E-01            NaN
         13   -1    0    0    0    0  0.00000000000E+00  0.00000000000E+00  0.74505805969E-08  0.10566000000E+00  0.10566000000E+00 0. -1.
     999900   -1    0    0    0    0 -0.00000000000E+00 -0.00000000000E+00 -0.74505805969E-08  0.93827000000E+00  0.93827000000E+00 0. -1.
     999902    2    1    2    0    0  0.93487289623E-02 -0.98002480360E-02 -0.18711123985E-02  0.10302572294E+01  0.10301664982E+01 0.  0.
     999903    2    3    3    0    0  0.83478610728E-01  0.71636208626E-04 -0.10476836532E+00  0.14111126941E+00  0.44354215160E-01 0.  0.
         14    1    1    2    0    0 -0.93487289623E-02  0.98002480360E-02  0.18711123985E-02  0.13672770618E-01  0.00000000000E+00 0.  1.
     999901    1    3    3    0    0 -0.74129881766E-01 -0.98718842446E-02  0.10289725292E+00  0.88914595997E+00  0.88000000000E+00 0.  1.
        -11    1    4    4    0    0  0.57526224133E-01 -0.20920324411E-02 -0.36802688194E-01  0.68325266498E-01  0.51100000000E-03 0. -1.
         11    1    4    4    0    0  0.25952386595E-01  0.21636686498E-02 -0.67965677127E-01  0.72786002915E-01  0.51100000000E-03 0.  1.
</event>
<event>
 8    1  0.2123879E+004  0.1043930E+01  0.7957747E-01            NaN
         13   -1    0    0    0    0  0.00000000000E+00  0.00000000000E+00  0.74505805969E-08  0.10566000000E+00  0.10566000000E+00 0. -1.
     999900   -1    0    0    0    0 -0.00000000000E+00 -0.00000000000E+00 -0.74505805969E-08  0.93827000000E+00  0.93827000000E+00 0.  1.
     999902    2    1    2    0    0  0.91917197029E-02  0.13625980798E-01 -0.84993533964E-02  0.10254261066E+01  0.10252591409E+01 0.  0.
     999903    2    3    3    0    0 -0.95071215331E-01  0.54132240829E-01  0.64429537636E-01  0.13535299729E+00  0.46908773948E-01 0.  0.
         14    1    1    2    0    0 -0.91917197029E-02 -0.13625980798E-01  0.84993533964E-02  0.18503893427E-01  0.00000000000E+00 0. -1.
     999901    1    3    3    0    0  0.10426293503E+00 -0.40506260031E-01 -0.72928891032E-01  0.89007310928E+00  0.88000000000E+00 0. -1.
        -11    1    4    4    0    0 -0.27000317060E-01  0.42517842151E-02 -0.27656109024E-02  0.27477345488E-01  0.51100000000E-03 0.  1.
         11    1    4    4    0    0 -0.68070898271E-01  0.49880456614E-01  0.67195148539E-01  0.10787565180E+00  0.51100000000E-03 0. -1.
</event>
<event>
 8    1  0.2123879E+004  0.1043930E+01  0.7957747E-01            NaN
         13   -1    0    0    0    0  0.00000000000E+00  0.00000000000E+00  0.74505805969E-08  0.10566000000E+00  0.10566000000E+00 0. -1.
     999900   -1    0    0    0    0 -0.00000000000E+00 -0.00000000000E+00 -0.74505805969E-08  0.93827000000E+00  0.93827000000E+00 0.  1.
     999902    2    1    2    0    0 -0.45992166956E-02  0.23412898406E-01 -0.13599310494E-01  0.10164662448E+01  0.10160951574E+01 0.  0.
     999903    2    3    3    0    0  0.10848719058E+00  0.12683695840E-01 -0.50061105611E-01  0.12841606949E+00  0.45323569457E-01 0.  0.
         14    1    1    2    0    0  0.45992166956E-02 -0.23412898406E-01  0.13599310494E-01  0.27463755241E-01  0.00000000000E+00 0. -1.
     999901    1    3    3    0    0 -0.11308640727E+00  0.10729202567E-01  0.36461795117E-01  0.88805017527E+00  0.88000000000E+00 0.  1.
        -11    1    4    4    0    0  0.10891045655E+00  0.46814488664E-02 -0.41409028844E-01  0.11661205898E+00  0.51100000000E-03 0.  1.
         11    1    4    4    0    0 -0.42326596954E-03  0.80022469735E-02 -0.86520767672E-02  0.11804010509E-01  0.51100000000E-03 0. -1.
</event>
<event>
 8    1  0.2123879E+004  0.1043930E+01  0.7957747E-01            NaN
         13   -1    0    0    0    0  0.00000000000E+00  0.00000000000E+00  0.74505805969E-08  0.10566000000E+00  0.10566000000E+00 0. -1.
     999900   -1    0    0    0    0 -0.00000000000E+00 -0.00000000000E+00 -0.74505805969E-08  0.93827000000E+00  0.93827000000E+00 0.  1.
     999902    2    1    2    0    0  0.17890611557E-01 -0.47110928132E-02  0.18368805688E-02  0.10253385367E+01  0.10251699724E+01 0.  0.
     999903    2    3    3    0    0  0.12258309516E+00  0.31555724014E-01 -0.32008429557E-01  0.13774555388E+00  0.43896686823E-01 0.  0.
         14    1    1    2    0    0 -0.17890611557E-01  0.47110928132E-02 -0.18368805688E-02  0.18591463300E-01  0.00000000000E+00 0.  1.
     999901    1    3    3    0    0 -0.10469248361E+00 -0.36266816827E-01  0.33845310125E-01  0.88759298282E+00  0.88000000000E+00 0. -1.
        -11    1    4    4    0    0  0.11026705324E+00  0.36068959425E-01 -0.16113849707E-01  0.11713116638E+00  0.51100000000E-03 0. -1.
         11    1    4    4    0    0  0.12316041925E-01 -0.45132354118E-02 -0.15894579850E-01  0.20614387505E-01  0.51100000000E-03 0.  1.
</event>
<event>
 8    1  0.2123879E+004  0.1043930E+01  0.7957747E-01            NaN
         13   -1    0    0    0    0  0.00000000000E+00  0.00000000000E+00  0.74505805969E-08  0.10566000000E+00  0.10566000000E+00 0. -1.
     999900   -1    0    0    0    0 -0.00000000000E+00 -0.00000000000E+00 -0.74505805969E-08  0.93827000000E+00  0.93827000000E+00 0. -1.
     999902    2    1    2    0    0  0.13239419664E-01  0.21213661373E-02 -0.23659709377E-02  0.10303145586E+01  0.10302245917E+01 0.  0.
     999903    2    3    3    0    0 -0.37973477125E-01  0.11067991976E+00 -0.62550647508E-01  0.14012923197E+00  0.45073146629E-01 0.  0.
         14    1    1    2    0    0 -0.13239419664E-01 -0.21213661373E-02  0.23659709377E-02  0.13615441447E-01  0.00000000000E+00 0.  1.
     999901    1    3    3    0    0  0.51212896789E-01 -0.10855855362E+00  0.60184676570E-01  0.89018532658E+00  0.88000000000E+00 0.  1.
        -11    1    4    4    0    0 -0.32528559580E-01  0.53646564878E-01 -0.12330830215E-01  0.63940375400E-01  0.51100000000E-03 0. -1.
         11    1    4    4    0    0 -0.54449175453E-02  0.57033354882E-01 -0.50219817292E-01  0.76188856574E-01  0.51100000000E-03 0.  1.
</event>
<event>
 8    1  0.2123879E+004  0.1043930E+01  0.7957747E-01            NaN
         13   -1    0    0    0    0  0.00000000000E+00  0.00000000000E+00  0.74505805969E-08  0.10566000000E+00  0.10566000000E+00 0.  1.
     999900   -1    0    0    0    0 -0.00000000000E+00 -0.00000000000E+00 -0.74505805969E-08  0.93827000000E+00  0.93827000000E+00 0. -1.
     999902    2    1    2    0    0 -0.10856922921E-01 -0.17426848744E-02 -0.77132533873E-02  0.10304985442E+01  0.10304110081E+01 0.  0.
     999903    2    3    3    0    0 -0.12266606750E+00 -0.54287677169E-01 -0.11288445568E-01  0.14186192390E+00  0.44757797538E-01 0.  0.
         14    1    1    2    0    0  0.10856922921E-01  0.17426848744E-02  0.77132533873E-02  0.13431455755E-01  0.00000000000E+00 0.  1.
     999901    1    3    3    0    0  0.11180914458E+00  0.52544992294E-01  0.35751921802E-02  0.88863662035E+00  0.88000000000E+00 0.  1.
        -11    1    4    4    0    0 -0.35110360819E-01 -0.21266656718E-01  0.16503409683E-01  0.44245132805E-01  0.51100000000E-03 0.  1.
         11    1    4    4    0    0 -0.87555706679E-01 -0.33021020451E-01 -0.27791855250E-01  0.97616791091E-01  0.51100000000E-03 0. -1.
</event>
<event>
 8    1  0.2123879E+004  0.1043930E+01  0.7957747E-01            NaN
         13   -1    0    0    0    0  0.00000000000E+00  0.00000000000E+00  0.74505805969E-08  0.10566000000E+00  0.10566000000E+00 0. -1.
     999900   -1    0    0    0    0 -0.00000000000E+00 -0.00000000000E+00 -0.74505805969E-08  0.93827000000E+00  0.93827000000E+00 0. -1.
     999902    2    1    2    0    0 -0.10340797206E-01  0.86659682713E-02  0.63519267423E-02  0.10290176539E+01  0.10289095947E+01 0.  0.
     999903    2    3    3    0    0 -0.40024709254E-01 -0.10891707399E+00  0.62995094355E-01  0.13889667622E+00  0.43116103669E-01 0.  0.
         14    1    1    2    0    0  0.10340797206E-01 -0.86659682713E-02 -0.63519267423E-02  0.14912346102E-01  0.00000000000E+00 0.  1.
     999901    1    3    3    0    0  0.29683912048E-01  0.11758304226E+00 -0.56643167613E-01  0.89012097768E+00  0.88000000000E+00 0. -1.
        -11    1    4    4    0    0  0.66531959913E-02 -0.38440040592E-01  0.15916160378E-01  0.42136528331E-01  0.51100000000E-03 0.  1.
         11    1    4    4    0    0 -0.46677905245E-01 -0.70477033396E-01  0.47078933977E-01  0.96760147891E-01  0.51100000000E-03 0. -1.
</event>
<event>
 8    1  0.2123879E+004  0.1043930E+01  0.7957747E-01            NaN
         13   -1    0    0    0    0  0.00000000000E+00  0.00000000000E+00  0.74505805969E-08  0.10566000000E+00  0.10566000000E+00 0. -1.
     999900   -1    0    0    0    0 -0.00000000000E+00 -0.00000000000E+00 -0.74505805969E-08  0.93827000000E+00  0.93827000000E+00 0.  1.
     999902    2    1    2    0    0  0.53898638693E-02  0.97422528904E-02 -0.82072059554E-02  0.10300981399E+01  0.10300052706E+01 0.  0.
     999903    2    3    3    0    0 -0.34965858137E-01 -0.83780029107E-01 -0.96438540550E-01  0.13983987967E+00  0.44867530906E-01 0.  0.
         14    1    1    2    0    0 -0.53898638693E-02 -0.97422528904E-02  0.82072059554E-02  0.13831860088E-01  0.00000000000E+00 0. -1.
     999901    1    3    3    0    0  0.40355722006E-01  0.93522281997E-01  0.88231334595E-01  0.89025826024E+00  0.88000000000E+00 0. -1.
        -11    1    4    4    0    0 -0.12207910439E-01 -0.72713422735E-01 -0.83563420046E-01  0.11144227750E+00  0.51100000000E-03 0. -1.
         11    1    4    4    0    0 -0.22757947697E-01 -0.11066606372E-01 -0.12875120505E-01  0.28397602170E-01  0.51100000000E-03 0.  1.
</event>
<event>
 8    1  0.2123879E+004  0.1043930E+01  0.7957747E-01            NaN
         13   -1    0    0    0    0  0.00000000000E+00  0.00000000000E+00  0.74505805969E-08  0.10566000000E+00  0.10566000000E+00 0.  1.
     999900   -1    0    0    0    0 -0.00000000000E+00 -0.00000000000E+00 -0.74505805969E-08  0.93827000000E+00  0.93827000000E+00 0.  1.
     999902    2    1    2    0    0  0.27630127240E-02 -0.14212719999E-01 -0.45108808644E-02  0.10287647867E+01  0.10286530040E+01 0.  0.
     999903    2    3    3    0    0 -0.23427076839E-01  0.10605503546E+00  0.69717173423E-01  0.13710338354E+00  0.46263971212E-01 0.  0.
         14    1    1    2    0    0 -0.27630127240E-02  0.14212719999E-01  0.45108808644E-02  0.15165213327E-01  0.00000000000E+00 0. -1.
     999901    1    3    3    0    0  0.26190089563E-01 -0.12026775546E+00 -0.74228054287E-01  0.89166140313E+00  0.88000000000E+00 0. -1.
        -11    1    4    4    0    0 -0.38270477748E-02  0.94730765685E-01  0.61535358658E-01  0.11302842894E+00  0.51100000000E-03 0.  1.
         11    1    4    4    0    0 -0.19600029064E-01  0.11324269775E-01  0.81818147649E-02  0.24074954602E-01  0.51100000000E-03 0. -1.
</event>
<event>
 8    1  0.2123879E+004  0.1043930E+01  0.7957747E-01            NaN
         13   -1    0    0    0    0  0.00000000000E+00  0.00000000000E+00  0.74505805969E-08  0.10566000000E+00  0.10566000000E+00 0.  1.
     999900   -1    0    0    0    0 -0.00000000000E+00 -0.00000000000E+00 -0.74505805969E-08  0.93827000000E+00  0.93827000000E+00 0. -1.
     999902    2    1    2    0    0 -0.92765361662E-02  0.85747903974E-02 -0.53352374909E-02  0.10302170166E+01  0.10301257474E+01 0.  0.
     999903    2    3    3    0    0  0.96341424934E-01 -0.27496427738E-01 -0.86966785343E-01  0.13941962324E+00  0.42858906824E-01 0.  0.
         14    1    1    2    0    0  0.92765361662E-02 -0.85747903974E-02  0.53352374909E-02  0.13712983362E-01  0.00000000000E+00 0.  1.
     999901    1    3    3    0    0 -0.10561796110E+00  0.36071218136E-01  0.81631547852E-01  0.89079739340E+00  0.88000000000E+00 0.  1.
        -11    1    4    4    0    0  0.48850181009E-01 -0.25881647249E-01 -0.23352041474E-01  0.60014821594E-01  0.51100000000E-03 0. -1.
         11    1    4    4    0    0  0.47491243924E-01 -0.16147804891E-02 -0.63614743869E-01  0.79404801643E-01  0.51100000000E-03 0.  1.
</event>
<event>
 8    1  0.2123879E+004  0.1043930E+01  0.7957747E-01            NaN
         13   -1    0    0    0    0  0.00000000000E+00  0.00000000000E+00  0.74505805969E-08  0.10566000000E+00  0.10566000000E+00 0. -1.
     999900   -1    0    0    0    0 -0.00000000000E+00 -0.00000000000E+00 -0.74505805969E-08  0.93827000000E+00  0.93827000000E+00 0. -1.
     999902    2    1    2    0    0 -0.19434640281E-02  0.62604726537E-02  0.11949440515E-01  0.10303006310E+01  0.10302104788E+01 0.  0.
     999903    2    3    3    0    0  0.21790001175E-01  0.89063957266E-01  0.98506870335E-01  0.14186836962E+00  0.44898086373E-01 0.  0.
         14    1    1    2    0    0  0.19434640281E-02 -0.62604726537E-02 -0.11949440515E-01  0.13629368984E-01  0.00000000000E+00 0.  1.
     999901    1    3    3    0    0 -0.23733465203E-01 -0.82803484612E-01 -0.86557429819E-01  0.88843226140E+00  0.88000000000E+00 0. -1.
        -11    1    4    4    0    0 -0.11715800712E-01  0.40762663277E-01  0.50650418698E-01  0.66064973617E-01  0.51100000000E-03 0.  1.
         11    1    4    4    0    0  0.33505801887E-01  0.48301293989E-01  0.47856451637E-01  0.75803396002E-01  0.51100000000E-03 0. -1.
</event>
<event>
 8    1  0.2123879E+004  0.1043930E+01  0.7957747E-01            NaN
         13   -1    0    0    0    0  0.00000000000E+00  0.00000000000E+00  0.74505805969E-08  0.10566000000E+00  0.10566000000E+00 0.  1.
     999900   -1    0    0    0    0 -0.00000000000E+00 -0.00000000000E+00 -0.74505805969E-08  0.93827000000E+00  0.93827000000E+00 0.  1.
     999902    2    1    2    0    0 -0.61884535069E-03  0.13407569951E-01 -0.43644483905E-02  0.10298163785E+01  0.10297196605E+01 0.  0.
     999903    2    3    3    0    0  0.94243979841E-01 -0.90887466669E-01  0.12842937990E-02  0.13857661361E+00  0.45380272095E-01 0.  0.
         14    1    1    2    0    0  0.61884535069E-03 -0.13407569951E-01  0.43644483905E-02  0.14113621481E-01  0.00000000000E+00 0. -1.
     999901    1    3    3    0    0 -0.94862825191E-01  0.10429503662E+00 -0.56487421895E-02  0.89123976491E+00  0.88000000000E+00 0. -1.
        -11    1    4    4    0    0  0.33467239468E-01 -0.58106496613E-01 -0.12357752655E-01  0.68186481343E-01  0.51100000000E-03 0. -1.
         11    1    4    4    0    0  0.60776740373E-01 -0.32780970056E-01  0.13642046454E-01  0.70390132268E-01  0.51100000000E-03 0.  1.
</event>
<event>
 8    1  0.2123879E+004  0.1043930E+01  0.7957747E-01            NaN
         13   -1    0    0    0    0  0.00000000000E+00  0.00000000000E+00  0.74505805969E-08  0.10566000000E+00  0.10566000000E+00 0. -1.
     999900   -1    0    0    0    0 -0.00000000000E+00 -0.00000000000E+00 -0.74505805969E-08  0.93827000000E+00  0.93827000000E+00 0.  1.
     999902    2    1    2    0    0  0.92029547289E-02  0.25261229264E-02  0.10330614195E-01  0.10298659585E+01  0.10297699235E+01 0.  0.
     999903    2    3    3    0    0  0.51075803759E-01 -0.42045051127E-01  0.11674431694E+00  0.14134820340E+00  0.44424711746E-01 0.  0.
         14    1    1    2    0    0 -0.92029547289E-02 -0.25261229264E-02 -0.10330614195E-01  0.14064041469E-01  0.00000000000E+00 0.  1.
     999901    1    3    3    0    0 -0.41872849030E-01  0.44571174054E-01 -0.10641370275E+00  0.88851775513E+00  0.88000000000E+00 0.  1.
        -11    1    4    4    0    0  0.27157160763E-01 -0.40468452750E-01  0.47444351849E-01  0.68017899791E-01  0.51100000000E-03 0.  1.
         11    1    4    4    0    0  0.23918642996E-01 -0.15765983776E-02  0.69299965092E-01  0.73330303613E-01  0.51100000000E-03 0. -1.
</event>
<event>
 8    1  0.2123879E+004  0.1043930E+01  0.7957747E-01            NaN
         13   -1    0    0    0    0  0.00000000000E+00  0.00000000000E+00  0.74505805969E-08  0.10566000000E+00  0.10566000000E+00 0. -1.
     999900   -1    0    0    0    0 -0.00000000000E+00 -0.00000000000E+00 -0.74505805969E-08  0.93827000000E+00  0.93827000000E+00 0. -1.
     999902    2    1    2    0    0  0.19780990931E-02 -0.11790675538E-01  0.22280849002E-02  0.10317686979E+01  0.10316970237E+01 0.  0.
     999903    2    3    3    0    0  0.60219965154E-01  0.52521589196E-01 -0.10713975720E+00  0.14076392396E+00  0.44165520269E-01 0.  0.
         14    1    1    2    0    0 -0.19780990931E-02  0.11790675538E-01 -0.22280849002E-02  0.12161302068E-01  0.00000000000E+00 0. -1.
     999901    1    3    3    0    0 -0.58241866061E-01 -0.64312264734E-01  0.10936784210E+00  0.89100477397E+00  0.88000000000E+00 0.  1.
        -11    1    4    4    0    0  0.49547540838E-01  0.15165432662E-01 -0.52979750114E-01  0.74108462364E-01  0.51100000000E-03 0. -1.
         11    1    4    4    0    0  0.10672424316E-01  0.37356156535E-01 -0.54160007087E-01  0.66655461595E-01  0.51100000000E-03 0.  1.
</event>
<event>
 7    1  0.2123879E+004  0.1043930E+01  0.7957747E-01            NaN
         13   -1    0    0    0    0  0.00000000000E+00  0.00000000000E+00  0.74505805969E-08  0.10566000000E+00  0.10566000000E+00 0. -1.
     999900   -1    0    0    0    0 -0.00000000000E+00 -0.00000000000E+00 -0.74505805969E-08  0.93827000000E+00  0.93827000000E+00 0. -1.
     999903    2    1    2    0    0 -0.84854222750E-01  0.27600427404E-01  0.30586517419E-01  0.10462750807E+00  0.45269831957E-01 0.  0.
         14    1    1    2    0    0  0.63692301335E-02 -0.87692805792E-02  0.50730491950E-01  0.51875333135E-01  0.00000000000E+00 0. -1.
     999901    1    1    2    0    0  0.78484992617E-01 -0.18831146824E-01 -0.81317009369E-01  0.88742715880E+00  0.88000000000E+00 0.  1.
        -11    1    3    3    0    0 -0.51655262675E-01  0.25672392807E-03 -0.32472849046E-03  0.51659448688E-01  0.51100000000E-03 0.  1.
         11    1    3    3    0    0 -0.33198960076E-01  0.27343703475E-01  0.30911245910E-01  0.52968059381E-01  0.51100000000E-03 0. -1.
</event>
<event>
 8    1  0.2123879E+004  0.1043930E+01  0.7957747E-01            NaN
         13   -1    0    0    0    0  0.00000000000E+00  0.00000000000E+00  0.74505805969E-08  0.10566000000E+00  0.10566000000E+00 0. -1.
     999900   -1    0    0    0    0 -0.00000000000E+00 -0.00000000000E+00 -0.74505805969E-08  0.93827000000E+00  0.93827000000E+00 0.  1.
     999902    2    1    2    0    0  0.29687096532E-02  0.87006251026E-02 -0.11964335713E-01  0.10288416123E+01  0.10287309676E+01 0.  0.
     999903    2    3    3    0    0  0.11948145831E+00  0.21194798172E-01 -0.53956450435E-01  0.14008142943E+00  0.44569832597E-01 0.  0.
         14    1    1    2    0    0 -0.29687096532E-02 -0.87006251026E-02  0.11964335713E-01  0.15088387695E-01  0.00000000000E+00 0. -1.
     999901    1    3    3    0    0 -0.11651274866E+00 -0.12494173070E-01  0.41992114722E-01  0.88876018287E+00  0.88000000000E+00 0. -1.
        -11    1    4    4    0    0  0.99270990235E-01  0.19028835570E-02 -0.31302917534E-01  0.10410804116E+00  0.51100000000E-03 0.  1.
         11    1    4    4    0    0  0.20210468079E-01  0.19291914616E-01 -0.22653532902E-01  0.35973388268E-01  0.51100000000E-03 0. -1.
</event>
<event>
 7    1  0.2123879E+004  0.1043930E+01  0.7957747E-01            NaN
         13   -1    0    0    0    0  0.00000000000E+00  0.00000000000E+00  0.74505805969E-08  0.10566000000E+00  0.10566000000E+00 0. -1.
     999900   -1    0    0    0    0 -0.00000000000E+00 -0.00000000000E+00 -0.74505805969E-08  0.93827000000E+00  0.93827000000E+00 0.  1.
     999903    2    1    2    0    0 -0.79365114631E-02 -0.11433241791E+00  0.12513661408E-03  0.12305539484E+00  0.44807639308E-01 0.  0.
         14    1    1    2    0    0  0.32730389978E-01 -0.23892495503E-02 -0.49529024421E-03  0.32821216522E-01  0.00000000000E+00 0. -1.
     999901    1    1    2    0    0 -0.24793878515E-01  0.11672166746E+00  0.37015363013E-03  0.88805338864E+00  0.88000000000E+00 0. -1.
        -11    1    3    3    0    0 -0.14850236395E-01 -0.33930837686E-01 -0.16680359721E-01  0.40624214312E-01  0.51100000000E-03 0. -1.
         11    1    3    3    0    0  0.69137249317E-02 -0.80401580221E-01  0.16805496335E-01  0.82431180524E-01  0.51100000000E-03 0.  1.
</event>
<event>
 8    1  0.2123879E+004  0.1043930E+01  0.7957747E-01            NaN
         13   -1    0    0    0    0  0.00000000000E+00  0.00000000000E+00  0.74505805969E-08  0.10566000000E+00  0.10566000000E+00 0. -1.
     999900   -1    0    0    0    0 -0.00000000000E+00 -0.00000000000E+00 -0.74505805969E-08  0.93827000000E+00  0.93827000000E+00 0.  1.
     999902    2    1    2    0    0 -0.13190113960E-02 -0.14774563915E-01 -0.10753190014E-02  0.10290577493E+01  0.10289502746E+01 0.  0.
     999903    2    3    3    0    0  0.12823457640E+00 -0.11548570767E-01 -0.28285667380E-01  0.13915048323E+00  0.44556727150E-01 0.  0.
         14    1    1    2    0    0  0.13190113960E-02  0.14774563915E-01  0.10753190014E-02  0.14872250701E-01  0.00000000000E+00 0. -1.
     999901    1    3    3    0    0 -0.12955358779E+00 -0.32259931487E-02  0.27210348379E-01  0.88990726607E+00  0.88000000000E+00 0. -1.
        -11    1    4    4    0    0  0.59242269537E-01 -0.26046148526E-01 -0.50271928214E-02  0.64912110901E-01  0.51100000000E-03 0.  1.
         11    1    4    4    0    0  0.68992306858E-01  0.14497577759E-01 -0.23258474559E-01  0.74238372331E-01  0.51100000000E-03 0. -1.
</event>
<event>
 8    1  0.2123879E+004  0.1043930E+01  0.7957747E-01            NaN
         13   -1    0    0    0    0  0.00000000000E+00  0.00000000000E+00  0.74505805969E-08  0.10566000000E+00  0.10566000000E+00 0. -1.
     999900   -1    0    0    0    0 -0.00000000000E+00 -0.00000000000E+00 -0.74505805969E-08  0.93827000000E+00  0.93827000000E+00 0.  1.
     999902    2    1    2    0    0  0.46915980207E-02  0.72014702853E-02  0.11831287188E-01  0.10293063335E+01  0.10292024468E+01 0.  0.
     999903    2    3    3    0    0  0.16210817001E-01  0.74058642715E-01 -0.10744603206E+00  0.13867192318E+00  0.44020214947E-01 0.  0.
         14    1    1    2    0    0 -0.46915980207E-02 -0.72014702853E-02 -0.11831287188E-01  0.14623666530E-01  0.00000000000E+00 0.  1.
     999901    1    3    3    0    0 -0.11519218981E-01 -0.66857172429E-01  0.11927731925E+00  0.89063441029E+00  0.88000000000E+00 0. -1.
        -11    1    4    4    0    0  0.19801155946E-01  0.15960900520E-01 -0.15316652540E-01  0.29693384587E-01  0.51100000000E-03 0. -1.
         11    1    4    4    0    0 -0.35903389444E-02  0.58097742195E-01 -0.92129379518E-01  0.10897853859E+00  0.51100000000E-03 0.  1.
</event>
<event>
 8    1  0.2123879E+004  0.1043930E+01  0.7957747E-01            NaN
         13   -1    0    0    0    0  0.00000000000E+00  0.00000000000E+00  0.74505805969E-08  0.10566000000E+00  0.10566000000E+00 0.  1.
     999900   -1    0    0    0    0 -0.00000000000E+00 -0.00000000000E+00 -0.74505805969E-08  0.93827000000E+00  0.93827000000E+00 0. -1.
     999902    2    1    2    0    0  0.10446033107E-01 -0.90800653461E-02  0.23992979211E-02  0.10298828001E+01  0.10297869965E+01 0.  0.
     999903    2    3    3    0    0  0.11991092618E+00  0.34603918986E-01  0.47492953077E-01  0.14088094913E+00  0.44897659286E-01 0.  0.
         14    1    1    2    0    0 -0.10446033107E-01  0.90800653461E-02 -0.23992979211E-02  0.14047199894E-01  0.00000000000E+00 0. -1.
     999901    1    3    3    0    0 -0.10946489307E+00 -0.43683984332E-01 -0.45093655156E-01  0.88900185098E+00  0.88000000000E+00 0. -1.
        -11    1    4    4    0    0  0.40055931527E-01 -0.27686294525E-02  0.32033471362E-01  0.51366792464E-01  0.51100000000E-03 0.  1.
         11    1    4    4    0    0  0.79854994653E-01  0.37372548438E-01  0.15459481715E-01  0.89514156666E-01  0.51100000000E-03 0. -1.
</event>
<event>
 8    1  0.2123879E+004  0.1043930E+01  0.7957747E-01            NaN
         13   -1    0    0    0    0  0.00000000000E+00  0.00000000000E+00  0.74505805969E-08  0.10566000000E+00  0.10566000000E+00 0.  1.
     999900   -1    0    0    0    0 -0.00000000000E+00 -0.00000000000E+00 -0.74505805969E-08  0.93827000000E+00  0.93827000000E+00 0.  1.
     999902    2    1    2    0    0  0.87749000101E-02 -0.68511452945E-02 -0.80963403108E-02  0.10301645437E+01  0.10300725699E+01 0.  0.
     999903    2    3    3    0    0  0.12443754055E+00  0.35958016601E-01 -0.35950078551E-01  0.14112781691E+00  0.42976413338E-01 0.  0.
         14    1    1    2    0    0 -0.87749000101E-02  0.68511452945E-02  0.80963403108E-02  0.13765456348E-01  0.00000000000E+00 0.  1.
     999901    1    3    3    0    0 -0.11566264054E+00 -0.42809161895E-01  0.27853738240E-01  0.88903672674E+00  0.88000000000E+00 0. -1.
        -11    1    4    4    0    0  0.40575066185E-01 -0.86223802566E-02 -0.11759797532E-01  0.43118851981E-01  0.51100000000E-03 0.  1.
         11    1    4    4    0    0  0.83862474362E-01  0.44580396858E-01 -0.24190281019E-01  0.98008964931E-01  0.51100000000E-03 0. -1.
</event>
<event>
 8    1  0.2123879E+004  0.1043930E+01  0.7957747E-01            NaN
         13   -1    0    0    0    0  0.00000000000E+00  0.00000000000E+00  0.74505805969E-08  0.10566000000E+00  0.10566000000E+00 0.  1.
     999900   -1    0    0    0    0 -0.00000000000E+00 -0.00000000000E+00 -0.74505805969E-08  0.93827000000E+00  0.93827000000E+00 0.  1.
     999902    2    1    2    0    0 -0.14456900788E-01 -0.12728374096E-02  0.18568154898E-02  0.10292988736E+01  0.10291948802E+01 0.  0.
     999903    2    3    3    0    0 -0.12152378731E-01  0.22231650543E-01 -0.12729344072E+00  0.13955870904E+00  0.51294118819E-01 0.  0.
         14    1    1    2    0    0  0.14456900788E-01  0.12728374096E-02 -0.18568154898E-02  0.14631126382E-01  0.00000000000E+00 0.  1.
     999901    1    3    3    0    0 -0.23045220567E-02 -0.23504487953E-01  0.12915025621E+00  0.88974016457E+00  0.88000000000E+00 0. -1.
        -11    1    4    4    0    0 -0.27676941138E-01  0.72812585457E-02 -0.10379264855E+00  0.10766710180E+00  0.51100000000E-03 0. -1.
         11    1    4    4    0    0  0.15524562408E-01  0.14950391997E-01 -0.23500792168E-01  0.31891607240E-01  0.51100000000E-03 0.  1.
</event>
<event>
 8    1  0.2123879E+004  0.1043930E+01  0.7957747E-01            NaN
         13   -1    0    0    0    0  0.00000000000E+00  0.00000000000E+00  0.74505805969E-08  0.10566000000E+00  0.10566000000E+00 0. -1.
     999900   -1    0    0    0    0 -0.00000000000E+00 -0.00000000000E+00 -0.74505805969E-08  0.93827000000E+00  0.93827000000E+00 0.  1.
     999902    2    1    2    0    0 -0.12139604729E-01 -0.33910360803E-02  0.65269348907E-02  0.10297359869E+01  0.10296381562E+01 0.  0.
     999903    2    3    3    0    0  0.24524346381E-01  0.22228396920E-01  0.12850265911E+00  0.14019752346E+00  0.45242314155E-01 0.  0.
         14    1    1    2    0    0  0.12139604729E-01  0.33910360803E-02 -0.65269348907E-02  0.14194013095E-01  0.00000000000E+00 0. -1.
     999901    1    3    3    0    0 -0.36663951110E-01 -0.25619433000E-01 -0.12197572422E+00  0.88953846345E+00  0.88000000000E+00 0.  1.
        -11    1    4    4    0    0 -0.40935680485E-02 -0.32725730600E-02  0.70347621608E-01  0.70544425866E-01  0.51100000000E-03 0.  1.
         11    1    4    4    0    0  0.28617914429E-01  0.25500969980E-01  0.58155037500E-01  0.69653097589E-01  0.51100000000E-03 0. -1.
</event>
<event>
 8    1  0.2123879E+004  0.1043930E+01  0.7957747E-01            NaN
         13   -1    0    0    0    0  0.00000000000E+00  0.00000000000E+00  0.74505805969E-08  0.10566000000E+00  0.10566000000E+00 0.  1.
     999900   -1    0    0    0    0 -0.00000000000E+00 -0.00000000000E+00 -0.74505805969E-08  0.93827000000E+00  0.93827000000E+00 0.  1.
     999902    2    1    2    0    0  0.95880359829E-02 -0.90449402086E-02  0.63438466700E-02  0.10293017476E+01  0.10291977953E+01 0.  0.
     999903    2    3    3    0    0  0.57562785227E-01 -0.48418478133E-01 -0.10852387890E+00  0.13966898830E+00  0.45521102084E-01 0.  0.
         14    1    1    2    0    0 -0.95880359829E-02  0.90449402086E-02 -0.63438466700E-02  0.14628252389E-01  0.00000000000E+00 0.  1.
     999901    1    3    3    0    0 -0.47974749244E-01  0.39373537924E-01  0.11486772557E+00  0.88963275931E+00  0.88000000000E+00 0. -1.
        -11    1    4    4    0    0  0.67123053191E-02 -0.32691319835E-01 -0.53909251037E-01  0.63405409104E-01  0.51100000000E-03 0. -1.
         11    1    4    4    0    0  0.50850479908E-01 -0.15727158298E-01 -0.54614627862E-01  0.76263579200E-01  0.51100000000E-03 0.  1.
</event>
<event>
 8    1  0.2123879E+004  0.1043930E+01  0.7957747E-01            NaN
         13   -1    0    0    0    0  0.00000000000E+00  0.00000000000E+00  0.74505805969E-08  0.10566000000E+00  0.10566000000E+00 0.  1.
     999900   -1    0    0    0    0 -0.00000000000E+00 -0.00000000000E+00 -0.74505805969E-08  0.93827000000E+00  0.93827000000E+00 0. -1.
     999902    2    1    2    0    0 -0.11919257414E-01  0.19525314791E-02  0.67541144262E-02  0.10300916786E+01  0.10299987220E+01 0.  0.
     999903    2    3    3    0    0  0.10956150270E+00 -0.71585763900E-01 -0.95562282205E-02  0.13855845814E+00  0.44484608093E-01 0.  0.
         14    1    1    2    0    0  0.11919257414E-01 -0.19525314791E-02 -0.67541144262E-02  0.13838321363E-01  0.00000000000E+00 0. -1.
     999901    1    3    3    0    0 -0.12148076012E+00  0.73538295380E-01  0.16310342647E-01  0.89153322049E+00  0.88000000000E+00 0. -1.
        -11    1    4    4    0    0  0.45123301084E-01 -0.55411693215E-01 -0.97137587716E-02  0.72119250386E-01  0.51100000000E-03 0.  1.
         11    1    4    4    0    0  0.64438201620E-01 -0.16174070685E-01  0.15753055108E-03  0.66439207757E-01  0.51100000000E-03 0. -1.
</event>
<event>
 8    1  0.2123879E+004  0.1043930E+01  0.7957747E-01            NaN
         13   -1    0    0    0    0  0.00000000000E+00  0.00000000000E+00  0.74505805969E-08  0.10566000000E+00  0.10566000000E+00 0.  1.
     999900   -1    0    0    0    0 -0.00000000000E+00 -0.00000000000E+00 -0.74505805969E-08  0.93827000000E+00  0.93827000000E+00 0. -1.
     999902    2    1    2    0    0  0.10501360426E-01 -0.71964528929E-02  0.63415569123E-02  0.10297073825E+01  0.10296091543E+01 0.  0.
     999903    2    3    3    0    0  0.93660747322E-01  0.54451946098E-02  0.95416318412E-01  0.14122012426E+00  0.45131629085E-01 0.  0.
         14    1    1    2    0    0 -0.10501360426E-01  0.71964528929E-02 -0.63415569123E-02  0.14222617520E-01  0.00000000000E+00 0. -1.
     999901    1    3    3    0    0 -0.83159386896E-01 -0.12641647503E-01 -0.89074761499E-01  0.88848725822E+00  0.88000000000E+00 0. -1.
        -11    1    4    4    0    0  0.20324570011E-01 -0.13862068655E-01  0.41227149163E-01  0.48012332194E-01  0.51100000000E-03 0. -1.
         11    1    4    4    0    0  0.73336177311E-01  0.19307263265E-01  0.54189169249E-01  0.93207792068E-01  0.51100000000E-03 0.  1.
</event>
<event>
 8    1  0.2123879E+004  0.1043930E+01  0.7957747E-01            NaN
         13   -1    0    0    0    0  0.00000000000E+00  0.00000000000E+00  0.74505805969E-08  0.10566000000E+00  0.10566000000E+00 0.  1.
     999900   -1    0    0    0    0 -0.00000000000E+00 -0.00000000000E+00 -0.74505805969E-08  0.93827000000E+00  0.93827000000E+00 0. -1.
     999902    2    1    2    0    0  0.12555826283E-01  0.48256614602E-02  0.91369796009E-03  0.10304477663E+01  0.10303595627E+01 0.  0.
     999903    2    3    3    0    0 -0.38591896011E-01  0.94846032353E-01 -0.84602502561E-01  0.14026083241E+00  0.45060108510E-01 0.  0.
         14    1    1    2    0    0 -0.12555826283E-01 -0.48256614602E-02 -0.91369796009E-03  0.13482233722E-01  0.00000000000E+00 0. -1.
     999901    1    3    3    0    0  0.51147722294E-01 -0.90020370892E-01  0.85516200521E-01  0.89018693386E+00  0.88000000000E+00 0.  1.
        -11    1    4    4    0    0 -0.90755952661E-02  0.47279724458E-01 -0.65119953308E-01  0.80985234543E-01  0.51100000000E-03 0. -1.
         11    1    4    4    0    0 -0.29516300745E-01  0.47566307895E-01 -0.19482549253E-01  0.59275597870E-01  0.51100000000E-03 0.  1.
</event>
<event>
 8    1  0.2123879E+004  0.1043930E+01  0.7957747E-01            NaN
         13   -1    0    0    0    0  0.00000000000E+00  0.00000000000E+00  0.74505805969E-08  0.10566000000E+00  0.10566000000E+00 0. -1.
     999900   -1    0    0    0    0 -0.00000000000E+00 -0.00000000000E+00 -0.74505805969E-08  0.93827000000E+00  0.93827000000E+00 0.  1.
     999902    2    1    2    0    0  0.60765843304E-02  0.83406485375E-02 -0.97699637196E-02  0.10297193179E+01  0.10296212557E+01 0.  0.
     999903    2    3    3    0    0  0.60796622209E-01 -0.15954053417E-01 -0.11814773396E+00  0.14105163187E+00  0.44563603087E-01 0.  0.
         14    1    1    2    0    0 -0.60765843304E-02 -0.83406485375E-02  0.97699637196E-02  0.14210682117E-01  0.00000000000E+00 0. -1.
     999901    1    3    3    0    0 -0.54720037879E-01  0.24294701955E-01  0.10837777024E+00  0.88866768602E+00  0.88000000000E+00 0. -1.
        -11    1    4    4    0    0  0.96229312547E-02  0.47020768181E-02 -0.59742408256E-01  0.60697008143E-01  0.51100000000E-03 0.  1.
         11    1    4    4    0    0  0.51173690955E-01 -0.20656130236E-01 -0.58405325702E-01  0.80354623723E-01  0.51100000000E-03 0. -1.
</event>
<event>
 8    1  0.2123879E+004  0.1043930E+01  0.7957747E-01            NaN
         13   -1    0    0    0    0  0.00000000000E+00  0.00000000000E+00  0.74505805969E-08  0.10566000000E+00  0.10566000000E+00 0.  1.
     999900   -1    0    0    0    0 -0.00000000000E+00 -0.00000000000E+00 -0.74505805969E-08  0.93827000000E+00  0.93827000000E+00 0. -1.
     999902    2    1    2    0    0 -0.42020195407E-02 -0.13173525699E-01 -0.21220732933E-02  0.10299406490E+01  0.10298456382E+01 0.  0.
     999903    2    3    3    0    0 -0.33579303006E-01  0.83401885192E-01 -0.96710766246E-01  0.13913379245E+00  0.43838292033E-01 0.  0.
         14    1    1    2    0    0  0.42020195407E-02  0.13173525699E-01  0.21220732933E-02  0.13989351044E-01  0.00000000000E+00 0. -1.
     999901    1    3    3    0    0  0.29377283466E-01 -0.96575410890E-01  0.94588692953E-01  0.89080685651E+00  0.88000000000E+00 0.  1.
        -11    1    4    4    0    0 -0.37934649418E-01  0.36925518185E-01 -0.57587293262E-01  0.78224606013E-01  0.51100000000E-03 0.  1.
         11    1    4    4    0    0  0.43553464111E-02  0.46476367007E-01 -0.39123472985E-01  0.60909186433E-01  0.51100000000E-03 0. -1.
</event>
<event>
 8    1  0.2123879E+004  0.1043930E+01  0.7957747E-01            NaN
         13   -1    0    0    0    0  0.00000000000E+00  0.00000000000E+00  0.74505805969E-08  0.10566000000E+00  0.10566000000E+00 0.  1.
     999900   -1    0    0    0    0 -0.00000000000E+00 -0.00000000000E+00 -0.74505805969E-08  0.93827000000E+00  0.93827000000E+00 0. -1.
     999902    2    1    2    0    0  0.13631083037E-01 -0.14400277566E-02 -0.11007167599E-02  0.10301789389E+01  0.10300871587E+01 0.  0.
     999903    2    3    3    0    0  0.23295804627E-01  0.12791541291E+00 -0.28207450194E-01  0.14025702552E+00  0.44399612473E-01 0.  0.
         14    1    1    2    0    0 -0.13631083037E-01  0.14400277566E-02  0.11007167599E-02  0.13751061126E-01  0.00000000000E+00 0. -1.
     999901    1    3    3    0    0 -0.96647215900E-02 -0.12935544067E+00  0.27106733434E-01  0.88992191336E+00  0.88000000000E+00 0.  1.
        -11    1    4    4    0    0  0.18247795966E-01  0.72415026981E-01 -0.37805994548E-01  0.83704674512E-01  0.51100000000E-03 0.  1.
         11    1    4    4    0    0  0.50480086613E-02  0.55500385929E-01  0.95985443547E-02  0.56552351007E-01  0.51100000000E-03 0. -1.
</event>
<event>
 8    1  0.2123879E+004  0.1043930E+01  0.7957747E-01            NaN
         13   -1    0    0    0    0  0.00000000000E+00  0.00000000000E+00  0.74505805969E-08  0.10566000000E+00  0.10566000000E+00 0.  1.
     999900   -1    0    0    0    0 -0.00000000000E+00 -0.00000000000E+00 -0.74505805969E-08  0.93827000000E+00  0.93827000000E+00 0.  1.
     999902    2    1    2    0    0 -0.45398065457E-02 -0.71998793198E-02  0.10542076973E-01  0.10303807014E+01  0.10302916123E+01 0.  0.
     999903    2    3    3    0    0  0.91712200992E-02  0.11163985187E+00  0.71016099842E-01  0.14023016278E+00  0.45537284857E-01 0.  0.
         14    1    1    2    0    0  0.45398065457E-02  0.71998793198E-02 -0.10542076973E-01  0.13549298601E-01  0.00000000000E+00 0. -1.
     999901    1    3    3    0    0 -0.13711026645E-01 -0.11883973119E+00 -0.60474022869E-01  0.89015053862E+00  0.88000000000E+00 0.  1.
        -11    1    4    4    0    0 -0.29503355460E-02  0.76797751827E-01  0.68993172022E-01  0.10328077300E+00  0.51100000000E-03 0. -1.
         11    1    4    4    0    0  0.12121555645E-01  0.34842100046E-01  0.20229278195E-02  0.36949389776E-01  0.51100000000E-03 0.  1.
</event>
<event>
 8    1  0.2123879E+004  0.1043930E+01  0.7957747E-01            NaN
         13   -1    0    0    0    0  0.00000000000E+00  0.00000000000E+00  0.74505805969E-08  0.10566000000E+00  0.10566000000E+00 0. -1.
     999900   -1    0    0    0    0 -0.00000000000E+00 -0.00000000000E+00 -0.74505805969E-08  0.93827000000E+00  0.93827000000E+00 0.  1.
     999902    2    1    2    0    0 -0.10519607749E-01  0.81203771925E-02 -0.16510551197E-02  0.10305386350E+01  0.10304516241E+01 0.  0.
     999903    2    3    3    0    0  0.88471484412E-01  0.96986466415E-01  0.19982685864E-01  0.14027775366E+00  0.45221258441E-01 0.  0.
         14    1    1    2    0    0  0.10519607749E-01 -0.81203771925E-02  0.16510551197E-02  0.13391364977E-01  0.00000000000E+00 0.  1.
     999901    1    3    3    0    0 -0.98991092162E-01 -0.88866089222E-01 -0.21633740984E-01  0.89026088137E+00  0.88000000000E+00 0.  1.
        -11    1    4    4    0    0  0.70772175208E-01  0.81303736382E-01  0.33696182457E-01  0.11293667326E+00  0.51100000000E-03 0. -1.
         11    1    4    4    0    0  0.17699309204E-01  0.15682730033E-01 -0.13713496593E-01  0.27341080399E-01  0.51100000000E-03 0.  1.
</event>
<event>
 8    1  0.2123879E+004  0.1043930E+01  0.7957747E-01            NaN
         13   -1    0    0    0    0  0.00000000000E+00  0.00000000000E+00  0.74505805969E-08  0.10566000000E+00  0.10566000000E+00 0. -1.
     999900   -1    0    0    0    0 -0.00000000000E+00 -0.00000000000E+00 -0.74505805969E-08  0.93827000000E+00  0.93827000000E+00 0. -1.
     999902    2    1    2    0    0 -0.10306345646E-01 -0.38853899087E-02 -0.84231008814E-02  0.10300640113E+01  0.10299706800E+01 0.  0.
     999903    2    3    3    0    0  0.50835580305E-01  0.13100064636E-01  0.11996472338E+00  0.13848660341E+00  0.45068132312E-01 0.  0.
         14    1    1    2    0    0  0.10306345646E-01  0.38853899087E-02  0.84231008814E-02  0.13865988741E-01  0.00000000000E+00 0. -1.
     999901    1    3    3    0    0 -0.61141925951E-01 -0.16985454545E-01 -0.12838782426E+00  0.89157740785E+00  0.88000000000E+00 0. -1.
        -11    1    4    4    0    0  0.10494359435E-01  0.18947556105E-01  0.16355611356E-01  0.27146060601E-01  0.51100000000E-03 0. -1.
         11    1    4    4    0    0  0.40341220870E-01 -0.58474914690E-02  0.10360911202E+00  0.11134054281E+00  0.51100000000E-03 0.  1.
</event>
<event>
 8    1  0.2123879E+004  0.1043930E+01  0.7957747E-01            NaN
         13   -1    0    0    0    0  0.00000000000E+00  0.00000000000E+00  0.74505805969E-08  0.10566000000E+00  0.10566000000E+00 0. -1.
     999900   -1    0    0    0    0 -0.00000000000E+00 -0.00000000000E+00 -0.74505805969E-08  0.93827000000E+00  0.93827000000E+00 0. -1.
     999902    2    1    2    0    0  0.12062303899E-01  0.11491877496E-02  0.59757925028E-02  0.10304196372E+01  0.10303310627E+01 0.  0.
     999903    2    3    3    0    0 -0.41913694206E-01  0.12487411606E+00  0.15436200403E-01  0.14007657656E+00  0.45087341821E-01 0.  0.
         14    1    1    2    0    0 -0.12062303899E-01 -0.11491877496E-02 -0.59757925028E-02  0.13510362832E-01  0.00000000000E+00 0. -1.
     999901    1    3    3    0    0  0.53975998105E-01 -0.12372492831E+00 -0.94604079000E-02  0.89034306061E+00  0.88000000000E+00 0. -1.
        -11    1    4    4    0    0 -0.10882212133E-01  0.91636893220E-01  0.73602394694E-03  0.92285132022E-01  0.51100000000E-03 0.  1.
         11    1    4    4    0    0 -0.31031482074E-01  0.33237222844E-01  0.14700176456E-01  0.47791444536E-01  0.51100000000E-03 0. -1.
</event>
<event>
 8    1  0.2123879E+004  0.1043930E+01  0.7957747E-01            NaN
         13   -1    0    0    0    0  0.00000000000E+00  0.00000000000E+00  0.74505805969E-08  0.10566000000E+00  0.10566000000E+00 0. -1.
     999900   -1    0    0    0    0 -0.00000000000E+00 -0.00000000000E+00 -0.74505805969E-08  0.93827000000E+00  0.93827000000E+00 0.  1.
     999902    2    1    2    0    0  0.10926455800E-01 -0.68209588543E-02  0.52949199457E-02  0.10300034393E+01  0.10299092853E+01 0.  0.
     999903    2    3    3    0    0 -0.12516234635E+00  0.28819038295E-02  0.39421351698E-01  0.13883627149E+00  0.45249850815E-01 0.  0.
         14    1    1    2    0    0 -0.10926455800E-01  0.68209588543E-02 -0.52949199457E-02  0.13926560712E-01  0.00000000000E+00 0.  1.
     999901    1    3    3    0    0  0.13608880215E+00 -0.97028626838E-02 -0.34126431752E-01  0.89116716780E+00  0.88000000000E+00 0. -1.
        -11    1    4    4    0    0 -0.41189189513E-01  0.11170077298E-01  0.33479806092E-01  0.54244617213E-01  0.51100000000E-03 0.  1.
         11    1    4    4    0    0 -0.83973156836E-01 -0.82881734682E-02  0.59415456054E-02  0.84591654279E-01  0.51100000000E-03 0. -1.
</event>
<event>
 8    1  0.2123879E+004  0.1043930E+01  0.7957747E-01            NaN
         13   -1    0    0    0    0  0.00000000000E+00  0.00000000000E+00  0.74505805969E-08  0.10566000000E+00  0.10566000000E+00 0.  1.
     999900   -1    0    0    0    0 -0.00000000000E+00 -0.00000000000E+00 -0.74505805969E-08  0.93827000000E+00  0.93827000000E+00 0.  1.
     999902    2    1    2    0    0 -0.14778553133E-01 -0.68791222407E-02  0.74112392689E-03  0.10276119971E+01  0.10274824277E+01 0.  0.
     999903    2    3    3    0    0  0.10818179255E+00 -0.46265490451E-02  0.68979176267E-01  0.13644380166E+00  0.46196093534E-01 0.  0.
         14    1    1    2    0    0  0.14778553133E-01  0.68791222407E-02 -0.74112392689E-03  0.16318002947E-01  0.00000000000E+00 0. -1.
     999901    1    3    3    0    0 -0.12296034568E+00 -0.22525731957E-02 -0.68238052340E-01  0.89116819539E+00  0.88000000000E+00 0.  1.
        -11    1    4    4    0    0  0.59200248149E-01  0.15752331231E-01  0.20570747167E-01  0.64623695965E-01  0.51100000000E-03 0.  1.
         11    1    4    4    0    0  0.48981544397E-01 -0.20378880276E-01  0.48408429100E-01  0.71820105693E-01  0.51100000000E-03 0. -1.
</event>
<event>
 8    1  0.2123879E+004  0.1043930E+01  0.7957747E-01            NaN
         13   -1    0    0    0    0  0.00000000000E+00  0.00000000000E+00  0.74505805969E-08  0.10566000000E+00  0.10566000000E+00 0.  1.
     999900   -1    0    0    0    0 -0.00000000000E+00 -0.00000000000E+00 -0.74505805969E-08  0.93827000000E+00  0.93827000000E+00 0. -1.
     999902    2    1    2    0    0 -0.84847054530E-02 -0.76869800663E-02  0.82238567808E-02  0.10298334859E+01  0.10297370038E+01 0.  0.
     999903    2    3    3    0    0  0.17000866160E-01 -0.11367918398E+00  0.69391211818E-01  0.14099980801E+00  0.43056001445E-01 0.  0.
         14    1    1    2    0    0  0.84847054530E-02  0.76869800663E-02 -0.82238567808E-02  0.14096514091E-01  0.00000000000E+00 0. -1.
     999901    1    3    3    0    0 -0.25485571613E-01  0.10599220391E+00 -0.61167355037E-01  0.88883367790E+00  0.88000000000E+00 0. -1.
        -11    1    4    4    0    0  0.23452331236E-04 -0.13441118753E-01  0.28316847565E-01  0.31349149914E-01  0.51100000000E-03 0.  1.
         11    1    4    4    0    0  0.16977413829E-01 -0.10023806523E+00  0.41074364253E-01  0.10965065809E+00  0.51100000000E-03 0. -1.
</event>
<event>
 8    1  0.2123879E+004  0.1043930E+01  0.7957747E-01            NaN
         13   -1    0    0    0    0  0.00000000000E+00  0.00000000000E+00  0.74505805969E-08  0.10566000000E+00  0.10566000000E+00 0. -1.
     999900   -1    0    0    0    0 -0.00000000000E+00 -0.00000000000E+00 -0.74505805969E-08  0.93827000000E+00  0.93827000000E+00 0. -1.
     999902    2    1    2    0    0 -0.44475438997E-02 -0.43882044373E-02  0.12042014046E-01  0.10303636045E+01  0.10302742889E+01 0.  0.
     999903    2    3    3    0    0  0.11975338939E+00  0.34819385303E-01 -0.41145229290E-01  0.13918910430E+00  0.46123887509E-01 0.  0.
         14    1    1    2    0    0  0.44475438997E-02  0.43882044373E-02 -0.12042014046E-01  0.13566395513E-01  0.00000000000E+00 0.  1.
     999901    1    3    3    0    0 -0.12420093329E+00 -0.39207589741E-01  0.53187243337E-01  0.89117450018E+00  0.88000000000E+00 0.  1.
        -11    1    4    4    0    0  0.86053611378E-01  0.45505352570E-01 -0.26253954229E-01  0.10082406646E+00  0.51100000000E-03 0.  1.
         11    1    4    4    0    0  0.33699778017E-01 -0.10685967267E-01 -0.14891275062E-01  0.38365037844E-01  0.51100000000E-03 0. -1.
</event>
<event>
 8    1  0.2123879E+004  0.1043930E+01  0.7957747E-01            NaN
         13   -1    0    0    0    0  0.00000000000E+00  0.00000000000E+00  0.74505805969E-08  0.10566000000E+00  0.10566000000E+00 0. -1.
     999900   -1    0    0    0    0 -0.00000000000E+00 -0.00000000000E+00 -0.74505805969E-08  0.93827000000E+00  0.93827000000E+00 0. -1.
     999902    2    1    2    0    0  0.76071544968E-02 -0.82844108504E-02  0.79566205167E-02  0.10301529149E+01  0.10300607847E+01 0.  0.
     999903    2    3    3    0    0 -0.86097669076E-01 -0.11829924904E-01 -0.98516965083E-01  0.13878891014E+00  0.44766208509E-01 0.  0.
         14    1    1    2    0    0 -0.76071544968E-02  0.82844108504E-02 -0.79566205167E-02  0.13777085059E-01  0.00000000000E+00 0.  1.
     999901    1    3    3    0    0  0.93704823573E-01  0.35455140541E-02  0.10647358560E+00  0.89136400480E+00  0.88000000000E+00 0.  1.
        -11    1    4    4    0    0 -0.84543001112E-01 -0.12419919716E-01 -0.70672624573E-01  0.11089028103E+00  0.51100000000E-03 0.  1.
         11    1    4    4    0    0 -0.15546679633E-02  0.58999481199E-03 -0.27844340510E-01  0.27898629102E-01  0.51100000000E-03 0. -1.
</event>
<event>
 8    1  0.2123879E+004  0.1043930E+01  0.7957747E-01            NaN
         13   -1    0    0    0    0  0.00000000000E+00  0.00000000000E+00  0.74505805969E-08  0.10566000000E+00  0.10566000000E+00 0.  1.
     999900   -1    0    0    0    0 -0.00000000000E+00 -0.00000000000E+00 -0.74505805969E-08  0.93827000000E+00  0.93827000000E+00 0. -1.
     999902    2    1    2    0    0 -0.58873508926E-02 -0.42051095985E-02  0.13503375427E-01  0.10286105681E+01  0.10284964831E+01 0.  0.
     999903    2    3    3    0    0 -0.67989167769E-01 -0.10752540406E+00 -0.34544531946E-01  0.13909366528E+00  0.44378864142E-01 0.  0.
         14    1    1    2    0    0  0.58873508926E-02  0.42051095985E-02 -0.13503375427E-01  0.15319431948E-01  0.00000000000E+00 0. -1.
     999901    1    3    3    0    0  0.62101816876E-01  0.10332029446E+00  0.48047907374E-01  0.88951690277E+00  0.88000000000E+00 0.  1.
        -11    1    4    4    0    0  0.62165602055E-05 -0.31405967196E-01 -0.22590919685E-03  0.31410937110E-01  0.51100000000E-03 0.  1.
         11    1    4    4    0    0 -0.67995384329E-01 -0.76119436865E-01 -0.34318622749E-01  0.10768272817E+00  0.51100000000E-03 0. -1.
</event>
<event>
 8    1  0.2123879E+004  0.1043930E+01  0.7957747E-01            NaN
         13   -1    0    0    0    0  0.00000000000E+00  0.00000000000E+00  0.74505805969E-08  0.10566000000E+00  0.10566000000E+00 0.  1.
     999900   -1    0    0    0    0 -0.00000000000E+00 -0.00000000000E+00 -0.74505805969E-08  0.93827000000E+00  0.93827000000E+00 0.  1.
     999902    2    1    2    0    0 -0.20117863234E-03  0.12374945831E-01  0.16726109478E-02  0.10314409094E+01  0.10313652952E+01 0.  0.
     999903    2    3    3    0    0 -0.55282969788E-01  0.71843133266E-01  0.99947415978E-01  0.14226803173E+00  0.45089514823E-01 0.  0.
         14    1    1    2    0    0  0.20117863234E-03 -0.12374945831E-01 -0.16726109478E-02  0.12489090621E-01  0.00000000000E+00 0. -1.
     999901    1    3    3    0    0  0.55081791156E-01 -0.59468187435E-01 -0.98274805030E-01  0.88917287764E+00  0.88000000000E+00 0.  1.
        -11    1    4    4    0    0  0.12502953273E-02 -0.84161957698E-03  0.20752985288E-01  0.20813915568E-01  0.51100000000E-03 0.  1.
         11    1    4    4    0    0 -0.56533265116E-01  0.72684752843E-01  0.79194430689E-01  0.12145411617E+00  0.51100000000E-03 0. -1.
</event>
<event>
 8    1  0.2123879E+004  0.1043930E+01  0.7957747E-01            NaN
         13   -1    0    0    0    0  0.00000000000E+00  0.00000000000E+00  0.74505805969E-08  0.10566000000E+00  0.10566000000E+00 0.  1.
     999900   -1    0    0    0    0 -0.00000000000E+00 -0.00000000000E+00 -0.74505805969E-08  0.93827000000E+00  0.93827000000E+00 0.  1.
     999902    2    1    2    0    0  0.51860559053E-02 -0.23390358800E-02 -0.13089747436E-01  0.10296573775E+01  0.10295584526E+01 0.  0.
     999903    2    3    3    0    0 -0.13118115404E+00 -0.12482574578E-01  0.26855036113E-02  0.13895666130E+00  0.44016269101E-01 0.  0.
         14    1    1    2    0    0 -0.51860559053E-02  0.23390358800E-02  0.13089747436E-01  0.14272622486E-01  0.00000000000E+00 0.  1.
     999901    1    3    3    0    0  0.13636720994E+00  0.10143538699E-01 -0.15775251047E-01  0.89070071622E+00  0.88000000000E+00 0. -1.
        -11    1    4    4    0    0 -0.11211054532E+00 -0.55454643425E-02  0.17795764634E-01  0.11365067930E+00  0.51100000000E-03 0. -1.
         11    1    4    4    0    0 -0.19070608723E-01 -0.69371102360E-02 -0.15110261023E-01  0.25305981993E-01  0.51100000000E-03 0.  1.
</event>
<event>
 8    1  0.2123879E+004  0.1043930E+01  0.7957747E-01            NaN
         13   -1    0    0    0    0  0.00000000000E+00  0.00000000000E+00  0.74505805969E-08  0.10566000000E+00  0.10566000000E+00 0. -1.
     999900   -1    0    0    0    0 -0.00000000000E+00 -0.00000000000E+00 -0.74505805969E-08  0.93827000000E+00  0.93827000000E+00 0. -1.
     999902    2    1    2    0    0 -0.12668958702E-01 -0.48808675497E-02  0.13279356284E-02  0.10302885633E+01  0.10301982503E+01 0.  0.
     999903    2    3    3    0    0  0.10445124144E+00  0.47859686066E-01 -0.63479195663E-01  0.13860550774E+00  0.44511426690E-01 0.  0.
         14    1    1    2    0    0  0.12668958702E-01  0.48808675497E-02 -0.13279356284E-02  0.13641436715E-01  0.00000000000E+00 0.  1.
     999901    1    3    3    0    0 -0.11712020014E+00 -0.52740553616E-01  0.64807131291E-01  0.89168305554E+00  0.88000000000E+00 0. -1.
        -11    1    4    4    0    0  0.42493483493E-01  0.30068621141E-01 -0.63022385456E-02  0.52438511119E-01  0.51100000000E-03 0.  1.
         11    1    4    4    0    0  0.61957757945E-01  0.17791064925E-01 -0.57176957117E-01  0.86166996622E-01  0.51100000000E-03 0. -1.
</event>
<event>
 8    1  0.2123879E+004  0.1043930E+01  0.7957747E-01            NaN
         13   -1    0    0    0    0  0.00000000000E+00  0.00000000000E+00  0.74505805969E-08  0.10566000000E+00  0.10566000000E+00 0. -1.
     999900   -1    0    0    0    0 -0.00000000000E+00 -0.00000000000E+00 -0.74505805969E-08  0.93827000000E+00  0.93827000000E+00 0. -1.
     999902    2    1    2    0    0  0.41675223878E-02 -0.24824223570E-02  0.13368931712E-01  0.10297082210E+01  0.10296100045E+01 0.  0.
     999903    2    3    3    0    0  0.27395256775E-01 -0.46374663388E-01 -0.11935183484E+00  0.13837166369E+00  0.44729714246E-01 0.  0.
         14    1    1    2    0    0 -0.41675223878E-02  0.24824223570E-02 -0.13368931712E-01  0.14221779029E-01  0.00000000000E+00 0.  1.
     999901    1    3    3    0    0 -0.23227734387E-01  0.43892241031E-01  0.13272076655E+00  0.89133655728E+00  0.88000000000E+00 0.  1.
        -11    1    4    4    0    0  0.95338752704E-02 -0.37728935288E-01 -0.37135364778E-01  0.53792785519E-01  0.51100000000E-03 0.  1.
         11    1    4    4    0    0  0.17861381505E-01 -0.86457281000E-02 -0.82216470057E-01  0.84578878175E-01  0.51100000000E-03 0. -1.
</event>
<event>
 8    1  0.2123879E+004  0.1043930E+01  0.7957747E-01            NaN
         13   -1    0    0    0    0  0.00000000000E+00  0.00000000000E+00  0.74505805969E-08  0.10566000000E+00  0.10566000000E+00 0. -1.
     999900   -1    0    0    0    0 -0.00000000000E+00 -0.00000000000E+00 -0.74505805969E-08  0.93827000000E+00  0.93827000000E+00 0. -1.
     999902    2    1    2    0    0 -0.42152375979E-02 -0.72474815956E-02  0.10518493684E-01  0.10304788689E+01  0.10303910745E+01 0.  0.
     999903    2    3    3    0    0 -0.68042373946E-01 -0.36991974642E-01 -0.10728856034E+00  0.13984025526E+00  0.45235947767E-01 0.  0.
         14    1    1    2    0    0  0.42152375979E-02  0.72474815956E-02 -0.10518493684E-01  0.13451131063E-01  0.00000000000E+00 0.  1.
     999901    1    3    3    0    0  0.63827136349E-01  0.29744493046E-01  0.11780705402E+00  0.89063861368E+00  0.88000000000E+00 0.  1.
        -11    1    4    4    0    0  0.67628782602E-02 -0.28384228169E-02 -0.10761817540E-01  0.13033457109E-01  0.51100000000E-03 0. -1.
         11    1    4    4    0    0 -0.74805252207E-01 -0.34153551825E-01 -0.96526742799E-01  0.12680679815E+00  0.51100000000E-03 0.  1.
</event>
<event>
 8    1  0.2123879E+004  0.1043930E+01  0.7957747E-01            NaN
         13   -1    0    0    0    0  0.00000000000E+00  0.00000000000E+00  0.74505805969E-08  0.10566000000E+00  0.10566000000E+00 0.  1.
     999900   -1    0    0    0    0 -0.00000000000E+00 -0.00000000000E+00 -0.74505805969E-08  0.93827000000E+00  0.93827000000E+00 0. -1.
     999902    2    1    2    0    0  0.12595757963E-01  0.38005179945E-02  0.35317188009E-04  0.10307733172E+01  0.10306893485E+01 0.  0.
     999903    2    3    3    0    0 -0.49143546443E-02 -0.67144094749E-01 -0.11455899326E+00  0.14033994060E+00  0.45155903820E-01 0.  0.
         14    1    1    2    0    0 -0.12595757963E-01 -0.38005179945E-02 -0.35317188009E-04  0.13156682826E-01  0.00000000000E+00 0.  1.
     999901    1    3    3    0    0  0.17510112607E-01  0.70944612743E-01  0.11459431045E+00  0.89043337657E+00  0.88000000000E+00 0.  1.
        -11    1    4    4    0    0 -0.22293809326E-01 -0.50639654910E-01 -0.92366198839E-01  0.10767155796E+00  0.51100000000E-03 0. -1.
         11    1    4    4    0    0  0.17379454682E-01 -0.16504439838E-01 -0.22192794425E-01  0.32668382648E-01  0.51100000000E-03 0.  1.
</event>
<event>
 8    1  0.2123879E+004  0.1043930E+01  0.7957747E-01            NaN
         13   -1    0    0    0    0  0.00000000000E+00  0.00000000000E+00  0.74505805969E-08  0.10566000000E+00  0.10566000000E+00 0. -1.
     999900   -1    0    0    0    0 -0.00000000000E+00 -0.00000000000E+00 -0.74505805969E-08  0.93827000000E+00  0.93827000000E+00 0.  1.
     999902    2    1    2    0    0 -0.90486419756E-02 -0.41396341143E-02  0.55194944358E-02  0.10325511024E+01  0.10324884017E+01 0.  0.
     999903    2    3    3    0    0  0.97888836390E-01 -0.45867379253E-01 -0.78727687637E-01  0.14110597413E+00  0.45020066253E-01 0.  0.
         14    1    1    2    0    0  0.90486419756E-02  0.41396341143E-02 -0.55194944358E-02  0.11378897619E-01  0.00000000000E+00 0.  1.
     999901    1    3    3    0    0 -0.10693747837E+00  0.41727745139E-01  0.84247182073E-01  0.89144512825E+00  0.88000000000E+00 0.  1.
        -11    1    4    4    0    0  0.56471262713E-01 -0.12580928106E-01 -0.18401552435E-01  0.60713767116E-01  0.51100000000E-03 0.  1.
         11    1    4    4    0    0  0.41417573676E-01 -0.33286451147E-01 -0.60326135202E-01  0.80392207014E-01  0.51100000000E-03 0. -1.
</event>
<event>
 8    1  0.2123879E+004  0.1043930E+01  0.7957747E-01            NaN
         13   -1    0    0    0    0  0.00000000000E+00  0.00000000000E+00  0.74505805969E-08  0.10566000000E+00  0.10566000000E+00 0. -1.
     999900   -1    0    0    0    0 -0.00000000000E+00 -0.00000000000E+00 -0.74505805969E-08  0.93827000000E+00  0.93827000000E+00 0.  1.
     999902    2    1    2    0    0  0.14766775673E-02  0.60580007951E-02 -0.38675637948E-02  0.10365925618E+01  0.10365665927E+01 0.  0.
     999903    2    3    3    0    0 -0.72158205233E-01 -0.11647292034E+00 -0.19632288600E-01  0.14491748128E+00  0.42929032934E-01 0.  0.
         14    1    1    2    0    0 -0.14766775673E-02 -0.60580007951E-02  0.38675637948E-02  0.73374382435E-02  0.00000000000E+00 0.  1.
     999901    1    3    3    0    0  0.73634882800E-01  0.12253092114E+00  0.15764724806E-01  0.89167508048E+00  0.88000000000E+00 0. -1.
        -11    1    4    4    0    0 -0.72476726051E-01 -0.83420468127E-01 -0.15996883689E-01  0.11166025134E+00  0.51100000000E-03 0. -1.
         11    1    4    4    0    0  0.31852081804E-03 -0.33052452215E-01 -0.36354049115E-02  0.33257229933E-01  0.51100000000E-03 0.  1.
</event>
<event>
 8    1  0.2123879E+004  0.1043930E+01  0.7957747E-01            NaN
         13   -1    0    0    0    0  0.00000000000E+00  0.00000000000E+00  0.74505805969E-08  0.10566000000E+00  0.10566000000E+00 0. -1.
     999900   -1    0    0    0    0 -0.00000000000E+00 -0.00000000000E+00 -0.74505805969E-08  0.93827000000E+00  0.93827000000E+00 0.  1.
     999902    2    1    2    0    0 -0.11898219360E-01 -0.24824834763E-02 -0.47590951288E-03  0.10317662490E+01  0.10316945458E+01 0.  0.
     999903    2    3    3    0    0  0.67106246292E-01 -0.66112530285E-01  0.94748057017E-01  0.14083522349E+00  0.44533705368E-01 0.  0.
         14    1    1    2    0    0  0.11898219360E-01  0.24824834763E-02  0.47590951288E-03  0.12163750984E-01  0.00000000000E+00 0. -1.
     999901    1    3    3    0    0 -0.79004465652E-01  0.63630046809E-01 -0.95223966530E-01  0.89093102553E+00  0.88000000000E+00 0. -1.
        -11    1    4    4    0    0  0.56338454507E-01 -0.43466947202E-01  0.90932946076E-01  0.11546626676E+00  0.51100000000E-03 0. -1.
         11    1    4    4    0    0  0.10767791785E-01 -0.22645583083E-01  0.38151109404E-02  0.25368956731E-01  0.51100000000E-03 0.  1.
</event>
<event>
 8    1  0.2123879E+004  0.1043930E+01  0.7957747E-01            NaN
         13   -1    0    0    0    0  0.00000000000E+00  0.00000000000E+00  0.74505805969E-08  0.10566000000E+00  0.10566000000E+00 0.  1.
     999900   -1    0    0    0    0 -0.00000000000E+00 -0.00000000000E+00 -0.74505805969E-08  0.93827000000E+00  0.93827000000E+00 0. -1.
     999902    2    1    2    0    0  0.10156973578E-01  0.11725444794E-01 -0.10596978515E-03  0.10284167348E+01  0.10282997224E+01 0.  0.
     999903    2    3    3    0    0  0.51702752240E-01 -0.13868859523E-01 -0.12036207013E+00  0.13889852261E+00  0.44048289435E-01 0.  0.
         14    1    1    2    0    0 -0.10156973578E-01 -0.11725444794E-01  0.10596978515E-03  0.15513265210E-01  0.00000000000E+00 0.  1.
     999901    1    3    3    0    0 -0.41545778663E-01  0.25594304317E-01  0.12025610035E+00  0.88951821218E+00  0.88000000000E+00 0. -1.
        -11    1    4    4    0    0 -0.37010616556E-02 -0.10689208086E-01 -0.37470057256E-01  0.39143624496E-01  0.51100000000E-03 0. -1.
         11    1    4    4    0    0  0.55403813896E-01 -0.31796514362E-02 -0.82892012874E-01  0.99754898109E-01  0.51100000000E-03 0.  1.
</event>
<event>
 8    1  0.2123879E+004  0.1043930E+01  0.7957747E-01            NaN
         13   -1    0    0    0    0  0.00000000000E+00  0.00000000000E+00  0.74505805969E-08  0.10566000000E+00  0.10566000000E+00 0. -1.
     999900   -1    0    0    0    0 -0.00000000000E+00 -0.00000000000E+00 -0.74505805969E-08  0.93827000000E+00  0.93827000000E+00 0.  1.
     999902    2    1    2    0    0 -0.12295439338E-01 -0.11828459027E-02 -0.46019912909E-02  0.10307483735E+01  0.10306640841E+01 0.  0.
     999903    2    3    3    0    0  0.26686405105E-01 -0.23403067039E-01  0.12756654908E+00  0.13974789905E+00  0.44680902864E-01 0.  0.
         14    1    1    2    0    0  0.12295439338E-01  0.11828459027E-02  0.46019912909E-02  0.13181626485E-01  0.00000000000E+00 0. -1.
     999901    1    3    3    0    0 -0.38981844443E-01  0.22220221137E-01 -0.13216854037E+00  0.89100047446E+00  0.88000000000E+00 0.  1.
        -11    1    4    4    0    0  0.25426678352E-02  0.12508796938E-01  0.41369327386E-01  0.43296853580E-01  0.51100000000E-03 0. -1.
         11    1    4    4    0    0  0.24143737270E-01 -0.35911863978E-01  0.86197221698E-01  0.96451045475E-01  0.51100000000E-03 0.  1.
</event>
<event>
 8    1  0.2298815E+004  0.1043930E+01  0.7957747E-01            NaN
         13   -1    0    0    0    0  0.00000000000E+00  0.00000000000E+00  0.74505805969E-08  0.10566000000E+00  0.10566000000E+00 0. -1.
     999900   -1    0    0    0    0 -0.00000000000E+00 -0.00000000000E+00 -0.74505805969E-08  0.93827000000E+00  0.93827000000E+00 0. -1.
     999902    2    1    2    0    0 -0.13398613054E-01  0.78905802125E-02 -0.12457796945E-01  0.10240056232E+01  0.10238117676E+01 0.  0.
     999903    2    3    3    0    0  0.78701517831E-01 -0.80403883232E-01  0.53065238223E-01  0.13239381608E+00  0.45315446378E-01 0.  0.
         14    1    1    2    0    0  0.13398613054E-01 -0.78905802125E-02  0.12457796945E-01  0.19924376843E-01  0.00000000000E+00 0. -1.
     999901    1    3    3    0    0 -0.92100130885E-01  0.88294463445E-01 -0.65523035168E-01  0.89161180708E+00  0.88000000000E+00 0.  1.
        -11    1    4    4    0    0  0.17807241488E-01 -0.49703395960E-01  0.18581110217E-01  0.55973602683E-01  0.51100000000E-03 0.  1.
         11    1    4    4    0    0  0.60894276343E-01 -0.30700487272E-01  0.34484128006E-01  0.76420213395E-01  0.51100000000E-03 0. -1.
</event>
<event>
 8    1  0.2123879E+004  0.1043930E+01  0.7957747E-01            NaN
         13   -1    0    0    0    0  0.00000000000E+00  0.00000000000E+00  0.74505805969E-08  0.10566000000E+00  0.10566000000E+00 0. -1.
     999900   -1    0    0    0    0 -0.00000000000E+00 -0.00000000000E+00 -0.74505805969E-08  0.93827000000E+00  0.93827000000E+00 0.  1.
     999902    2    1    2    0    0  0.22227640678E-02  0.65243576735E-02 -0.13693001568E-01  0.10286000876E+01  0.10284858453E+01 0.  0.
     999903    2    3    3    0    0  0.43728105398E-01 -0.12289117856E+00  0.72446816519E-03  0.13805029233E+00  0.45199218880E-01 0.  0.
         14    1    1    2    0    0 -0.22227640678E-02 -0.65243576735E-02  0.13693001568E-01  0.15329912429E-01  0.00000000000E+00 0. -1.
     999901    1    3    3    0    0 -0.41505341330E-01  0.12941553623E+00 -0.14417469733E-01  0.89054979525E+00  0.88000000000E+00 0.  1.
        -11    1    4    4    0    0  0.12604011896E-01 -0.19072959482E-01 -0.16644137526E-01  0.28282986658E-01  0.51100000000E-03 0. -1.
         11    1    4    4    0    0  0.31124093502E-01 -0.10381821908E+00  0.17368605692E-01  0.10976730567E+00  0.51100000000E-03 0.  1.
</event>
<event>
 8    1  0.2123879E+004  0.1043930E+01  0.7957747E-01            NaN
         13   -1    0    0    0    0  0.00000000000E+00  0.00000000000E+00  0.74505805969E-08  0.10566000000E+00  0.10566000000E+00 0.  1.
     999900   -1    0    0    0    0 -0.00000000000E+00 -0.00000000000E+00 -0.74505805969E-08  0.93827000000E+00  0.93827000000E+00 0.  1.
     999902    2    1    2    0    0  0.72437050867E-02 -0.14407791963E-02  0.11957017276E-01  0.10298759127E+01  0.10297800145E+01 0.  0.
     999903    2    3    3    0    0  0.15109545247E-01  0.11945836936E+00 -0.53345871423E-01  0.13917790391E+00  0.45012293560E-01 0.  0.
         14    1    1    2    0    0 -0.72437050867E-02  0.14407791963E-02 -0.11957017276E-01  0.14054087313E-01  0.00000000000E+00 0. -1.
     999901    1    3    3    0    0 -0.78658401605E-02 -0.12089914856E+00  0.65302888698E-01  0.89069800877E+00  0.88000000000E+00 0. -1.
        -11    1    4    4    0    0  0.24012323038E-01  0.11379197185E+00 -0.41939331593E-01  0.12362998492E+00  0.51100000000E-03 0.  1.
         11    1    4    4    0    0 -0.89027777911E-02  0.56663975095E-02 -0.11406539830E-01  0.15547918993E-01  0.51100000000E-03 0. -1.
</event>
<event>
 8    1  0.2123879E+004  0.1043930E+01  0.7957747E-01            NaN
         13   -1    0    0    0    0  0.00000000000E+00  0.00000000000E+00  0.74505805969E-08  0.10566000000E+00  0.10566000000E+00 0.  1.
     999900   -1    0    0    0    0 -0.00000000000E+00 -0.00000000000E+00 -0.74505805969E-08  0.93827000000E+00  0.93827000000E+00 0. -1.
     999902    2    1    2    0    0 -0.12399321518E-01  0.42293323678E-02  0.50052504067E-02  0.10299056299E+01  0.10298101395E+01 0.  0.
     999903    2    3    3    0    0 -0.84398849517E-01 -0.68416074750E-01  0.77882371317E-01  0.14098923223E+00  0.44814894394E-01 0.  0.
         14    1    1    2    0    0  0.12399321518E-01 -0.42293323678E-02 -0.50052504067E-02  0.14024370147E-01  0.00000000000E+00 0. -1.
     999901    1    3    3    0    0  0.71999527999E-01  0.72645407118E-01 -0.72877120910E-01  0.88891639762E+00  0.88000000000E+00 0.  1.
        -11    1    4    4    0    0 -0.60454607263E-01 -0.69456828870E-01  0.70286135159E-01  0.11584218805E+00  0.51100000000E-03 0. -1.
         11    1    4    4    0    0 -0.23944242254E-01  0.10407541197E-02  0.75962361575E-02  0.25147044181E-01  0.51100000000E-03 0.  1.
</event>
<event>
 8    1  0.2123879E+004  0.1043930E+01  0.7957747E-01            NaN
         13   -1    0    0    0    0  0.00000000000E+00  0.00000000000E+00  0.74505805969E-08  0.10566000000E+00  0.10566000000E+00 0. -1.
     999900   -1    0    0    0    0 -0.00000000000E+00 -0.00000000000E+00 -0.74505805969E-08  0.93827000000E+00  0.93827000000E+00 0.  1.
     999902    2    1    2    0    0  0.34557526102E-02 -0.11840590858E-01  0.64683555130E-02  0.10300022780E+01  0.10299081081E+01 0.  0.
     999903    2    3    3    0    0  0.35367864392E-01 -0.82666131649E-02  0.12626265456E+00  0.14130557477E+00  0.52017158707E-01 0.  0.
         14    1    1    2    0    0 -0.34557526102E-02  0.11840590858E-01 -0.64683555130E-02  0.13927722033E-01  0.00000000000E+00 0.  1.
     999901    1    3    3    0    0 -0.31912111782E-01 -0.35739776934E-02 -0.11979429904E+00  0.88869670320E+00  0.88000000000E+00 0.  1.
        -11    1    4    4    0    0  0.35591212524E-01 -0.23871934567E-01  0.63363239559E-01  0.76496829459E-01  0.51100000000E-03 0. -1.
         11    1    4    4    0    0 -0.22334813216E-03  0.15605321402E-01  0.62899414997E-01  0.64808745308E-01  0.51100000000E-03 0.  1.
</event>
<event>
 8    1  0.2123879E+004  0.1043930E+01  0.7957747E-01            NaN
         13   -1    0    0    0    0  0.00000000000E+00  0.00000000000E+00  0.74505805969E-08  0.10566000000E+00  0.10566000000E+00 0. -1.
     999900   -1    0    0    0    0 -0.00000000000E+00 -0.00000000000E+00 -0.74505805969E-08  0.93827000000E+00  0.93827000000E+00 0.  1.
     999902    2    1    2    0    0  0.85479156166E-02 -0.52639361612E-02  0.10349499336E-01  0.10295116776E+01  0.10294107082E+01 0.  0.
     999903    2    3    3    0    0  0.81973395257E-01 -0.87552723329E-01 -0.56828359455E-01  0.14008736360E+00  0.44831797991E-01 0.  0.
         14    1    1    2    0    0 -0.85479156166E-02  0.52639361612E-02 -0.10349499336E-01  0.14418322434E-01  0.00000000000E+00 0. -1.
     999901    1    3    3    0    0 -0.73425479640E-01  0.82288787168E-01  0.67177858791E-01  0.88942431396E+00  0.88000000000E+00 0. -1.
        -11    1    4    4    0    0  0.80201238168E-01 -0.64372613971E-01 -0.55342268618E-01  0.11678655680E+00  0.51100000000E-03 0. -1.
         11    1    4    4    0    0  0.17721570886E-02 -0.23180109358E-01 -0.14860908363E-02  0.23300806801E-01  0.51100000000E-03 0.  1.
</event>
<event>
 8    1  0.2123879E+004  0.1043930E+01  0.7957747E-01            NaN
         13   -1    0    0    0    0  0.00000000000E+00  0.00000000000E+00  0.74505805969E-08  0.10566000000E+00  0.10566000000E+00 0. -1.
     999900   -1    0    0    0    0 -0.00000000000E+00 -0.00000000000E+00 -0.74505805969E-08  0.93827000000E+00  0.93827000000E+00 0. -1.
     999902    2    1    2    0    0  0.62495810099E-02  0.11634406028E-01 -0.58052527168E-02  0.10295037175E+01  0.10294026359E+01 0.  0.
     999903    2    3    3    0    0 -0.99555518853E-01 -0.77447974394E-01  0.33690077624E-01  0.13782537264E+00  0.44173769819E-01 0.  0.
         14    1    1    2    0    0 -0.62495810099E-02 -0.11634406028E-01  0.58052527168E-02  0.14426282457E-01  0.00000000000E+00 0. -1.
     999901    1    3    3    0    0  0.10580509986E+00  0.89082380422E-01 -0.39495330340E-01  0.89167834491E+00  0.88000000000E+00 0. -1.
        -11    1    4    4    0    0 -0.89072635910E-01 -0.59122978215E-01  0.12046728655E-01  0.10758645739E+00  0.51100000000E-03 0. -1.
         11    1    4    4    0    0 -0.10482882942E-01 -0.18324996180E-01  0.21643348969E-01  0.30238915247E-01  0.51100000000E-03 0.  1.
</event>
<event>
 8    1  0.2123879E+004  0.1043930E+01  0.7957747E-01            NaN
         13   -1    0    0    0    0  0.00000000000E+00  0.00000000000E+00  0.74505805969E-08  0.10566000000E+00  0.10566000000E+00 0. -1.
     999900   -1    0    0    0    0 -0.00000000000E+00 -0.00000000000E+00 -0.74505805969E-08  0.93827000000E+00  0.93827000000E+00 0. -1.
     999902    2    1    2    0    0  0.13616196792E-01  0.18348044533E-02 -0.11429841913E-02  0.10301432768E+01  0.10300510167E+01 0.  0.
     999903    2    3    3    0    0  0.54437892326E-01 -0.19002092697E-01 -0.12059162101E+00  0.14089158922E+00  0.44536919593E-01 0.  0.
         14    1    1    2    0    0 -0.13616196792E-01 -0.18348044533E-02  0.11429841913E-02  0.13786723154E-01  0.00000000000E+00 0. -1.
     999901    1    3    3    0    0 -0.40821695534E-01  0.20836897150E-01  0.11944863682E+00  0.88925168763E+00  0.88000000000E+00 0.  1.
        -11    1    4    4    0    0  0.38252736355E-01  0.84602764108E-02 -0.50724438569E-01  0.64094289174E-01  0.51100000000E-03 0. -1.
         11    1    4    4    0    0  0.16185155971E-01 -0.27462369108E-01 -0.69867182442E-01  0.76797300045E-01  0.51100000000E-03 0.  1.
</event>
<event>
 8    1  0.2123879E+004  0.1043930E+01  0.7957747E-01            NaN
         13   -1    0    0    0    0  0.00000000000E+00  0.00000000000E+00  0.74505805969E-08  0.10566000000E+00  0.10566000000E+00 0.  1.
     999900   -1    0    0    0    0 -0.00000000000E+00 -0.00000000000E+00 -0.74505805969E-08  0.93827000000E+00  0.93827000000E+00 0.  1.
     999902    2    1    2    0    0  0.11600681269E-01 -0.12641381122E-01 -0.38654026157E-02  0.10263424573E+01  0.10261917549E+01 0.  0.
     999903    2    3    3    0    0 -0.98207822546E-01 -0.78141647049E-01  0.28589522036E-01  0.13651016155E+00  0.45461742402E-01 0.  0.
         14    1    1    2    0    0 -0.11600681269E-01  0.12641381122E-01  0.38654026157E-02  0.17587542749E-01  0.00000000000E+00 0.  1.
     999901    1    3    3    0    0  0.10980850381E+00  0.65500265927E-01 -0.32454924652E-01  0.88983229571E+00  0.88000000000E+00 0.  1.
        -11    1    4    4    0    0 -0.91646426896E-01 -0.56293328714E-01  0.11842221971E-01  0.10820584902E+00  0.51100000000E-03 0.  1.
         11    1    4    4    0    0 -0.65613956501E-02 -0.21848318335E-01  0.16747300065E-01  0.28304312523E-01  0.51100000000E-03 0. -1.
</event>
<event>
 8    1  0.2123879E+004  0.1043930E+01  0.7957747E-01            NaN
         13   -1    0    0    0    0  0.00000000000E+00  0.00000000000E+00  0.74505805969E-08  0.10566000000E+00  0.10566000000E+00 0.  1.
     999900   -1    0    0    0    0 -0.00000000000E+00 -0.00000000000E+00 -0.74505805969E-08  0.93827000000E+00  0.93827000000E+00 0.  1.
     999902    2    1    2    0    0 -0.11074127867E-01  0.51069639920E-02 -0.64785916914E-02  0.10301209617E+01  0.10300284006E+01 0.  0.
     999903    2    3    3    0    0 -0.80061363773E-01 -0.52177279484E-02 -0.10788152166E+00  0.14155560550E+00  0.44300339497E-01 0.  0.
         14    1    1    2    0    0  0.11074127867E-01 -0.51069639920E-02  0.64785916914E-02  0.13809038327E-01  0.00000000000E+00 0. -1.
     999901    1    3    3    0    0  0.68987235906E-01  0.10324691940E-01  0.10140292997E+00  0.88856535617E+00  0.88000000000E+00 0. -1.
        -11    1    4    4    0    0 -0.72788096045E-02  0.98288550955E-02 -0.36530010675E-01  0.38526487806E-01  0.51100000000E-03 0. -1.
         11    1    4    4    0    0 -0.72782554169E-01 -0.15046583044E-01 -0.71351510983E-01  0.10302911770E+00  0.51100000000E-03 0.  1.
</event>
<event>
 8    1  0.2123879E+004  0.1043930E+01  0.7957747E-01            NaN
         13   -1    0    0    0    0  0.00000000000E+00  0.00000000000E+00  0.74505805969E-08  0.10566000000E+00  0.10566000000E+00 0. -1.
     999900   -1    0    0    0    0 -0.00000000000E+00 -0.00000000000E+00 -0.74505805969E-08  0.93827000000E+00  0.93827000000E+00 0. -1.
     999902    2    1    2    0    0 -0.16075624696E-03  0.12200586364E-01  0.69262069682E-02  0.10298995868E+01  0.10298040136E+01 0.  0.
     999903    2    3    3    0    0 -0.85287635759E-01 -0.60779438321E-01 -0.79612407582E-01  0.13857383191E+00  0.43548254983E-01 0.  0.
         14    1    1    2    0    0  0.16075624696E-03 -0.12200586364E-01 -0.69262069682E-02  0.14030413150E-01  0.00000000000E+00 0.  1.
     999901    1    3    3    0    0  0.85126879512E-01  0.72980024685E-01  0.86538614550E-01  0.89132575494E+00  0.88000000000E+00 0.  1.
        -11    1    4    4    0    0 -0.32258405495E-01 -0.19827606149E-01 -0.48452366660E-02  0.38176905716E-01  0.51100000000E-03 0. -1.
         11    1    4    4    0    0 -0.53029230264E-01 -0.40951832172E-01 -0.74767170916E-01  0.10039692619E+00  0.51100000000E-03 0.  1.
</event>
<event>
 8    1  0.2123879E+004  0.1043930E+01  0.7957747E-01            NaN
         13   -1    0    0    0    0  0.00000000000E+00  0.00000000000E+00  0.74505805969E-08  0.10566000000E+00  0.10566000000E+00 0. -1.
     999900   -1    0    0    0    0 -0.00000000000E+00 -0.00000000000E+00 -0.74505805969E-08  0.93827000000E+00  0.93827000000E+00 0.  1.
     999902    2    1    2    0    0 -0.27989065640E-02 -0.15342421599E-01 -0.18703331219E-02  0.10282226156E+01  0.10281026337E+01 0.  0.
     999903    2    3    3    0    0  0.10506793492E+00  0.54127388241E-01  0.51778437843E-01  0.13730202397E+00  0.46923278393E-01 0.  0.
         14    1    1    2    0    0  0.27989065640E-02  0.15342421599E-01  0.18703331219E-02  0.15707384393E-01  0.00000000000E+00 0.  1.
     999901    1    3    3    0    0 -0.10786684149E+00 -0.69469809840E-01 -0.53648770965E-01  0.89092059163E+00  0.88000000000E+00 0. -1.
        -11    1    4    4    0    0  0.69814348457E-01  0.58390608767E-01  0.43298635607E-01  0.10078957986E+00  0.51100000000E-03 0. -1.
         11    1    4    4    0    0  0.35253586465E-01 -0.42632205264E-02  0.84798022355E-02  0.36512444109E-01  0.51100000000E-03 0.  1.
</event>
<event>
 8    1  0.2123879E+004  0.1043930E+01  0.7957747E-01            NaN
         13   -1    0    0    0    0  0.00000000000E+00  0.00000000000E+00  0.74505805969E-08  0.10566000000E+00  0.10566000000E+00 0. -1.
     999900   -1    0    0    0    0 -0.00000000000E+00 -0.00000000000E+00 -0.74505805969E-08  0.93827000000E+00  0.93827000000E+00 0.  1.
     999902    2    1    2    0    0  0.55508173875E-02 -0.33862204004E-02  0.12469397074E-01  0.10298671438E+01  0.10297711250E+01 0.  0.
     999903    2    3    3    0    0 -0.77473752415E-01  0.43923624539E-01 -0.89895450930E-01  0.13879483315E+00  0.57020579675E-01 0.  0.
         14    1    1    2    0    0 -0.55508173875E-02  0.33862204004E-02 -0.12469397074E-01  0.14062856242E-01  0.00000000000E+00 0.  1.
     999901    1    3    3    0    0  0.83024569802E-01 -0.47309844939E-01  0.10236484800E+00  0.89107231060E+00  0.88000000000E+00 0. -1.
        -11    1    4    4    0    0 -0.38595453009E-01  0.53143309457E-01 -0.52837200152E-01  0.84296210911E-01  0.51100000000E-03 0.  1.
         11    1    4    4    0    0 -0.38878299405E-01 -0.92196849183E-02 -0.37058250778E-01  0.54498622243E-01  0.51100000000E-03 0. -1.
</event>
<event>
 8    1  0.2123879E+004  0.1043930E+01  0.7957747E-01            NaN
         13   -1    0    0    0    0  0.00000000000E+00  0.00000000000E+00  0.74505805969E-08  0.10566000000E+00  0.10566000000E+00 0. -1.
     999900   -1    0    0    0    0 -0.00000000000E+00 -0.00000000000E+00 -0.74505805969E-08  0.93827000000E+00  0.93827000000E+00 0.  1.
     999902    2    1    2    0    0 -0.10449592973E-01  0.86944424685E-02  0.37207857113E-02  0.10298363287E+01  0.10297398858E+01 0.  0.
     999903    2    3    3    0    0  0.12718761137E+00  0.16517445060E-01  0.26728696206E-01  0.13880627126E+00  0.45861130206E-01 0.  0.
         14    1    1    2    0    0  0.10449592973E-01 -0.86944424685E-02 -0.37207857113E-02  0.14093671255E-01  0.00000000000E+00 0.  1.
     999901    1    3    3    0    0 -0.13763720434E+00 -0.78230025915E-02 -0.23007910495E-01  0.89103005748E+00  0.88000000000E+00 0.  1.
        -11    1    4    4    0    0  0.47480343829E-01 -0.12621393911E-01 -0.20965384340E-02  0.49176612620E-01  0.51100000000E-03 0. -1.
         11    1    4    4    0    0  0.79707267542E-01  0.29138838971E-01  0.28825234640E-01  0.89629658644E-01  0.51100000000E-03 0.  1.
</event>
<event>
 8    1  0.2123879E+004  0.1043930E+01  0.7957747E-01            NaN
         13   -1    0    0    0    0  0.00000000000E+00  0.00000000000E+00  0.74505805969E-08  0.10566000000E+00  0.10566000000E+00 0.  1.
     999900   -1    0    0    0    0 -0.00000000000E+00 -0.00000000000E+00 -0.74505805969E-08  0.93827000000E+00  0.93827000000E+00 0. -1.
     999902    2    1    2    0    0 -0.16271604466E-02  0.12743874909E-01  0.51701356545E-02  0.10300813791E+01  0.10299882830E+01 0.  0.
     999903    2    3    3    0    0  0.64023413158E-01 -0.10661041627E+00  0.42921172108E-01  0.13880107222E+00  0.44257568210E-01 0.  0.
         14    1    1    2    0    0  0.16271604466E-02 -0.12743874909E-01 -0.51701356545E-02  0.13848620924E-01  0.00000000000E+00 0.  1.
     999901    1    3    3    0    0 -0.65650573605E-01  0.11935429118E+00 -0.37751036454E-01  0.89128030686E+00  0.88000000000E+00 0. -1.
        -11    1    4    4    0    0  0.45124332550E-01 -0.62291998940E-01  0.42828635510E-02  0.77039616830E-01  0.51100000000E-03 0.  1.
         11    1    4    4    0    0  0.18899080608E-01 -0.44318417332E-01  0.38638308557E-01  0.61761455389E-01  0.51100000000E-03 0. -1.
</event>
<event>
 8    1  0.2123879E+004  0.1043930E+01  0.7957747E-01            NaN
         13   -1    0    0    0    0  0.00000000000E+00  0.00000000000E+00  0.74505805969E-08  0.10566000000E+00  0.10566000000E+00 0. -1.
     999900   -1    0    0    0    0 -0.00000000000E+00 -0.00000000000E+00 -0.74505805969E-08  0.93827000000E+00  0.93827000000E+00 0.  1.
     999902    2    1    2    0    0  0.41555453474E-02  0.12945739074E-01 -0.12564957975E-02  0.10302757150E+01  0.10301852306E+01 0.  0.
     999903    2    3    3    0    0  0.54338964068E-01 -0.10922503539E+00 -0.49615968432E-01  0.13910642006E+00  0.44788619162E-01 0.  0.
         14    1    1    2    0    0 -0.41555453474E-02 -0.12945739074E-01  0.12564957975E-02  0.13654285005E-01  0.00000000000E+00 0.  1.
     999901    1    3    3    0    0 -0.50183418721E-01  0.12217077446E+00  0.48359472634E-01  0.89116929494E+00  0.88000000000E+00 0. -1.
        -11    1    4    4    0    0  0.49178028321E-02 -0.54620897736E-01 -0.31555618140E-01  0.63274366147E-01  0.51100000000E-03 0.  1.
         11    1    4    4    0    0  0.49421161236E-01 -0.54604137651E-01 -0.18060350292E-01  0.75832053910E-01  0.51100000000E-03 0. -1.
</event>
<event>
 7    1  0.2123879E+004  0.1043930E+01  0.7957747E-01            NaN
         13   -1    0    0    0    0  0.00000000000E+00  0.00000000000E+00  0.74505805969E-08  0.10566000000E+00  0.10566000000E+00 0.  1.
     999900   -1    0    0    0    0 -0.00000000000E+00 -0.00000000000E+00 -0.74505805969E-08  0.93827000000E+00  0.93827000000E+00 0.  1.
     999903    2    1    2    0    0 -0.78405208792E-01  0.21432182120E-01  0.62731838391E-01  0.11222509636E+00  0.45304232789E-01 0.  0.
         14    1    1    2    0    0 -0.27557664877E-01 -0.29712620321E-01 -0.17541239895E-01  0.44158349119E-01  0.00000000000E+00 0. -1.
     999901    1    1    2    0    0  0.10596287367E+00  0.82804382017E-02 -0.45190598495E-01  0.88754655452E+00  0.88000000000E+00 0.  1.
        -11    1    3    3    0    0  0.20662968190E-02 -0.36401922839E-02  0.14525382009E-01  0.15125092591E-01  0.51100000000E-03 0.  1.
         11    1    3    3    0    0 -0.80471505611E-01  0.25072374403E-01  0.48206456382E-01  0.97100003767E-01  0.51100000000E-03 0. -1.
</event>
<event>
 8    1  0.2123879E+004  0.1043930E+01  0.7957747E-01            NaN
         13   -1    0    0    0    0  0.00000000000E+00  0.00000000000E+00  0.74505805969E-08  0.10566000000E+00  0.10566000000E+00 0.  1.
     999900   -1    0    0    0    0 -0.00000000000E+00 -0.00000000000E+00 -0.74505805969E-08  0.93827000000E+00  0.93827000000E+00 0. -1.
     999902    2    1    2    0    0 -0.29189912579E-02  0.67221548119E-02 -0.13738922576E-01  0.10283586844E+01  0.10282407879E+01 0.  0.
     999903    2    3    3    0    0  0.34091319506E-01 -0.98328863117E-01 -0.80431393008E-01  0.13883444918E+00  0.44441106088E-01 0.  0.
         14    1    1    2    0    0  0.29189912579E-02 -0.67221548119E-02  0.13738922576E-01  0.15571315578E-01  0.00000000000E+00 0.  1.
     999901    1    3    3    0    0 -0.37010310764E-01  0.10505101793E+00  0.66692470431E-01  0.88952423524E+00  0.88000000000E+00 0. -1.
        -11    1    4    4    0    0  0.38764523803E-01 -0.54287477804E-01 -0.34792791411E-01  0.75237078673E-01  0.51100000000E-03 0. -1.
         11    1    4    4    0    0 -0.46732042975E-02 -0.44041385312E-01 -0.45638601597E-01  0.63597370507E-01  0.51100000000E-03 0.  1.
</event>
<event>
 8    1  0.2123879E+004  0.1043930E+01  0.7957747E-01            NaN
         13   -1    0    0    0    0  0.00000000000E+00  0.00000000000E+00  0.74505805969E-08  0.10566000000E+00  0.10566000000E+00 0. -1.
     999900   -1    0    0    0    0 -0.00000000000E+00 -0.00000000000E+00 -0.74505805969E-08  0.93827000000E+00  0.93827000000E+00 0. -1.
     999902    2    1    2    0    0  0.53561112193E-02  0.11551397383E-01  0.11128638759E-01  0.10270193729E+01  0.10268801405E+01 0.  0.
     999903    2    3    3    0    0 -0.11265496229E+00 -0.59638930234E-01  0.17629006134E-01  0.13626860471E+00  0.44837576261E-01 0.  0.
         14    1    1    2    0    0 -0.53561112193E-02 -0.11551397383E-01 -0.11128638759E-01  0.16910627118E-01  0.00000000000E+00 0.  1.
     999901    1    3    3    0    0  0.11801107351E+00  0.71190327617E-01 -0.65003673750E-02  0.89075076817E+00  0.88000000000E+00 0. -1.
        -11    1    4    4    0    0 -0.71797644581E-01 -0.59869186163E-01  0.18948237352E-01  0.95386152239E-01  0.51100000000E-03 0.  1.
         11    1    4    4    0    0 -0.40857317711E-01  0.23025592956E-03 -0.13192312189E-02  0.40882452474E-01  0.51100000000E-03 0. -1.
</event>
<event>
 8    1  0.2123879E+004  0.1043930E+01  0.7957747E-01            NaN
         13   -1    0    0    0    0  0.00000000000E+00  0.00000000000E+00  0.74505805969E-08  0.10566000000E+00  0.10566000000E+00 0. -1.
     999900   -1    0    0    0    0 -0.00000000000E+00 -0.00000000000E+00 -0.74505805969E-08  0.93827000000E+00  0.93827000000E+00 0. -1.
     999902    2    1    2    0    0 -0.18350447399E-03  0.97687846250E-02  0.11001808500E-01  0.10292159721E+01  0.10291107883E+01 0.  0.
     999903    2    3    3    0    0  0.87374782656E-02 -0.12513477357E-02 -0.12990421664E+00  0.13789362010E+00  0.45405237198E-01 0.  0.
         14    1    1    2    0    0  0.18350447399E-03 -0.97687846250E-02 -0.11001808500E-01  0.14714027906E-01  0.00000000000E+00 0.  1.
     999901    1    3    3    0    0 -0.89209827395E-02  0.11020132361E-01  0.14090602514E+00  0.89132235200E+00  0.88000000000E+00 0.  1.
        -11    1    4    4    0    0  0.25976581649E-01  0.69737985559E-02 -0.68833102364E-01  0.73903137704E-01  0.51100000000E-03 0. -1.
         11    1    4    4    0    0 -0.17239103383E-01 -0.82251462917E-02 -0.61071114276E-01  0.63990482393E-01  0.51100000000E-03 0.  1.
</event>
<event>
 8    1  0.2123879E+004  0.1043930E+01  0.7957747E-01            NaN
         13   -1    0    0    0    0  0.00000000000E+00  0.00000000000E+00  0.74505805969E-08  0.10566000000E+00  0.10566000000E+00 0. -1.
     999900   -1    0    0    0    0 -0.00000000000E+00 -0.00000000000E+00 -0.74505805969E-08  0.93827000000E+00  0.93827000000E+00 0. -1.
     999902    2    1    2    0    0 -0.19051926924E-01 -0.56189986755E-02 -0.12192126880E-01  0.10206234124E+01  0.10203572673E+01 0.  0.
     999903    2    3    3    0    0 -0.12033029318E+00  0.10807886108E-01 -0.41060268781E-01  0.13419207295E+00  0.41537656560E-01 0.  0.
         14    1    1    2    0    0  0.19051926924E-01  0.56189986755E-02  0.12192126880E-01  0.23306587556E-01  0.00000000000E+00 0. -1.
     999901    1    3    3    0    0  0.10127836626E+00 -0.16426884784E-01  0.28868141901E-01  0.88643133949E+00  0.88000000000E+00 0.  1.
        -11    1    4    4    0    0 -0.73744040606E-01 -0.11172945062E-01 -0.13603857285E-01  0.75817836162E-01  0.51100000000E-03 0.  1.
         11    1    4    4    0    0 -0.46586252573E-01  0.21980831170E-01 -0.27456411496E-01  0.58374236792E-01  0.51100000000E-03 0. -1.
</event>
<event>
 8    1  0.2123879E+004  0.1043930E+01  0.7957747E-01            NaN
         13   -1    0    0    0    0  0.00000000000E+00  0.00000000000E+00  0.74505805969E-08  0.10566000000E+00  0.10566000000E+00 0. -1.
     999900   -1    0    0    0    0 -0.00000000000E+00 -0.00000000000E+00 -0.74505805969E-08  0.93827000000E+00  0.93827000000E+00 0. -1.
     999902    2    1    2    0    0 -0.41819500920E-02 -0.12313893633E-01 -0.21248422763E-02  0.10307529124E+01  0.10306686814E+01 0.  0.
     999903    2    3    3    0    0 -0.13362057733E+00 -0.40827918220E-03 -0.58892862193E-02  0.14119668994E+00  0.45245952098E-01 0.  0.
         14    1    1    2    0    0  0.41819500920E-02  0.12313893633E-01  0.21248422763E-02  0.13177087602E-01  0.00000000000E+00 0. -1.
     999901    1    3    3    0    0  0.12943862723E+00 -0.11905614450E-01  0.37644439430E-02  0.88955622246E+00  0.88000000000E+00 0.  1.
        -11    1    4    4    0    0 -0.37284775486E-01  0.20291577831E-01 -0.40359644377E-02  0.42643320038E-01  0.51100000000E-03 0.  1.
         11    1    4    4    0    0 -0.96335801839E-01 -0.20699857014E-01 -0.18533217816E-02  0.98553369902E-01  0.51100000000E-03 0. -1.
</event>
<event>
 8    1  0.2123879E+004  0.1043930E+01  0.7957747E-01            NaN
         13   -1    0    0    0    0  0.00000000000E+00  0.00000000000E+00  0.74505805969E-08  0.10566000000E+00  0.10566000000E+00 0.  1.
     999900   -1    0    0    0    0 -0.00000000000E+00 -0.00000000000E+00 -0.74505805969E-08  0.93827000000E+00  0.93827000000E+00 0.  1.
     999902    2    1    2    0    0  0.56960423775E-03 -0.42404579437E-02  0.12580844439E-01  0.10306415246E+01  0.10305558542E+01 0.  0.
     999903    2    3    3    0    0 -0.17347418582E-01  0.11943328570E+00 -0.52985576829E-01  0.13939791580E+00  0.45376920480E-01 0.  0.
         14    1    1    2    0    0 -0.56960423775E-03  0.42404579437E-02 -0.12580844439E-01  0.13288475434E-01  0.00000000000E+00 0. -1.
     999901    1    3    3    0    0  0.17917022820E-01 -0.12367374364E+00  0.65566421268E-01  0.89124360877E+00  0.88000000000E+00 0. -1.
        -11    1    4    4    0    0  0.11710331980E-01  0.29330296774E-01 -0.26117707825E-01  0.40985289642E-01  0.51100000000E-03 0.  1.
         11    1    4    4    0    0 -0.29057750563E-01  0.90102988925E-01 -0.26867869003E-01  0.98412626155E-01  0.51100000000E-03 0. -1.
</event>
<event>
 8    1  0.2123879E+004  0.1043930E+01  0.7957747E-01            NaN
         13   -1    0    0    0    0  0.00000000000E+00  0.00000000000E+00  0.74505805969E-08  0.10566000000E+00  0.10566000000E+00 0.  1.
     999900   -1    0    0    0    0 -0.00000000000E+00 -0.00000000000E+00 -0.74505805969E-08  0.93827000000E+00  0.93827000000E+00 0.  1.
     999902    2    1    2    0    0  0.11641865887E-01 -0.30099974261E-02 -0.64581368847E-02  0.10302808001E+01  0.10301903836E+01 0.  0.
     999903    2    3    3    0    0 -0.47507000557E-01 -0.12269895210E+00  0.13714416554E-01  0.13998255447E+00  0.45772069929E-01 0.  0.
         14    1    1    2    0    0 -0.11641865887E-01  0.30099974261E-02  0.64581368847E-02  0.13649199898E-01  0.00000000000E+00 0. -1.
     999901    1    3    3    0    0  0.59148866444E-01  0.11968895467E+00 -0.20172553438E-01  0.89029824564E+00  0.88000000000E+00 0.  1.
        -11    1    4    4    0    0 -0.55798997592E-01 -0.10906023419E+00  0.16992877422E-01  0.12367975508E+00  0.51100000000E-03 0. -1.
         11    1    4    4    0    0  0.82919970348E-02 -0.13638717909E-01 -0.32784608680E-02  0.16302799382E-01  0.51100000000E-03 0.  1.
</event>
<event>
 8    1  0.2123879E+004  0.1043930E+01  0.7957747E-01            NaN
         13   -1    0    0    0    0  0.00000000000E+00  0.00000000000E+00  0.74505805969E-08  0.10566000000E+00  0.10566000000E+00 0. -1.
     999900   -1    0    0    0    0 -0.00000000000E+00 -0.00000000000E+00 -0.74505805969E-08  0.93827000000E+00  0.93827000000E+00 0. -1.
     999902    2    1    2    0    0 -0.12057823178E-01  0.36966973746E-02  0.55502866942E-02  0.10301509451E+01  0.10300587883E+01 0.  0.
     999903    2    3    3    0    0  0.43401522410E-01  0.12419460626E+00 -0.14523294931E-01  0.13998330150E+00  0.45567600678E-01 0.  0.
         14    1    1    2    0    0  0.12057823178E-01 -0.36966973746E-02 -0.55502866942E-02  0.13779054890E-01  0.00000000000E+00 0.  1.
     999901    1    3    3    0    0 -0.55459345588E-01 -0.12049790888E+00  0.20073581625E-01  0.89016764361E+00  0.88000000000E+00 0. -1.
        -11    1    4    4    0    0  0.10510636008E-01  0.93794444730E-01 -0.80279218027E-02  0.94723703374E-01  0.51100000000E-03 0.  1.
         11    1    4    4    0    0  0.32890886401E-01  0.30400161526E-01 -0.64953731283E-02  0.45259598122E-01  0.51100000000E-03 0. -1.
</event>
<event>
 8    1  0.2123879E+004  0.1043930E+01  0.7957747E-01            NaN
         13   -1    0    0    0    0  0.00000000000E+00  0.00000000000E+00  0.74505805969E-08  0.10566000000E+00  0.10566000000E+00 0. -1.
     999900   -1    0    0    0    0 -0.00000000000E+00 -0.00000000000E+00 -0.74505805969E-08  0.93827000000E+00  0.93827000000E+00 0.  1.
     999902    2    1    2    0    0  0.50091112337E-02 -0.47371281684E-02  0.11598442807E-01  0.10304372073E+01  0.10303488646E+01 0.  0.
     999903    2    3    3    0    0  0.36524894724E-01  0.94521683779E-01  0.86412133475E-01  0.14114386727E+00  0.46755938837E-01 0.  0.
         14    1    1    2    0    0 -0.50091112337E-02  0.47371281684E-02 -0.11598442807E-01  0.13492792676E-01  0.00000000000E+00 0.  1.
     999901    1    3    3    0    0 -0.31515783491E-01 -0.99258811947E-01 -0.74813690668E-01  0.88929334006E+00  0.88000000000E+00 0.  1.
        -11    1    4    4    0    0 -0.36187129778E-02  0.55097208143E-01  0.45987025632E-01  0.71860038104E-01  0.51100000000E-03 0.  1.
         11    1    4    4    0    0  0.40143607702E-01  0.39424475636E-01  0.40425107843E-01  0.69283829164E-01  0.51100000000E-03 0. -1.
</event>
<event>
 8    1  0.2123879E+004  0.1043930E+01  0.7957747E-01            NaN
         13   -1    0    0    0    0  0.00000000000E+00  0.00000000000E+00  0.74505805969E-08  0.10566000000E+00  0.10566000000E+00 0. -1.
     999900   -1    0    0    0    0 -0.00000000000E+00 -0.00000000000E+00 -0.74505805969E-08  0.93827000000E+00  0.93827000000E+00 0. -1.
     999902    2    1    2    0    0 -0.37710173951E-02  0.13419129847E-01 -0.14105115687E-02  0.10299198908E+01  0.10298245959E+01 0.  0.
     999903    2    3    3    0    0  0.67854385352E-01 -0.43325462803E-01  0.10392817364E+00  0.13893931537E+00  0.44963927106E-01 0.  0.
         14    1    1    2    0    0  0.37710173951E-02 -0.13419129847E-01  0.14105115687E-02  0.14010109240E-01  0.00000000000E+00 0. -1.
     999901    1    3    3    0    0 -0.71625402747E-01  0.56744592650E-01 -0.10533868521E+00  0.89098057539E+00  0.88000000000E+00 0. -1.
        -11    1    4    4    0    0  0.56708473689E-01 -0.26870626666E-01  0.46322558179E-01  0.77999500529E-01  0.51100000000E-03 0.  1.
         11    1    4    4    0    0  0.11145911663E-01 -0.16454836137E-01  0.57605615465E-01  0.60939814844E-01  0.51100000000E-03 0. -1.
</event>
<event>
 8    1  0.2123879E+004  0.1043930E+01  0.7957747E-01            NaN
         13   -1    0    0    0    0  0.00000000000E+00  0.00000000000E+00  0.74505805969E-08  0.10566000000E+00  0.10566000000E+00 0.  1.
     999900   -1    0    0    0    0 -0.00000000000E+00 -0.00000000000E+00 -0.74505805969E-08  0.93827000000E+00  0.93827000000E+00 0. -1.
     999902    2    1    2    0    0 -0.46221967150E-02 -0.95688888044E-02  0.94825310638E-02  0.10296875729E+01  0.10295890690E+01 0.  0.
     999903    2    3    3    0    0  0.40715564775E-01  0.63876443288E-01 -0.10500728643E+00  0.13808359814E+00  0.47985337876E-01 0.  0.
         14    1    1    2    0    0  0.46221967150E-02  0.95688888044E-02 -0.94825310638E-02  0.14242427139E-01  0.00000000000E+00 0.  1.
     999901    1    3    3    0    0 -0.45337761490E-01 -0.73445332092E-01  0.11448981749E+00  0.89160397472E+00  0.88000000000E+00 0.  1.
        -11    1    4    4    0    0  0.42574373074E-01  0.23398565461E-01 -0.64880433261E-01  0.81054314194E-01  0.51100000000E-03 0.  1.
         11    1    4    4    0    0 -0.18588082991E-02  0.40477877827E-01 -0.40126853168E-01  0.57029283950E-01  0.51100000000E-03 0. -1.
</event>
<event>
 8    1  0.2123879E+004  0.1043930E+01  0.7957747E-01            NaN
         13   -1    0    0    0    0  0.00000000000E+00  0.00000000000E+00  0.74505805969E-08  0.10566000000E+00  0.10566000000E+00 0. -1.
     999900   -1    0    0    0    0 -0.00000000000E+00 -0.00000000000E+00 -0.74505805969E-08  0.93827000000E+00  0.93827000000E+00 0. -1.
     999902    2    1    2    0    0 -0.57382068086E-02 -0.66585422258E-02 -0.90766437289E-02  0.10312947848E+01  0.10312173798E+01 0.  0.
     999903    2    3    3    0    0 -0.76056010976E-01 -0.11089464171E+00 -0.14975778980E-01  0.14233777919E+00  0.44199898884E-01 0.  0.
         14    1    1    2    0    0  0.57382068086E-02  0.66585422258E-02  0.90766437289E-02  0.12635215207E-01  0.00000000000E+00 0. -1.
     999901    1    3    3    0    0  0.70317804168E-01  0.10423609949E+00  0.58991352513E-02  0.88895700561E+00  0.88000000000E+00 0.  1.
        -11    1    4    4    0    0 -0.25004435036E-01 -0.57944832903E-01 -0.25433954211E-01  0.68043901853E-01  0.51100000000E-03 0. -1.
         11    1    4    4    0    0 -0.51051575941E-01 -0.52949808811E-01  0.10458175231E-01  0.74293877334E-01  0.51100000000E-03 0.  1.
</event>
<event>
 8    1  0.2123879E+004  0.1043930E+01  0.7957747E-01            NaN
         13   -1    0    0    0    0  0.00000000000E+00  0.00000000000E+00  0.74505805969E-08  0.10566000000E+00  0.10566000000E+00 0.  1.
     999900   -1    0    0    0    0 -0.00000000000E+00 -0.00000000000E+00 -0.74505805969E-08  0.93827000000E+00  0.93827000000E+00 0.  1.
     999902    2    1    2    0    0  0.39815154552E-02 -0.89191454475E-02 -0.95883482006E-02  0.10302427781E+01  0.10301518538E+01 0.  0.
     999903    2    3    3    0    0  0.66466804537E-01 -0.66950482439E-01 -0.96762291608E-01  0.14183333210E+00  0.43052872285E-01 0.  0.
         14    1    1    2    0    0 -0.39815154552E-02  0.89191454475E-02  0.95883482006E-02  0.13687221853E-01  0.00000000000E+00 0.  1.
     999901    1    3    3    0    0 -0.62485289082E-01  0.58031336991E-01  0.87173943407E-01  0.88840944605E+00  0.88000000000E+00 0. -1.
        -11    1    4    4    0    0  0.68207480959E-01 -0.49265276728E-01 -0.68751310472E-01  0.10865694530E+00  0.51100000000E-03 0.  1.
         11    1    4    4    0    0 -0.17406764222E-02 -0.17685205711E-01 -0.28010981136E-01  0.33176386793E-01  0.51100000000E-03 0. -1.
</event>
<event>
 8    1  0.2123879E+004  0.1043930E+01  0.7957747E-01            NaN
         13   -1    0    0    0    0  0.00000000000E+00  0.00000000000E+00  0.74505805969E-08  0.10566000000E+00  0.10566000000E+00 0.  1.
     999900   -1    0    0    0    0 -0.00000000000E+00 -0.00000000000E+00 -0.74505805969E-08  0.93827000000E+00  0.93827000000E+00 0. -1.
     999902    2    1    2    0    0 -0.10357953511E-01  0.92829559338E-02 -0.14370553199E-02  0.10299469531E+01  0.10298520285E+01 0.  0.
     999903    2    3    3    0    0 -0.82661660655E-01 -0.82340866075E-01 -0.64405467986E-01  0.14001000490E+00  0.42915833883E-01 0.  0.
         14    1    1    2    0    0  0.10357953511E-01 -0.92829559338E-02  0.14370553199E-02  0.13983046871E-01  0.00000000000E+00 0. -1.
     999901    1    3    3    0    0  0.72303707143E-01  0.91623822009E-01  0.62968412666E-01  0.88993694823E+00  0.88000000000E+00 0.  1.
        -11    1    4    4    0    0 -0.35129156967E-01 -0.56477895246E-01 -0.18478777752E-01  0.69032866584E-01  0.51100000000E-03 0. -1.
         11    1    4    4    0    0 -0.47532503687E-01 -0.25862970829E-01 -0.45926690233E-01  0.70977138317E-01  0.51100000000E-03 0.  1.
</event>
<event>
 8    1  0.2123879E+004  0.1043930E+01  0.7957747E-01            NaN
         13   -1    0    0    0    0  0.00000000000E+00  0.00000000000E+00  0.74505805969E-08  0.10566000000E+00  0.10566000000E+00 0. -1.
     999900   -1    0    0    0    0 -0.00000000000E+00 -0.00000000000E+00 -0.74505805969E-08  0.93827000000E+00  0.93827000000E+00 0. -1.
     999902    2    1    2    0    0 -0.76317695925E-03  0.12889618912E-01  0.43018382575E-02  0.10303200578E+01  0.10302301641E+01 0.  0.
     999903    2    3    3    0    0  0.12355967168E+00  0.30695237888E-01 -0.39033500402E-01  0.14034749509E+00  0.44323979185E-01 0.  0.
         14    1    1    2    0    0  0.76317695925E-03 -0.12889618912E-01 -0.43018382575E-02  0.13609942217E-01  0.00000000000E+00 0. -1.
     999901    1    3    3    0    0 -0.12432284864E+00 -0.17805618976E-01  0.43335338660E-01  0.88997256269E+00  0.88000000000E+00 0.  1.
        -11    1    4    4    0    0  0.64578639313E-01  0.42889106102E-02 -0.39304446185E-01  0.75722493492E-01  0.51100000000E-03 0. -1.
         11    1    4    4    0    0  0.58981032368E-01  0.26406327278E-01  0.27094578291E-03  0.64625001602E-01  0.51100000000E-03 0.  1.
</event>
<event>
 8    1  0.2123879E+004  0.1043930E+01  0.7957747E-01            NaN
         13   -1    0    0    0    0  0.00000000000E+00  0.00000000000E+00  0.74505805969E-08  0.10566000000E+00  0.10566000000E+00 0.  1.
     999900   -1    0    0    0    0 -0.00000000000E+00 -0.00000000000E+00 -0.74505805969E-08  0.93827000000E+00  0.93827000000E+00 0.  1.
     999902    2    1    2    0    0  0.10455164350E-01  0.68735221197E-02 -0.53015160537E-02  0.10303409662E+01  0.10302513503E+01 0.  0.
     999903    2    3    3    0    0  0.11848136042E+00 -0.49382823944E-01  0.37773137982E-01  0.14090864085E+00  0.44180754240E-01 0.  0.
         14    1    1    2    0    0 -0.10455164350E-01 -0.68735221197E-02  0.53015160537E-02  0.13589033828E-01  0.00000000000E+00 0. -1.
     999901    1    3    3    0    0 -0.10802619607E+00  0.56256346064E-01 -0.43074654036E-01  0.88943232532E+00  0.88000000000E+00 0. -1.
        -11    1    4    4    0    0  0.15257739012E-01 -0.58821176657E-04  0.19955896884E-01  0.25125703993E-01  0.51100000000E-03 0.  1.
         11    1    4    4    0    0  0.10322362141E+00 -0.49324002767E-01  0.17817241098E-01  0.11578293686E+00  0.51100000000E-03 0. -1.
</event>
<event>
 8    1  0.2123879E+004  0.1043930E+01  0.7957747E-01            NaN
         13   -1    0    0    0    0  0.00000000000E+00  0.00000000000E+00  0.74505805969E-08  0.10566000000E+00  0.10566000000E+00 0.  1.
     999900   -1    0    0    0    0 -0.00000000000E+00 -0.00000000000E+00 -0.74505805969E-08  0.93827000000E+00  0.93827000000E+00 0. -1.
     999902    2    1    2    0    0 -0.55460363948E-02  0.48874369439E-02 -0.11544346356E-01  0.10302216999E+01  0.10301304934E+01 0.  0.
     999903    2    3    3    0    0 -0.55202933010E-01  0.11870788230E+00  0.25262832650E-01  0.14074113820E+00  0.45065864420E-01 0.  0.
         14    1    1    2    0    0  0.55460363948E-02 -0.48874369439E-02  0.11544346356E-01  0.13708300127E-01  0.00000000000E+00 0.  1.
     999901    1    3    3    0    0  0.49656896616E-01 -0.11382044536E+00 -0.36807179006E-01  0.88948056167E+00  0.88000000000E+00 0. -1.
        -11    1    4    4    0    0 -0.19643334710E-01  0.91451306582E-01  0.14452337636E-01  0.94648472033E-01  0.51100000000E-03 0. -1.
         11    1    4    4    0    0 -0.35559598301E-01  0.27256575719E-01  0.10810495014E-01  0.46092666170E-01  0.51100000000E-03 0.  1.
</event>
<event>
 8    1  0.2123879E+004  0.1043930E+01  0.7957747E-01            NaN
         13   -1    0    0    0    0  0.00000000000E+00  0.00000000000E+00  0.74505805969E-08  0.10566000000E+00  0.10566000000E+00 0. -1.
     999900   -1    0    0    0    0 -0.00000000000E+00 -0.00000000000E+00 -0.74505805969E-08  0.93827000000E+00  0.93827000000E+00 0. -1.
     999902    2    1    2    0    0 -0.13677594760E-01  0.38813424460E-02 -0.11872882777E-02  0.10296628675E+01  0.10295640192E+01 0.  0.
     999903    2    3    3    0    0  0.66308435483E-01 -0.44276370896E-01 -0.10435201683E+00  0.13873083211E+00  0.44717946338E-01 0.  0.
         14    1    1    2    0    0  0.13677594760E-01 -0.38813424460E-02  0.11872882777E-02  0.14267132545E-01  0.00000000000E+00 0. -1.
     999901    1    3    3    0    0 -0.79986030243E-01  0.48157713342E-01  0.10316472855E+00  0.89093203535E+00  0.88000000000E+00 0.  1.
        -11    1    4    4    0    0  0.28551243824E-01  0.38285416208E-03 -0.55945619828E-01  0.62813164226E-01  0.51100000000E-03 0. -1.
         11    1    4    4    0    0  0.37757191659E-01 -0.44659225058E-01 -0.48406397004E-01  0.75917667882E-01  0.51100000000E-03 0.  1.
</event>
<event>
 8    1  0.2123879E+004  0.1043930E+01  0.7957747E-01            NaN
         13   -1    0    0    0    0  0.00000000000E+00  0.00000000000E+00  0.74505805969E-08  0.10566000000E+00  0.10566000000E+00 0.  1.
     999900   -1    0    0    0    0 -0.00000000000E+00 -0.00000000000E+00 -0.74505805969E-08  0.93827000000E+00  0.93827000000E+00 0. -1.
     999902    2    1    2    0    0 -0.12639226200E-02  0.15469248990E-01 -0.40547800573E-03  0.10284039066E+01  0.10282866991E+01 0.  0.
     999903    2    3    3    0    0 -0.60393836402E-01  0.27737851899E-01 -0.11417633392E+00  0.13902734236E+00  0.43307768253E-01 0.  0.
         14    1    1    2    0    0  0.12639226200E-02 -0.15469248990E-01  0.40547800573E-03  0.15526093427E-01  0.00000000000E+00 0.  1.
     999901    1    3    3    0    0  0.59129913782E-01 -0.12268602910E-01  0.11377085592E+00  0.88937656422E+00  0.88000000000E+00 0.  1.
        -11    1    4    4    0    0 -0.19620951199E-01  0.26051095528E-01 -0.77787894444E-01  0.84349623278E-01  0.51100000000E-03 0. -1.
         11    1    4    4    0    0 -0.40772885202E-01  0.16867563715E-02 -0.36388439480E-01  0.54677719078E-01  0.51100000000E-03 0.  1.
</event>
<event>
 8    1  0.2123879E+004  0.1043930E+01  0.7957747E-01            NaN
         13   -1    0    0    0    0  0.00000000000E+00  0.00000000000E+00  0.74505805969E-08  0.10566000000E+00  0.10566000000E+00 0.  1.
     999900   -1    0    0    0    0 -0.00000000000E+00 -0.00000000000E+00 -0.74505805969E-08  0.93827000000E+00  0.93827000000E+00 0.  1.
     999902    2    1    2    0    0 -0.28745067715E-02 -0.12772935825E-01  0.52283025010E-02  0.10298322759E+01  0.10297357771E+01 0.  0.
     999903    2    3    3    0    0 -0.48135385900E-01  0.29216664165E-01  0.11871489174E+00  0.14039937810E+00  0.49478591420E-01 0.  0.
         14    1    1    2    0    0  0.28745067715E-02  0.12772935825E-01 -0.52283025010E-02  0.14097724136E-01  0.00000000000E+00 0.  1.
     999901    1    3    3    0    0  0.45260879129E-01 -0.41989599990E-01 -0.11348658924E+00  0.88943289776E+00  0.88000000000E+00 0.  1.
        -11    1    4    4    0    0 -0.48955735916E-01  0.38609407492E-01  0.85186773047E-01  0.10556703012E+00  0.51100000000E-03 0. -1.
         11    1    4    4    0    0  0.82035001544E-03 -0.93927433269E-02  0.33528118696E-01  0.34832347977E-01  0.51100000000E-03 0.  1.
</event>
<event>
 8    1  0.2123879E+004  0.1043930E+01  0.7957747E-01            NaN
         13   -1    0    0    0    0  0.00000000000E+00  0.00000000000E+00  0.74505805969E-08  0.10566000000E+00  0.10566000000E+00 0.  1.
     999900   -1    0    0    0    0 -0.00000000000E+00 -0.00000000000E+00 -0.74505805969E-08  0.93827000000E+00  0.93827000000E+00 0. -1.
     999902    2    1    2    0    0  0.36727316412E-02 -0.11744386707E-01 -0.14522773885E-02  0.10315393307E+01  0.10314649107E+01 0.  0.
     999903    2    3    3    0    0  0.91834200042E-01 -0.92468825850E-01 -0.37619769363E-01  0.14272159510E+00  0.44386964414E-01 0.  0.
         14    1    1    2    0    0 -0.36727316412E-02  0.11744386707E-01  0.14522773885E-02  0.12390669330E-01  0.00000000000E+00 0.  1.
     999901    1    3    3    0    0 -0.88161468401E-01  0.80724439143E-01  0.36167491974E-01  0.88881773557E+00  0.88000000000E+00 0.  1.
        -11    1    4    4    0    0  0.14631871398E-01  0.24110193177E-02 -0.80308641659E-02  0.16871887120E-01  0.51100000000E-03 0.  1.
         11    1    4    4    0    0  0.77202328644E-01 -0.94879845168E-01 -0.29588905197E-01  0.12584970798E+00  0.51100000000E-03 0. -1.
</event>
<event>
 8    1  0.2123879E+004  0.1043930E+01  0.7957747E-01            NaN
         13   -1    0    0    0    0  0.00000000000E+00  0.00000000000E+00  0.74505805969E-08  0.10566000000E+00  0.10566000000E+00 0. -1.
     999900   -1    0    0    0    0 -0.00000000000E+00 -0.00000000000E+00 -0.74505805969E-08  0.93827000000E+00  0.93827000000E+00 0. -1.
     999902    2    1    2    0    0  0.88606232375E-02 -0.75566740293E-02 -0.75056900487E-02  0.10300754213E+01  0.10299822447E+01 0.  0.
     999903    2    3    3    0    0 -0.11207636565E+00  0.68160256912E-01  0.98987859935E-03  0.13854248107E+00  0.44565758613E-01 0.  0.
         14    1    1    2    0    0 -0.88606232375E-02  0.75566740293E-02  0.75056900487E-02  0.13854578653E-01  0.00000000000E+00 0. -1.
     999901    1    3    3    0    0  0.12093698889E+00 -0.75716930941E-01 -0.84955686480E-02  0.89153294028E+00  0.88000000000E+00 0. -1.
        -11    1    4    4    0    0 -0.76893963035E-01  0.68589851029E-01 -0.32940199554E-02  0.10309394213E+00  0.51100000000E-03 0. -1.
         11    1    4    4    0    0 -0.35182402618E-01 -0.42959411676E-03  0.42838985547E-02  0.35448538939E-01  0.51100000000E-03 0.  1.
</event>
<event>
 8    1  0.2123879E+004  0.1043930E+01  0.7957747E-01            NaN
         13   -1    0    0    0    0  0.00000000000E+00  0.00000000000E+00  0.74505805969E-08  0.10566000000E+00  0.10566000000E+00 0. -1.
     999900   -1    0    0    0    0 -0.00000000000E+00 -0.00000000000E+00 -0.74505805969E-08  0.93827000000E+00  0.93827000000E+00 0. -1.
     999902    2    1    2    0    0  0.10224033559E-01 -0.38754520433E-02  0.73455776893E-02  0.10307577753E+01  0.10306736069E+01 0.  0.
     999903    2    3    3    0    0  0.38021602803E-01 -0.11386096116E-01 -0.12656497714E+00  0.14016182244E+00  0.45291915027E-01 0.  0.
         14    1    1    2    0    0 -0.10224033559E-01  0.38754520433E-02 -0.73455776893E-02  0.13172224655E-01  0.00000000000E+00 0.  1.
     999901    1    3    3    0    0 -0.27797569244E-01  0.75106440730E-02  0.13391055483E+00  0.89059595290E+00  0.88000000000E+00 0.  1.
        -11    1    4    4    0    0  0.34233564026E-01 -0.90032123262E-02 -0.39745431925E-01  0.53225512849E-01  0.51100000000E-03 0.  1.
         11    1    4    4    0    0  0.37880387771E-02 -0.23828837901E-02 -0.86819545218E-01  0.86936309594E-01  0.51100000000E-03 0. -1.
</event>
<event>
 8    1  0.2123879E+004  0.1043930E+01  0.7957747E-01            NaN
         13   -1    0    0    0    0  0.00000000000E+00  0.00000000000E+00  0.74505805969E-08  0.10566000000E+00  0.10566000000E+00 0. -1.
     999900   -1    0    0    0    0 -0.00000000000E+00 -0.00000000000E+00 -0.74505805969E-08  0.93827000000E+00  0.93827000000E+00 0. -1.
     999902    2    1    2    0    0 -0.12581140623E-01  0.46995426736E-02  0.20972424817E-02  0.10303370155E+01  0.10302473472E+01 0.  0.
     999903    2    3    3    0    0 -0.23738026758E-01  0.22058114912E-02 -0.13064152611E+00  0.14030877132E+00  0.45287784745E-01 0.  0.
         14    1    1    2    0    0  0.12581140623E-01 -0.46995426736E-02 -0.20972424817E-02  0.13592984468E-01  0.00000000000E+00 0. -1.
     999901    1    3    3    0    0  0.11156886135E-01  0.24937311824E-02  0.13273876859E+00  0.89002824421E+00  0.88000000000E+00 0.  1.
        -11    1    4    4    0    0 -0.19195395659E-01  0.22331835165E-01 -0.90507935631E-01  0.95179417993E-01  0.51100000000E-03 0. -1.
         11    1    4    4    0    0 -0.45426310987E-02 -0.20126023674E-01 -0.40133590478E-01  0.45129353329E-01  0.51100000000E-03 0.  1.
</event>
<event>
 8    1  0.2123879E+004  0.1043930E+01  0.7957747E-01            NaN
         13   -1    0    0    0    0  0.00000000000E+00  0.00000000000E+00  0.74505805969E-08  0.10566000000E+00  0.10566000000E+00 0.  1.
     999900   -1    0    0    0    0 -0.00000000000E+00 -0.00000000000E+00 -0.74505805969E-08  0.93827000000E+00  0.93827000000E+00 0.  1.
     999902    2    1    2    0    0  0.77240571094E-02  0.54565104770E-02 -0.98698277990E-02  0.10302607621E+01  0.10301700781E+01 0.  0.
     999903    2    3    3    0    0  0.68230535771E-01  0.10136147347E+00 -0.56031676239E-01  0.14178470041E+00  0.45097651981E-01 0.  0.
         14    1    1    2    0    0 -0.77240571094E-02 -0.54565104770E-02  0.98698277990E-02  0.13669237930E-01  0.00000000000E+00 0.  1.
     999901    1    3    3    0    0 -0.60506478661E-01 -0.95904962989E-01  0.46161848440E-01  0.88847606166E+00  0.88000000000E+00 0. -1.
        -11    1    4    4    0    0  0.69873948702E-01  0.71068405883E-01 -0.46507003790E-01  0.10998295115E+00  0.51100000000E-03 0.  1.
         11    1    4    4    0    0 -0.16434129316E-02  0.30293067583E-01 -0.95246724491E-02  0.31801749259E-01  0.51100000000E-03 0. -1.
</event>
<event>
 8    1  0.2123879E+004  0.1043930E+01  0.7957747E-01            NaN
         13   -1    0    0    0    0  0.00000000000E+00  0.00000000000E+00  0.74505805969E-08  0.10566000000E+00  0.10566000000E+00 0.  1.
     999900   -1    0    0    0    0 -0.00000000000E+00 -0.00000000000E+00 -0.74505805969E-08  0.93827000000E+00  0.93827000000E+00 0.  1.
     999902    2    1    2    0    0 -0.98197108506E-02 -0.76497512657E-02 -0.13789566576E-01  0.10253531983E+01  0.10251849022E+01 0.  0.
     999903    2    3    3    0    0 -0.56556216101E-01  0.86465735563E-01  0.74080016918E-01  0.13475615726E+00  0.44681584641E-01 0.  0.
         14    1    1    2    0    0  0.98197108506E-02  0.76497512657E-02  0.13789566576E-01  0.18576801715E-01  0.00000000000E+00 0.  1.
     999901    1    3    3    0    0  0.46736505250E-01 -0.94115486828E-01 -0.87869583494E-01  0.89059704103E+00  0.88000000000E+00 0.  1.
        -11    1    4    4    0    0 -0.20338753888E-01  0.41632548471E-01  0.79171332255E-02  0.47009319516E-01  0.51100000000E-03 0. -1.
         11    1    4    4    0    0 -0.36217462213E-01  0.44833187092E-01  0.66162883692E-01  0.87746837741E-01  0.51100000000E-03 0.  1.
</event>
<event>
 8    1  0.2123879E+004  0.1043930E+01  0.7957747E-01            NaN
         13   -1    0    0    0    0  0.00000000000E+00  0.00000000000E+00  0.74505805969E-08  0.10566000000E+00  0.10566000000E+00 0. -1.
     999900   -1    0    0    0    0 -0.00000000000E+00 -0.00000000000E+00 -0.74505805969E-08  0.93827000000E+00  0.93827000000E+00 0.  1.
     999902    2    1    2    0    0  0.86126303050E-02  0.10063707927E-01  0.52494862564E-02  0.10296817466E+01  0.10295831616E+01 0.  0.
     999903    2    3    3    0    0  0.14600946711E-01  0.13189446950E+00  0.17833573000E-01  0.14117909968E+00  0.44767880583E-01 0.  0.
         14    1    1    2    0    0 -0.86126303050E-02 -0.10063707927E-01 -0.52494862564E-02  0.14248253366E-01  0.00000000000E+00 0.  1.
     999901    1    3    3    0    0 -0.59883164062E-02 -0.12183076157E+00 -0.12584086744E-01  0.88850264695E+00  0.88000000000E+00 0.  1.
        -11    1    4    4    0    0 -0.12711822870E-01  0.76857877559E-01  0.29532417813E-02  0.77959646879E-01  0.51100000000E-03 0.  1.
         11    1    4    4    0    0  0.27312769581E-01  0.55036591942E-01  0.14880331219E-01  0.63219452804E-01  0.51100000000E-03 0. -1.
</event>
<event>
 7    1  0.2643376E+004  0.1043930E+01  0.7957747E-01            NaN
         13   -1    0    0    0    0  0.00000000000E+00  0.00000000000E+00  0.74505805969E-08  0.10566000000E+00  0.10566000000E+00 0. -1.
     999900   -1    0    0    0    0 -0.00000000000E+00 -0.00000000000E+00 -0.74505805969E-08  0.93827000000E+00  0.93827000000E+00 0.  1.
     999903    2    1    2    0    0 -0.40700218552E-01  0.84336783145E-02 -0.68318130715E-01  0.92582127219E-01  0.46652423044E-01 0.  0.
         14    1    1    2    0    0 -0.17423847847E-01  0.60376866247E-01 -0.85358093649E-02  0.63417793190E-01  0.00000000000E+00 0.  1.
     999901    1    1    2    0    0  0.58124066399E-01 -0.68810544561E-01  0.76853940080E-01  0.88793007959E+00  0.88000000000E+00 0.  1.
        -11    1    3    3    0    0  0.57583044521E-02 -0.24456874554E-02 -0.32014523619E-01  0.32624075479E-01  0.51100000000E-03 0. -1.
         11    1    3    3    0    0 -0.46458523004E-01  0.10879365770E-01 -0.36303607096E-01  0.59958051740E-01  0.51100000000E-03 0.  1.
</event>
<event>
 8    1  0.2123879E+004  0.1043930E+01  0.7957747E-01            NaN
         13   -1    0    0    0    0  0.00000000000E+00  0.00000000000E+00  0.74505805969E-08  0.10566000000E+00  0.10566000000E+00 0. -1.
     999900   -1    0    0    0    0 -0.00000000000E+00 -0.00000000000E+00 -0.74505805969E-08  0.93827000000E+00  0.93827000000E+00 0.  1.
     999902    2    1    2    0    0 -0.45352917166E-02 -0.31549983232E-02 -0.17243205539E-01  0.10258233431E+01  0.10256635317E+01 0.  0.
     999903    2    3    3    0    0 -0.81593351374E-01 -0.12553334512E-01  0.96523987968E-01  0.13511056811E+00  0.46075201210E-01 0.  0.
         14    1    1    2    0    0  0.45352917166E-02  0.31549983232E-02  0.17243205539E-01  0.18106656859E-01  0.00000000000E+00 0. -1.
     999901    1    3    3    0    0  0.77058059657E-01  0.93983361887E-02 -0.11376719351E+00  0.89071277503E+00  0.88000000000E+00 0.  1.
        -11    1    4    4    0    0 -0.17421110409E-01  0.16354686287E-01  0.20272779485E-01  0.31340350357E-01  0.51100000000E-03 0.  1.
         11    1    4    4    0    0 -0.64172240964E-01 -0.28908020799E-01  0.76251208483E-01  0.10377021775E+00  0.51100000000E-03 0. -1.
</event>
<event>
 8    1  0.2123879E+004  0.1043930E+01  0.7957747E-01            NaN
         13   -1    0    0    0    0  0.00000000000E+00  0.00000000000E+00  0.74505805969E-08  0.10566000000E+00  0.10566000000E+00 0.  1.
     999900   -1    0    0    0    0 -0.00000000000E+00 -0.00000000000E+00 -0.74505805969E-08  0.93827000000E+00  0.93827000000E+00 0.  1.
     999902    2    1    2    0    0 -0.60290274151E-02 -0.11432201255E-01 -0.31214736020E-02  0.10306338353E+01  0.10305480651E+01 0.  0.
     999903    2    3    3    0    0  0.11236560730E+00  0.54157221371E-01 -0.43049235779E-01  0.13939117025E+00  0.44918006536E-01 0.  0.
         14    1    1    2    0    0  0.60290274151E-02  0.11432201255E-01  0.31214736020E-02  0.13296164656E-01  0.00000000000E+00 0.  1.
     999901    1    3    3    0    0 -0.11839463472E+00 -0.65589422626E-01  0.39927762177E-01  0.89124266509E+00  0.88000000000E+00 0.  1.
        -11    1    4    4    0    0  0.75199420573E-01  0.11939917127E-01 -0.28393314993E-01  0.81264727482E-01  0.51100000000E-03 0.  1.
         11    1    4    4    0    0  0.37166186731E-01  0.42217304244E-01 -0.14655920786E-01  0.58126442768E-01  0.51100000000E-03 0. -1.
</event>
<event>
 8    1  0.2123879E+004  0.1043930E+01  0.7957747E-01            NaN
         13   -1    0    0    0    0  0.00000000000E+00  0.00000000000E+00  0.74505805969E-08  0.10566000000E+00  0.10566000000E+00 0. -1.
     999900   -1    0    0    0    0 -0.00000000000E+00 -0.00000000000E+00 -0.74505805969E-08  0.93827000000E+00  0.93827000000E+00 0.  1.
     999902    2    1    2    0    0  0.44894183099E-02  0.66136281461E-02 -0.11693943968E-01  0.10297651393E+01  0.10296677128E+01 0.  0.
     999903    2    3    3    0    0  0.49034418893E-01 -0.38299895713E-01  0.11512065236E+00  0.13842714303E+00  0.45144801253E-01 0.  0.
         14    1    1    2    0    0 -0.44894183099E-02 -0.66136281461E-02  0.11693943968E-01  0.14164860731E-01  0.00000000000E+00 0. -1.
     999901    1    3    3    0    0 -0.44545000583E-01  0.44913523859E-01 -0.12681459632E+00  0.89133799624E+00  0.88000000000E+00 0.  1.
        -11    1    4    4    0    0  0.35547518041E-01 -0.14926530048E-02  0.38926426453E-01  0.52738807810E-01  0.51100000000E-03 0. -1.
         11    1    4    4    0    0  0.13486900853E-01 -0.36807242709E-01  0.76194225903E-01  0.85688335218E-01  0.51100000000E-03 0.  1.
</event>
<event>
 8    1  0.2123879E+004  0.1043930E+01  0.7957747E-01            NaN
         13   -1    0    0    0    0  0.00000000000E+00  0.00000000000E+00  0.74505805969E-08  0.10566000000E+00  0.10566000000E+00 0. -1.
     999900   -1    0    0    0    0 -0.00000000000E+00 -0.00000000000E+00 -0.74505805969E-08  0.93827000000E+00  0.93827000000E+00 0. -1.
     999902    2    1    2    0    0 -0.13554550842E-01 -0.40038529317E-02  0.43086267548E-03  0.10297899035E+01  0.10296928197E+01 0.  0.
     999903    2    3    3    0    0  0.24218073465E-01 -0.10674739310E-01  0.12941294294E+00  0.13956091670E+00  0.45045249788E-01 0.  0.
         14    1    1    2    0    0  0.13554550842E-01  0.40038529317E-02 -0.43086267548E-03  0.14140096516E-01  0.00000000000E+00 0. -1.
     999901    1    3    3    0    0 -0.37772624307E-01  0.66708863778E-02 -0.12898208027E+00  0.89022898678E+00  0.88000000000E+00 0. -1.
        -11    1    4    4    0    0 -0.72914346754E-02  0.75056113300E-02  0.91315519535E-02  0.13897682654E-01  0.51100000000E-03 0.  1.
         11    1    4    4    0    0  0.31509508141E-01 -0.18180350640E-01  0.12028139099E+00  0.12566323405E+00  0.51100000000E-03 0. -1.
</event>
<event>
 8    1  0.2123879E+004  0.1043930E+01  0.7957747E-01            NaN
         13   -1    0    0    0    0  0.00000000000E+00  0.00000000000E+00  0.74505805969E-08  0.10566000000E+00  0.10566000000E+00 0.  1.
     999900   -1    0    0    0    0 -0.00000000000E+00 -0.00000000000E+00 -0.74505805969E-08  0.93827000000E+00  0.93827000000E+00 0. -1.
     999902    2    1    2    0    0  0.22677739752E-02  0.10461986420E-01 -0.11324100353E-01  0.10283469577E+01  0.10282288822E+01 0.  0.
     999903    2    3    3    0    0  0.62296640543E-01  0.30285519873E-01  0.11227215732E+00  0.13746398434E+00  0.38642276667E-01 0.  0.
         14    1    1    2    0    0 -0.22677739752E-02 -0.10461986420E-01  0.11324100353E-01  0.15583042304E-01  0.00000000000E+00 0.  1.
     999901    1    3    3    0    0 -0.60028866567E-01 -0.19823533452E-01 -0.12359625767E+00  0.89088297335E+00  0.88000000000E+00 0. -1.
        -11    1    4    4    0    0  0.60923627060E-01  0.32477250917E-01  0.82510513752E-01  0.10758580837E+00  0.51100000000E-03 0.  1.
         11    1    4    4    0    0  0.13730134825E-02 -0.21917310442E-02  0.29761643565E-01  0.29878175977E-01  0.51100000000E-03 0. -1.
</event>
<event>
 8    1  0.2123879E+004  0.1043930E+01  0.7957747E-01            NaN
         13   -1    0    0    0    0  0.00000000000E+00  0.00000000000E+00  0.74505805969E-08  0.10566000000E+00  0.10566000000E+00 0.  1.
     999900   -1    0    0    0    0 -0.00000000000E+00 -0.00000000000E+00 -0.74505805969E-08  0.93827000000E+00  0.93827000000E+00 0. -1.
     999902    2    1    2    0    0  0.12318130487E-01  0.61309881884E-02  0.12438793783E-02  0.10301143353E+01  0.10300216848E+01 0.  0.
     999903    2    3    3    0    0  0.61443198433E-01  0.10658782818E+00 -0.53021095999E-01  0.14137953991E+00  0.45174173315E-01 0.  0.
         14    1    1    2    0    0 -0.12318130487E-01 -0.61309881884E-02 -0.12438793783E-02  0.13815664688E-01  0.00000000000E+00 0. -1.
     999901    1    3    3    0    0 -0.49125067946E-01 -0.10045683999E+00  0.54264975377E-01  0.88873479540E+00  0.88000000000E+00 0.  1.
        -11    1    4    4    0    0  0.41686395496E-01  0.30094084477E-01 -0.14143637725E-01  0.53326476529E-01  0.51100000000E-03 0. -1.
         11    1    4    4    0    0  0.19756802937E-01  0.76493743704E-01 -0.38877458274E-01  0.88053063383E-01  0.51100000000E-03 0.  1.
</event>
<event>
 8    1  0.2123879E+004  0.1043930E+01  0.7957747E-01            NaN
         13   -1    0    0    0    0  0.00000000000E+00  0.00000000000E+00  0.74505805969E-08  0.10566000000E+00  0.10566000000E+00 0.  1.
     999900   -1    0    0    0    0 -0.00000000000E+00 -0.00000000000E+00 -0.74505805969E-08  0.93827000000E+00  0.93827000000E+00 0.  1.
     999902    2    1    2    0    0 -0.61255329530E-03  0.11659264838E-01  0.86011940991E-02  0.10294284753E+01  0.10293263290E+01 0.  0.
     999903    2    3    3    0    0 -0.99314211216E-01  0.78367042491E-01  0.41643079510E-01  0.14078697783E+00  0.45630265795E-01 0.  0.
         14    1    1    2    0    0  0.61255329530E-03 -0.11659264838E-01 -0.86011940991E-02  0.14501524680E-01  0.00000000000E+00 0. -1.
     999901    1    3    3    0    0  0.98701657920E-01 -0.66707777652E-01 -0.33041885411E-01  0.88864149749E+00  0.88000000000E+00 0.  1.
        -11    1    4    4    0    0 -0.55491720059E-01  0.15968027498E-01  0.12020881012E-01  0.58983655351E-01  0.51100000000E-03 0.  1.
         11    1    4    4    0    0 -0.43822491157E-01  0.62399014993E-01  0.29622198498E-01  0.81803322476E-01  0.51100000000E-03 0. -1.
</event>
<event>
 8    1  0.2123879E+004  0.1043930E+01  0.7957747E-01            NaN
         13   -1    0    0    0    0  0.00000000000E+00  0.00000000000E+00  0.74505805969E-08  0.10566000000E+00  0.10566000000E+00 0.  1.
     999900   -1    0    0    0    0 -0.00000000000E+00 -0.00000000000E+00 -0.74505805969E-08  0.93827000000E+00  0.93827000000E+00 0. -1.
     999902    2    1    2    0    0 -0.71642773071E-02  0.92879667881E-02  0.71427099354E-02  0.10301964097E+01  0.10301048641E+01 0.  0.
     999903    2    3    3    0    0  0.44134959121E-01  0.10267850118E+00  0.73805165800E-01  0.14126599255E+00  0.44923367326E-01 0.  0.
         14    1    1    2    0    0  0.71642773071E-02 -0.92879667881E-02 -0.71427099354E-02  0.13733590267E-01  0.00000000000E+00 0.  1.
     999901    1    3    3    0    0 -0.51299236428E-01 -0.93390534389E-01 -0.66662455864E-01  0.88893041718E+00  0.88000000000E+00 0. -1.
        -11    1    4    4    0    0  0.51956906256E-01  0.72438791082E-01  0.56696340108E-01  0.10564863778E+00  0.51100000000E-03 0.  1.
         11    1    4    4    0    0 -0.78219471353E-02  0.30239710095E-01  0.17108825692E-01  0.35617354775E-01  0.51100000000E-03 0. -1.
</event>
<event>
 8    1  0.2123879E+004  0.1043930E+01  0.7957747E-01            NaN
         13   -1    0    0    0    0  0.00000000000E+00  0.00000000000E+00  0.74505805969E-08  0.10566000000E+00  0.10566000000E+00 0. -1.
     999900   -1    0    0    0    0 -0.00000000000E+00 -0.00000000000E+00 -0.74505805969E-08  0.93827000000E+00  0.93827000000E+00 0. -1.
     999902    2    1    2    0    0 -0.78102743354E-02 -0.10809496539E-02  0.99211037885E-02  0.10312573074E+01  0.10311794397E+01 0.  0.
     999903    2    3    3    0    0 -0.22216797896E-01 -0.12965907896E+00 -0.73290038281E-02  0.14162960467E+00  0.51963138429E-01 0.  0.
         14    1    1    2    0    0  0.78102743354E-02  0.10809496539E-02 -0.99211037885E-02  0.12672692600E-01  0.00000000000E+00 0.  1.
     999901    1    3    3    0    0  0.14406523561E-01  0.12857812931E+00  0.17250107617E-01  0.88962770273E+00  0.88000000000E+00 0.  1.
        -11    1    4    4    0    0 -0.31189806041E-01 -0.50524835252E-01  0.97557899791E-02  0.60174741688E-01  0.51100000000E-03 0.  1.
         11    1    4    4    0    0  0.89730081448E-02 -0.79134243708E-01 -0.17084793807E-01  0.81454862979E-01  0.51100000000E-03 0. -1.
</event>
<event>
 8    1  0.2123879E+004  0.1043930E+01  0.7957747E-01            NaN
         13   -1    0    0    0    0  0.00000000000E+00  0.00000000000E+00  0.74505805969E-08  0.10566000000E+00  0.10566000000E+00 0.  1.
     999900   -1    0    0    0    0 -0.00000000000E+00 -0.00000000000E+00 -0.74505805969E-08  0.93827000000E+00  0.93827000000E+00 0. -1.
     999902    2    1    2    0    0  0.13953711929E-01  0.12598753465E-01  0.91759052213E-02  0.10230103465E+01  0.10227964300E+01 0.  0.
     999903    2    3    3    0    0  0.54033576402E-01 -0.32408966298E-01  0.11076131225E+00  0.13511863842E+00  0.44933391625E-01 0.  0.
         14    1    1    2    0    0 -0.13953711929E-01 -0.12598753465E-01 -0.91759052213E-02  0.20919653489E-01  0.00000000000E+00 0. -1.
     999901    1    3    3    0    0 -0.40079864473E-01  0.45007719763E-01 -0.10158540703E+00  0.88789170809E+00  0.88000000000E+00 0. -1.
        -11    1    4    4    0    0  0.14856970467E-02 -0.23363765731E-01  0.42210128965E-01  0.48270373451E-01  0.51100000000E-03 0. -1.
         11    1    4    4    0    0  0.52547879355E-01 -0.90452005672E-02  0.68551183282E-01  0.86848264970E-01  0.51100000000E-03 0.  1.
</event>
<event>
 8    1  0.2123879E+004  0.1043930E+01  0.7957747E-01            NaN
         13   -1    0    0    0    0  0.00000000000E+00  0.00000000000E+00  0.74505805969E-08  0.10566000000E+00  0.10566000000E+00 0.  1.
     999900   -1    0    0    0    0 -0.00000000000E+00 -0.00000000000E+00 -0.74505805969E-08  0.93827000000E+00  0.93827000000E+00 0.  1.
     999902    2    1    2    0    0  0.12324767577E-01  0.27277898921E-02  0.52801989187E-03  0.10312959374E+01  0.10312185466E+01 0.  0.
     999903    2    3    3    0    0  0.55727007985E-01  0.99174994708E-01 -0.71745278108E-01  0.14202137494E+00  0.45623535743E-01 0.  0.
         14    1    1    2    0    0 -0.12324767577E-01 -0.27277898921E-02 -0.52801989187E-03  0.12634062630E-01  0.00000000000E+00 0. -1.
     999901    1    3    3    0    0 -0.43402240407E-01 -0.96447204815E-01  0.72273298000E-01  0.88927456243E+00  0.88000000000E+00 0.  1.
        -11    1    4    4    0    0 -0.40329779026E-02  0.20666341149E-01 -0.19262463782E-02  0.21150274546E-01  0.51100000000E-03 0.  1.
         11    1    4    4    0    0  0.59759985887E-01  0.78508653558E-01 -0.69819031730E-01  0.12087110039E+00  0.51100000000E-03 0. -1.
</event>
<event>
 8    1  0.2123879E+004  0.1043930E+01  0.7957747E-01            NaN
         13   -1    0    0    0    0  0.00000000000E+00  0.00000000000E+00  0.74505805969E-08  0.10566000000E+00  0.10566000000E+00 0.  1.
     999900   -1    0    0    0    0 -0.00000000000E+00 -0.00000000000E+00 -0.74505805969E-08  0.93827000000E+00  0.93827000000E+00 0.  1.
     999902    2    1    2    0    0 -0.10325152305E-01 -0.11101934939E-01 -0.49751738852E-02  0.10279733686E+01  0.10278495184E+01 0.  0.
     999903    2    3    3    0    0 -0.12649582204E+00  0.35400988538E-01  0.78864882532E-02  0.13902816855E+00  0.44857685735E-01 0.  0.
         14    1    1    2    0    0  0.10325152305E-01  0.11101934939E-01  0.49751738852E-02  0.15956631371E-01  0.00000000000E+00 0.  1.
     999901    1    3    3    0    0  0.11617066973E+00 -0.46502923477E-01 -0.12861662138E-01  0.88894520008E+00  0.88000000000E+00 0. -1.
        -11    1    4    4    0    0 -0.10296555404E+00  0.25634198948E-01  0.24117535895E-01  0.10881605642E+00  0.51100000000E-03 0. -1.
         11    1    4    4    0    0 -0.23530267994E-01  0.97667895898E-02 -0.16231047641E-01  0.30212112129E-01  0.51100000000E-03 0.  1.
</event>
<event>
 8    1  0.2123879E+004  0.1043930E+01  0.7957747E-01            NaN
         13   -1    0    0    0    0  0.00000000000E+00  0.00000000000E+00  0.74505805969E-08  0.10566000000E+00  0.10566000000E+00 0.  1.
     999900   -1    0    0    0    0 -0.00000000000E+00 -0.00000000000E+00 -0.74505805969E-08  0.93827000000E+00  0.93827000000E+00 0. -1.
     999902    2    1    2    0    0  0.16631821346E-01 -0.26496397639E-02  0.39567154819E-02  0.10266298939E+01  0.10264841185E+01 0.  0.
     999903    2    3    3    0    0 -0.84458550112E-01 -0.93155447411E-01  0.24879745205E-01  0.13598499411E+00  0.45406308297E-01 0.  0.
         14    1    1    2    0    0 -0.16631821346E-01  0.26496397639E-02 -0.39567154819E-02  0.17300106057E-01  0.00000000000E+00 0. -1.
     999901    1    3    3    0    0  0.10109037146E+00  0.90505807647E-01 -0.20923029723E-01  0.89064489983E+00  0.88000000000E+00 0.  1.
        -11    1    4    4    0    0 -0.37010694437E-01 -0.69904323785E-01  0.25601398621E-01  0.83139032463E-01  0.51100000000E-03 0. -1.
         11    1    4    4    0    0 -0.47447855676E-01 -0.23251123626E-01 -0.72165341644E-03  0.52845961650E-01  0.51100000000E-03 0.  1.
</event>
<event>
 8    1  0.2123879E+004  0.1043930E+01  0.7957747E-01            NaN
         13   -1    0    0    0    0  0.00000000000E+00  0.00000000000E+00  0.74505805969E-08  0.10566000000E+00  0.10566000000E+00 0. -1.
     999900   -1    0    0    0    0 -0.00000000000E+00 -0.00000000000E+00 -0.74505805969E-08  0.93827000000E+00  0.93827000000E+00 0.  1.
     999902    2    1    2    0    0  0.10036941198E-01  0.93463148154E-02 -0.12933800825E-02  0.10301544194E+01  0.10300623094E+01 0.  0.
     999903    2    3    3    0    0  0.22034996026E-01 -0.10995033036E+00 -0.69438219907E-01  0.13941351314E+00  0.45164643961E-01 0.  0.
         14    1    1    2    0    0 -0.10036941198E-01 -0.93463148154E-02  0.12933800825E-02  0.13775580615E-01  0.00000000000E+00 0. -1.
     999901    1    3    3    0    0 -0.11998054827E-01  0.11929664518E+00  0.68144839825E-01  0.89074090625E+00  0.88000000000E+00 0. -1.
        -11    1    4    4    0    0  0.47878169753E-03 -0.93776070738E-01 -0.50924088103E-01  0.10671318824E+00  0.51100000000E-03 0.  1.
         11    1    4    4    0    0  0.21556214328E-01 -0.16174259625E-01 -0.18514131804E-01  0.32700324892E-01  0.51100000000E-03 0. -1.
</event>
<event>
 8    1  0.2123879E+004  0.1043930E+01  0.7957747E-01            NaN
         13   -1    0    0    0    0  0.00000000000E+00  0.00000000000E+00  0.74505805969E-08  0.10566000000E+00  0.10566000000E+00 0. -1.
     999900   -1    0    0    0    0 -0.00000000000E+00 -0.00000000000E+00 -0.74505805969E-08  0.93827000000E+00  0.93827000000E+00 0. -1.
     999902    2    1    2    0    0 -0.96156647480E-02 -0.63723301929E-02 -0.10348281439E-01  0.10284330800E+01  0.10283163159E+01 0.  0.
     999903    2    3    3    0    0  0.83605883401E-01 -0.88661018518E-01  0.46051052330E-01  0.13790370367E+00  0.45232865495E-01 0.  0.
         14    1    1    2    0    0  0.96156647480E-02  0.63723301929E-02  0.10348281439E-01  0.15496919997E-01  0.00000000000E+00 0. -1.
     999901    1    3    3    0    0 -0.93221548149E-01  0.82288688325E-01 -0.56399333770E-01  0.89052937633E+00  0.88000000000E+00 0.  1.
        -11    1    4    4    0    0  0.39550993676E-01 -0.15203230916E-01  0.26707455833E-01  0.50089606199E-01  0.51100000000E-03 0. -1.
         11    1    4    4    0    0  0.44054889725E-01 -0.73457787602E-01  0.19343596497E-01  0.87814097470E-01  0.51100000000E-03 0.  1.
</event>
<event>
 8    1  0.2123879E+004  0.1043930E+01  0.7957747E-01            NaN
         13   -1    0    0    0    0  0.00000000000E+00  0.00000000000E+00  0.74505805969E-08  0.10566000000E+00  0.10566000000E+00 0.  1.
     999900   -1    0    0    0    0 -0.00000000000E+00 -0.00000000000E+00 -0.74505805969E-08  0.93827000000E+00  0.93827000000E+00 0.  1.
     999902    2    1    2    0    0 -0.43727620796E-02 -0.79974213203E-02 -0.10604209382E-01  0.10299468297E+01  0.10298519034E+01 0.  0.
     999903    2    3    3    0    0  0.79332090520E-01  0.96479015062E-01 -0.41789070821E-01  0.13927611403E+00  0.45273928101E-01 0.  0.
         14    1    1    2    0    0  0.43727620796E-02  0.79974213203E-02  0.10604209382E-01  0.13983170334E-01  0.00000000000E+00 0.  1.
     999901    1    3    3    0    0 -0.83704852599E-01 -0.10447643638E+00  0.31184861439E-01  0.89067071564E+00  0.88000000000E+00 0. -1.
        -11    1    4    4    0    0  0.55970464676E-01  0.38300599392E-01 -0.34691297719E-01  0.76179892939E-01  0.51100000000E-03 0.  1.
         11    1    4    4    0    0  0.23361625844E-01  0.58178415670E-01 -0.70977731026E-02  0.63096221091E-01  0.51100000000E-03 0. -1.
</event>
<event>
 8    1  0.2123879E+004  0.1043930E+01  0.7957747E-01            NaN
         13   -1    0    0    0    0  0.00000000000E+00  0.00000000000E+00  0.74505805969E-08  0.10566000000E+00  0.10566000000E+00 0. -1.
     999900   -1    0    0    0    0 -0.00000000000E+00 -0.00000000000E+00 -0.74505805969E-08  0.93827000000E+00  0.93827000000E+00 0.  1.
     999902    2    1    2    0    0  0.70893733105E-02 -0.37496843104E-02  0.11331296507E-01  0.10300477226E+01  0.10299541704E+01 0.  0.
     999903    2    3    3    0    0  0.11384271791E+00  0.10308333108E-01  0.70298601694E-01  0.14152588967E+00  0.44958401843E-01 0.  0.
         14    1    1    2    0    0 -0.70893733105E-02  0.37496843104E-02 -0.11331296507E-01  0.13882277439E-01  0.00000000000E+00 0.  1.
     999901    1    3    3    0    0 -0.10675334459E+00 -0.14058017418E-01 -0.58967305186E-01  0.88852183289E+00  0.88000000000E+00 0.  1.
        -11    1    4    4    0    0  0.88477014855E-01 -0.59455381734E-02  0.67144727448E-01  0.11123042357E+00  0.51100000000E-03 0. -1.
         11    1    4    4    0    0  0.25365703050E-01  0.16253871281E-01  0.31538742461E-02  0.30295466107E-01  0.51100000000E-03 0.  1.
</event>
<event>
 8    1  0.2123879E+004  0.1043930E+01  0.7957747E-01            NaN
         13   -1    0    0    0    0  0.00000000000E+00  0.00000000000E+00  0.74505805969E-08  0.10566000000E+00  0.10566000000E+00 0.  1.
     999900   -1    0    0    0    0 -0.00000000000E+00 -0.00000000000E+00 -0.74505805969E-08  0.93827000000E+00  0.93827000000E+00 0.  1.
     999902    2    1    2    0    0 -0.78427923355E-02  0.68067942654E-02  0.86387148935E-02  0.10304218826E+01  0.10303333378E+01 0.  0.
     999903    2    3    3    0    0  0.16526066685E-01 -0.37578967147E-01 -0.12429393426E+00  0.13899884820E+00  0.46759042499E-01 0.  0.
         14    1    1    2    0    0  0.78427923355E-02 -0.68067942654E-02 -0.86387148935E-02  0.13508117367E-01  0.00000000000E+00 0. -1.
     999901    1    3    3    0    0 -0.24368859020E-01  0.44385761413E-01  0.13293264915E+00  0.89142303443E+00  0.88000000000E+00 0. -1.
        -11    1    4    4    0    0  0.28262559633E-01 -0.36420564077E-01 -0.11524642920E+00  0.12412586487E+00  0.51100000000E-03 0. -1.
         11    1    4    4    0    0 -0.11736492948E-01 -0.11584030707E-02 -0.90475050557E-02  0.14872983330E-01  0.51100000000E-03 0.  1.
</event>
<event>
 8    1  0.2123879E+004  0.1043930E+01  0.7957747E-01            NaN
         13   -1    0    0    0    0  0.00000000000E+00  0.00000000000E+00  0.74505805969E-08  0.10566000000E+00  0.10566000000E+00 0.  1.
     999900   -1    0    0    0    0 -0.00000000000E+00 -0.00000000000E+00 -0.74505805969E-08  0.93827000000E+00  0.93827000000E+00 0.  1.
     999902    2    1    2    0    0 -0.63523164749E-02 -0.39265568630E-02  0.11539067329E-01  0.10301851883E+01  0.10300934921E+01 0.  0.
     999903    2    3    3    0    0 -0.11613189908E+00  0.58193858934E-01  0.31167230191E-01  0.14097443287E+00  0.45047211730E-01 0.  0.
         14    1    1    2    0    0  0.63523164749E-02  0.39265568630E-02 -0.11539067329E-01  0.13744811684E-01  0.00000000000E+00 0. -1.
     999901    1    3    3    0    0  0.10977958261E+00 -0.62120415797E-01 -0.19628162862E-01  0.88921075544E+00  0.88000000000E+00 0. -1.
        -11    1    4    4    0    0 -0.92295299414E-01  0.54020821445E-01  0.41424534865E-01  0.11468620080E+00  0.51100000000E-03 0.  1.
         11    1    4    4    0    0 -0.23836599666E-01  0.41730374893E-02 -0.10257304674E-01  0.26288232077E-01  0.51100000000E-03 0. -1.
</event>
<event>
 7    1  0.2123879E+004  0.1043930E+01  0.7957747E-01            NaN
         13   -1    0    0    0    0  0.00000000000E+00  0.00000000000E+00  0.74505805969E-08  0.10566000000E+00  0.10566000000E+00 0.  1.
     999900   -1    0    0    0    0 -0.00000000000E+00 -0.00000000000E+00 -0.74505805969E-08  0.93827000000E+00  0.93827000000E+00 0. -1.
     999902    2    1    2    0    0 -0.22604499911E-02  0.80803185959E-02  0.49454325602E-02  0.10341904679E+01  0.10341446056E+01 0.  0.
         14    1    1    2    0    0  0.22604499911E-02 -0.80803185959E-02 -0.49454325602E-02  0.97395321233E-02  0.00000000000E+00 0. -1.
     999901    1    3    3    0    0 -0.13918085910E+00  0.82400987706E-02 -0.31570469173E-01  0.89153570051E+00  0.88000000000E+00 0. -1.
        -11    1    3    3    0    0  0.66892025660E-01 -0.82436445021E-02  0.18553304727E-01  0.69906988270E-01  0.51100000000E-03 0.  1.
         11    1    3    3    0    0  0.70028383448E-01  0.80838643274E-02  0.17962597006E-01  0.72747779093E-01  0.51100000000E-03 0. -1.
</event>
<event>
 7    1  0.2123879E+004  0.1043930E+01  0.7957747E-01            NaN
         13   -1    0    0    0    0  0.00000000000E+00  0.00000000000E+00  0.74505805969E-08  0.10566000000E+00  0.10566000000E+00 0. -1.
     999900   -1    0    0    0    0 -0.00000000000E+00 -0.00000000000E+00 -0.74505805969E-08  0.93827000000E+00  0.93827000000E+00 0. -1.
     999903    2    1    2    0    0 -0.59748721734E-01  0.19931212109E-01 -0.85273755452E-01  0.11515714338E+00  0.44971005515E-01 0.  0.
         14    1    1    2    0    0  0.18954000525E-01  0.32307893576E-01 -0.15515017827E-01  0.40543432284E-01  0.00000000000E+00 0.  1.
     999901    1    1    2    0    0  0.40794721208E-01 -0.52239105685E-01  0.10078877328E+00  0.88822942434E+00  0.88000000000E+00 0.  1.
        -11    1    3    3    0    0 -0.35731071454E-02 -0.90351103307E-02 -0.95169901314E-03  0.97758460182E-02  0.51100000000E-03 0. -1.
         11    1    3    3    0    0 -0.56175614588E-01  0.28966322440E-01 -0.84322056439E-01  0.10538129736E+00  0.51100000000E-03 0.  1.
</event>
<event>
 8    1  0.2123879E+004  0.1043930E+01  0.7957747E-01            NaN
         13   -1    0    0    0    0  0.00000000000E+00  0.00000000000E+00  0.74505805969E-08  0.10566000000E+00  0.10566000000E+00 0. -1.
     999900   -1    0    0    0    0 -0.00000000000E+00 -0.00000000000E+00 -0.74505805969E-08  0.93827000000E+00  0.93827000000E+00 0. -1.
     999902    2    1    2    0    0 -0.34521129040E-02 -0.12093967986E-01 -0.43514819577E-02  0.10306214862E+01  0.10305355555E+01 0.  0.
     999903    2    3    3    0    0 -0.30444549843E-01  0.10485442558E+00  0.75513137568E-01  0.13889065466E+00  0.40829631744E-01 0.  0.
         14    1    1    2    0    0  0.34521129040E-02  0.12093967986E-01  0.43514819577E-02  0.13308513830E-01  0.00000000000E+00 0.  1.
     999901    1    3    3    0    0  0.26992436939E-01 -0.11694839356E+00 -0.79864619526E-01  0.89173083151E+00  0.88000000000E+00 0. -1.
        -11    1    4    4    0    0 -0.17117282767E-01  0.22845576257E-01  0.38503592930E-01  0.47934429311E-01  0.51100000000E-03 0. -1.
         11    1    4    4    0    0 -0.13327267076E-01  0.82008849322E-01  0.37009544639E-01  0.90956225351E-01  0.51100000000E-03 0.  1.
</event>
<event>
 7    1  0.2123879E+004  0.1043930E+01  0.7957747E-01            NaN
         13   -1    0    0    0    0  0.00000000000E+00  0.00000000000E+00  0.74505805969E-08  0.10566000000E+00  0.10566000000E+00 0. -1.
     999900   -1    0    0    0    0 -0.00000000000E+00 -0.00000000000E+00 -0.74505805969E-08  0.93827000000E+00  0.93827000000E+00 0.  1.
     999902    2    1    2    0    0 -0.74792094364E-02 -0.88642582821E-02  0.82436417702E-02  0.10297007597E+01  0.10296024395E+01 0.  0.
         14    1    1    2    0    0  0.74792094364E-02  0.88642582821E-02 -0.82436417702E-02  0.14229240258E-01  0.00000000000E+00 0.  1.
     999901    1    3    3    0    0  0.44726719641E-02  0.34041386797E-02 -0.11474967905E+00  0.88746779198E+00  0.88000000000E+00 0.  1.
        -11    1    3    3    0    0 -0.13846104167E-01 -0.36357793056E-01  0.10536095111E+00  0.11231560380E+00  0.51100000000E-03 0.  1.
         11    1    3    3    0    0  0.18942227667E-02  0.24089396094E-01  0.17632369711E-01  0.29917363966E-01  0.51100000000E-03 0. -1.
</event>
<event>
 8    1  0.2123879E+004  0.1043930E+01  0.7957747E-01            NaN
         13   -1    0    0    0    0  0.00000000000E+00  0.00000000000E+00  0.74505805969E-08  0.10566000000E+00  0.10566000000E+00 0. -1.
     999900   -1    0    0    0    0 -0.00000000000E+00 -0.00000000000E+00 -0.74505805969E-08  0.93827000000E+00  0.93827000000E+00 0. -1.
     999902    2    1    2    0    0 -0.55163500328E-02 -0.41666446585E-02  0.84058312317E-02  0.10330465702E+01  0.10329892387E+01 0.  0.
     999903    2    3    3    0    0 -0.16653556547E-02  0.12613347046E+00  0.48581760484E-01  0.14253713429E+00  0.45213066914E-01 0.  0.
         14    1    1    2    0    0  0.55163500328E-02  0.41666446585E-02 -0.84058312317E-02  0.10883429794E-01  0.00000000000E+00 0.  1.
     999901    1    3    3    0    0 -0.38509943780E-02 -0.13030011512E+00 -0.40175929252E-01  0.89050943591E+00  0.88000000000E+00 0.  1.
        -11    1    4    4    0    0 -0.53523959446E-02  0.72981085242E-01  0.51004021069E-01  0.89199541656E-01  0.51100000000E-03 0. -1.
         11    1    4    4    0    0  0.36870402899E-02  0.53152385222E-01 -0.24222605850E-02  0.53337592636E-01  0.51100000000E-03 0.  1.
</event>
<event>
 8    1  0.2123879E+004  0.1043930E+01  0.7957747E-01            NaN
         13   -1    0    0    0    0  0.00000000000E+00  0.00000000000E+00  0.74505805969E-08  0.10566000000E+00  0.10566000000E+00 0.  1.
     999900   -1    0    0    0    0 -0.00000000000E+00 -0.00000000000E+00 -0.74505805969E-08  0.93827000000E+00  0.93827000000E+00 0. -1.
     999902    2    1    2    0    0  0.12166557537E-01  0.30549443284E-02  0.58057410810E-02  0.10301073940E+01  0.10300146498E+01 0.  0.
     999903    2    3    3    0    0  0.51227402415E-02  0.13226172957E+00  0.11576655677E-01  0.14062590899E+00  0.46067556341E-01 0.  0.
         14    1    1    2    0    0 -0.12166557537E-01 -0.30549443284E-02 -0.58057410810E-02  0.13822606001E-01  0.00000000000E+00 0.  1.
     999901    1    3    3    0    0  0.70438172956E-02 -0.12920678524E+00 -0.57709145958E-02  0.88948148501E+00  0.88000000000E+00 0. -1.
        -11    1    4    4    0    0  0.17350792823E-01  0.20659257473E-01 -0.40016594642E-02  0.27278734032E-01  0.51100000000E-03 0.  1.
         11    1    4    4    0    0 -0.12228052582E-01  0.11160247210E+00  0.15578315141E-01  0.11334717496E+00  0.51100000000E-03 0. -1.
</event>
<event>
 8    1  0.2123879E+004  0.1043930E+01  0.7957747E-01            NaN
         13   -1    0    0    0    0  0.00000000000E+00  0.00000000000E+00  0.74505805969E-08  0.10566000000E+00  0.10566000000E+00 0.  1.
     999900   -1    0    0    0    0 -0.00000000000E+00 -0.00000000000E+00 -0.74505805969E-08  0.93827000000E+00  0.93827000000E+00 0.  1.
     999902    2    1    2    0    0  0.53604843630E-02 -0.68175291266E-02  0.10421312295E-01  0.10303720781E+01  0.10302828748E+01 0.  0.
     999903    2    3    3    0    0 -0.10548470059E+00 -0.77019657658E-01  0.26538519133E-01  0.14049862743E+00  0.44458087989E-01 0.  0.
         14    1    1    2    0    0 -0.53604843630E-02  0.68175291266E-02 -0.10421312295E-01  0.13557921889E-01  0.00000000000E+00 0. -1.
     999901    1    3    3    0    0  0.11084518495E+00  0.70202128532E-01 -0.16117206838E-01  0.88987345068E+00  0.88000000000E+00 0.  1.
        -11    1    4    4    0    0 -0.43375713450E-01 -0.50654513335E-01  0.29577621090E-01  0.72954979466E-01  0.51100000000E-03 0.  1.
         11    1    4    4    0    0 -0.62108987135E-01 -0.26365144324E-01 -0.30391019571E-02  0.67543647961E-01  0.51100000000E-03 0. -1.
</event>
<event>
 8    1  0.2123879E+004  0.1043930E+01  0.7957747E-01            NaN
         13   -1    0    0    0    0  0.00000000000E+00  0.00000000000E+00  0.74505805969E-08  0.10566000000E+00  0.10566000000E+00 0. -1.
     999900   -1    0    0    0    0 -0.00000000000E+00 -0.00000000000E+00 -0.74505805969E-08  0.93827000000E+00  0.93827000000E+00 0.  1.
     999902    2    1    2    0    0 -0.70240772456E-02  0.30931629563E-02  0.12243673798E-01  0.10294796413E+01  0.10293782196E+01 0.  0.
     999903    2    3    3    0    0  0.10782593904E+00 -0.54950752930E-01  0.51967266854E-01  0.13923384028E+00  0.45160237792E-01 0.  0.
         14    1    1    2    0    0  0.70240772456E-02 -0.30931629563E-02 -0.12243673798E-01  0.14450358691E-01  0.00000000000E+00 0.  1.
     999901    1    3    3    0    0 -0.11485001628E+00  0.58043915886E-01 -0.39723593056E-01  0.89024580103E+00  0.88000000000E+00 0.  1.
        -11    1    4    4    0    0  0.93931770312E-01 -0.51249530554E-01  0.26904653718E-01  0.11033500518E+00  0.51100000000E-03 0.  1.
         11    1    4    4    0    0  0.13894168724E-01 -0.37012223760E-02  0.25062613136E-01  0.28898835094E-01  0.51100000000E-03 0. -1.
</event>
<event>
 8    1  0.2123879E+004  0.1043930E+01  0.7957747E-01            NaN
         13   -1    0    0    0    0  0.00000000000E+00  0.00000000000E+00  0.74505805969E-08  0.10566000000E+00  0.10566000000E+00 0. -1.
     999900   -1    0    0    0    0 -0.00000000000E+00 -0.00000000000E+00 -0.74505805969E-08  0.93827000000E+00  0.93827000000E+00 0.  1.
     999902    2    1    2    0    0  0.20931374831E-02 -0.64334328375E-02 -0.11555054292E-01  0.10305400948E+01  0.10304531029E+01 0.  0.
     999903    2    3    3    0    0  0.20593009671E-01  0.13074295278E+00 -0.44006809218E-02  0.13969174005E+00  0.44459245336E-01 0.  0.
         14    1    1    2    0    0 -0.20931374831E-02  0.64334328375E-02  0.11555054292E-01  0.13389905238E-01  0.00000000000E+00 0. -1.
     999901    1    3    3    0    0 -0.18499872188E-01 -0.13717638562E+00 -0.71543733704E-02  0.89084835472E+00  0.88000000000E+00 0.  1.
        -11    1    4    4    0    0  0.41174666822E-02  0.79035516469E-02  0.11693046998E-01  0.14710816755E-01  0.51100000000E-03 0.  1.
         11    1    4    4    0    0  0.16475542989E-01  0.12283940113E+00 -0.16093727920E-01  0.12498092329E+00  0.51100000000E-03 0. -1.
</event>
<event>
 7    1  0.2123879E+004  0.1043930E+01  0.7957747E-01            NaN
         13   -1    0    0    0    0  0.00000000000E+00  0.00000000000E+00  0.74505805969E-08  0.10566000000E+00  0.10566000000E+00 0. -1.
     999900   -1    0    0    0    0 -0.00000000000E+00 -0.00000000000E+00 -0.74505805969E-08  0.93827000000E+00  0.93827000000E+00 0. -1.
     999903    2    1    2    0    0 -0.11261779673E+00 -0.32463110841E-01  0.63397558648E-02  0.12562711119E+00  0.44781210991E-01 0.  0.
         14    1    1    2    0    0  0.30398928466E-01 -0.62070280709E-02  0.12435744353E-01  0.33425585814E-01  0.00000000000E+00 0. -1.
     999901    1    1    2    0    0  0.82218868260E-01  0.38670138912E-01 -0.18775500218E-01  0.88487730299E+00  0.88000000000E+00 0. -1.
        -11    1    3    3    0    0 -0.69317120091E-02 -0.54261377385E-02  0.13695445211E-01  0.16288583200E-01  0.51100000000E-03 0. -1.
         11    1    3    3    0    0 -0.10568608472E+00 -0.27036973103E-01 -0.73556893460E-02  0.10933852799E+00  0.51100000000E-03 0.  1.
</event>
<event>
 8    1  0.2123879E+004  0.1043930E+01  0.7957747E-01            NaN
         13   -1    0    0    0    0  0.00000000000E+00  0.00000000000E+00  0.74505805969E-08  0.10566000000E+00  0.10566000000E+00 0. -1.
     999900   -1    0    0    0    0 -0.00000000000E+00 -0.00000000000E+00 -0.74505805969E-08  0.93827000000E+00  0.93827000000E+00 0.  1.
     999902    2    1    2    0    0  0.80997148978E-02  0.11081462692E-01  0.11282446050E-02  0.10301576679E+01  0.10300656016E+01 0.  0.
     999903    2    3    3    0    0  0.83416960658E-02  0.10481982717E+00  0.83246184542E-01  0.14137743878E+00  0.44731117755E-01 0.  0.
         14    1    1    2    0    0 -0.80997148978E-02 -0.11081462692E-01 -0.11282446050E-02  0.13772332145E-01  0.00000000000E+00 0. -1.
     999901    1    3    3    0    0 -0.24198116794E-03 -0.93738364475E-01 -0.82117939937E-01  0.88878022907E+00  0.88000000000E+00 0.  1.
        -11    1    4    4    0    0  0.24457205275E-01  0.36181191176E-01  0.29157166408E-01  0.52513188426E-01  0.51100000000E-03 0. -1.
         11    1    4    4    0    0 -0.16115509209E-01  0.68638635991E-01  0.54089018134E-01  0.88864250357E-01  0.51100000000E-03 0.  1.
</event>
<event>
 8    1  0.2123879E+004  0.1043930E+01  0.7957747E-01            NaN
         13   -1    0    0    0    0  0.00000000000E+00  0.00000000000E+00  0.74505805969E-08  0.10566000000E+00  0.10566000000E+00 0. -1.
     999900   -1    0    0    0    0 -0.00000000000E+00 -0.00000000000E+00 -0.74505805969E-08  0.93827000000E+00  0.93827000000E+00 0.  1.
     999902    2    1    2    0    0 -0.97495372447E-02  0.87223805823E-02  0.53833016568E-02  0.10297838579E+01  0.10296866905E+01 0.  0.
     999903    2    3    3    0    0 -0.11791220830E+00 -0.39108555502E-02  0.63174186606E-01  0.14119027901E+00  0.45001481924E-01 0.  0.
         14    1    1    2    0    0  0.97495372447E-02 -0.87223805823E-02 -0.53833016568E-02  0.14146142097E-01  0.00000000000E+00 0. -1.
     999901    1    3    3    0    0  0.10816267106E+00  0.12633236133E-01 -0.57790884949E-01  0.88859357889E+00  0.88000000000E+00 0. -1.
        -11    1    4    4    0    0 -0.49207026205E-01 -0.56971163065E-02  0.26494250512E-02  0.49609163833E-01  0.51100000000E-03 0. -1.
         11    1    4    4    0    0 -0.68705182099E-01  0.17862607562E-02  0.60524761555E-01  0.91581115177E-01  0.51100000000E-03 0.  1.
</event>
<event>
 8    1  0.2123879E+004  0.1043930E+01  0.7957747E-01            NaN
         13   -1    0    0    0    0  0.00000000000E+00  0.00000000000E+00  0.74505805969E-08  0.10566000000E+00  0.10566000000E+00 0.  1.
     999900   -1    0    0    0    0 -0.00000000000E+00 -0.00000000000E+00 -0.74505805969E-08  0.93827000000E+00  0.93827000000E+00 0.  1.
     999902    2    1    2    0    0  0.11996933477E-01  0.86883738416E-02 -0.67927481332E-02  0.10276341208E+01  0.10275049053E+01 0.  0.
     999903    2    3    3    0    0  0.42709445548E-01  0.70961471878E-01 -0.10354088892E+00  0.13961306252E+00  0.43720296397E-01 0.  0.
         14    1    1    2    0    0 -0.11996933477E-01 -0.86883738416E-02  0.67927481332E-02  0.16295879236E-01  0.00000000000E+00 0.  1.
     999901    1    3    3    0    0 -0.30712512072E-01 -0.62273098036E-01  0.96748140792E-01  0.88802105824E+00  0.88000000000E+00 0. -1.
        -11    1    4    4    0    0 -0.16701053894E-03  0.25041404335E-01 -0.54265729221E-01  0.59767301365E-01  0.51100000000E-03 0. -1.
         11    1    4    4    0    0  0.42876456087E-01  0.45920067542E-01 -0.49275159704E-01  0.79845761156E-01  0.51100000000E-03 0.  1.
</event>
<event>
 8    1  0.2123879E+004  0.1043930E+01  0.7957747E-01            NaN
         13   -1    0    0    0    0  0.00000000000E+00  0.00000000000E+00  0.74505805969E-08  0.10566000000E+00  0.10566000000E+00 0.  1.
     999900   -1    0    0    0    0 -0.00000000000E+00 -0.00000000000E+00 -0.74505805969E-08  0.93827000000E+00  0.93827000000E+00 0.  1.
     999902    2    1    2    0    0 -0.54385366248E-02  0.30186107311E-02  0.11711313136E-01  0.10306693610E+01  0.10305840515E+01 0.  0.
     999903    2    3    3    0    0  0.94427172044E-01 -0.91289274790E-01 -0.15496827871E-01  0.13959842107E+00  0.44691665672E-01 0.  0.
         14    1    1    2    0    0  0.54385366248E-02 -0.30186107311E-02 -0.11711313136E-01  0.13260639002E-01  0.00000000000E+00 0. -1.
     999901    1    3    3    0    0 -0.99865708669E-01  0.94307885521E-01  0.27208141007E-01  0.89107093992E+00  0.88000000000E+00 0. -1.
        -11    1    4    4    0    0  0.81796004597E-01 -0.77388792721E-01 -0.29216437630E-01  0.11633345587E+00  0.51100000000E-03 0. -1.
         11    1    4    4    0    0  0.12631167447E-01 -0.13900482069E-01  0.13719609759E-01  0.23264965200E-01  0.51100000000E-03 0.  1.
</event>
<event>
 8    1  0.2123879E+004  0.1043930E+01  0.7957747E-01            NaN
         13   -1    0    0    0    0  0.00000000000E+00  0.00000000000E+00  0.74505805969E-08  0.10566000000E+00  0.10566000000E+00 0. -1.
     999900   -1    0    0    0    0 -0.00000000000E+00 -0.00000000000E+00 -0.74505805969E-08  0.93827000000E+00  0.93827000000E+00 0.  1.
     999902    2    1    2    0    0 -0.85663847899E-02  0.12186217188E-01 -0.96905653151E-03  0.10290026456E+01  0.10288943672E+01 0.  0.
     999903    2    3    3    0    0 -0.82333567013E-01 -0.92484565614E-01 -0.43412823303E-01  0.13872232839E+00  0.45022217093E-01 0.  0.
         14    1    1    2    0    0  0.85663847899E-02 -0.12186217188E-01  0.96905653151E-03  0.14927354363E-01  0.00000000000E+00 0.  1.
     999901    1    3    3    0    0  0.73767182223E-01  0.10467078280E+00  0.42443766772E-01  0.89028031725E+00  0.88000000000E+00 0. -1.
        -11    1    4    4    0    0 -0.78629334000E-01 -0.93674090720E-01 -0.31661767258E-01  0.12633343209E+00  0.51100000000E-03 0.  1.
         11    1    4    4    0    0 -0.37042330131E-02  0.11895251058E-02 -0.11751056046E-01  0.12388896294E-01  0.51100000000E-03 0. -1.
</event>
<event>
 8    1  0.2123879E+004  0.1043930E+01  0.7957747E-01            NaN
         13   -1    0    0    0    0  0.00000000000E+00  0.00000000000E+00  0.74505805969E-08  0.10566000000E+00  0.10566000000E+00 0.  1.
     999900   -1    0    0    0    0 -0.00000000000E+00 -0.00000000000E+00 -0.74505805969E-08  0.93827000000E+00  0.93827000000E+00 0.  1.
     999902    2    1    2    0    0 -0.13671949976E-01  0.32529300309E-02  0.69386701633E-02  0.10282568091E+01  0.10281373529E+01 0.  0.
     999903    2    3    3    0    0  0.12824677473E+00  0.92198373613E-02 -0.11760392900E-01  0.13667047935E+00  0.44813752963E-01 0.  0.
         14    1    1    2    0    0  0.13671949976E-01 -0.32529300309E-02 -0.69386701633E-02  0.15673190919E-01  0.00000000000E+00 0. -1.
     999901    1    3    3    0    0 -0.14191872471E+00 -0.59669073304E-02  0.18699063063E-01  0.89158632973E+00  0.88000000000E+00 0. -1.
        -11    1    4    4    0    0  0.11084517482E+00  0.15645567194E-01 -0.23936205110E-01  0.11447549777E+00  0.51100000000E-03 0. -1.
         11    1    4    4    0    0  0.17401599910E-01 -0.64257298324E-02  0.12175812210E-01  0.22194981578E-01  0.51100000000E-03 0.  1.
</event>
<event>
 8    1  0.2123879E+004  0.1043930E+01  0.7957747E-01            NaN
         13   -1    0    0    0    0  0.00000000000E+00  0.00000000000E+00  0.74505805969E-08  0.10566000000E+00  0.10566000000E+00 0. -1.
     999900   -1    0    0    0    0 -0.00000000000E+00 -0.00000000000E+00 -0.74505805969E-08  0.93827000000E+00  0.93827000000E+00 0.  1.
     999902    2    1    2    0    0  0.88776203255E-03  0.76601900517E-02 -0.10808979014E-01  0.10306521741E+01  0.10305666419E+01 0.  0.
     999903    2    3    3    0    0  0.31838687712E-01  0.22094175181E-01  0.12591821917E+00  0.13943916565E+00  0.45673059720E-01 0.  0.
         14    1    1    2    0    0 -0.88776203255E-03 -0.76601900517E-02  0.10808979014E-01  0.13277825891E-01  0.00000000000E+00 0. -1.
     999901    1    3    3    0    0 -0.30950925680E-01 -0.14433985129E-01 -0.13672719819E+00  0.89121300846E+00  0.88000000000E+00 0.  1.
        -11    1    4    4    0    0  0.36773946507E-01  0.19459573696E-02  0.97714753235E-01  0.10442482469E+00  0.51100000000E-03 0. -1.
         11    1    4    4    0    0 -0.49352587947E-02  0.20148217811E-01  0.28203465939E-01  0.35014340953E-01  0.51100000000E-03 0.  1.
</event>
<event>
 8    1  0.2123879E+004  0.1043930E+01  0.7957747E-01            NaN
         13   -1    0    0    0    0  0.00000000000E+00  0.00000000000E+00  0.74505805969E-08  0.10566000000E+00  0.10566000000E+00 0. -1.
     999900   -1    0    0    0    0 -0.00000000000E+00 -0.00000000000E+00 -0.74505805969E-08  0.93827000000E+00  0.93827000000E+00 0.  1.
     999902    2    1    2    0    0  0.11875753180E-01 -0.36192578999E-02 -0.71182825490E-02  0.10296190780E+01  0.10295196178E+01 0.  0.
     999903    2    3    3    0    0  0.95079668367E-01 -0.94664710261E-01 -0.20120686421E-01  0.14092271345E+00  0.38115855480E-01 0.  0.
         14    1    1    2    0    0 -0.11875753180E-01  0.36192578999E-02  0.71182825490E-02  0.14310921975E-01  0.00000000000E+00 0. -1.
     999901    1    3    3    0    0 -0.83203915187E-01  0.91045452361E-01  0.13002403872E-01  0.88869636457E+00  0.88000000000E+00 0.  1.
        -11    1    4    4    0    0  0.73727342777E-01 -0.52602473150E-01 -0.23678330697E-01  0.93614452517E-01  0.51100000000E-03 0.  1.
         11    1    4    4    0    0  0.21352325590E-01 -0.42062237111E-01  0.35576442758E-02  0.47308260935E-01  0.51100000000E-03 0. -1.
</event>
<event>
 8    1  0.2123879E+004  0.1043930E+01  0.7957747E-01            NaN
         13   -1    0    0    0    0  0.00000000000E+00  0.00000000000E+00  0.74505805969E-08  0.10566000000E+00  0.10566000000E+00 0. -1.
     999900   -1    0    0    0    0 -0.00000000000E+00 -0.00000000000E+00 -0.74505805969E-08  0.93827000000E+00  0.93827000000E+00 0. -1.
     999902    2    1    2    0    0 -0.11919833578E-01 -0.57721772882E-02 -0.55488434182E-02  0.10295706781E+01  0.10294705392E+01 0.  0.
     999903    2    3    3    0    0  0.11836188517E+00  0.42446525864E-01  0.34065430789E-01  0.13779286925E+00  0.44890732028E-01 0.  0.
         14    1    1    2    0    0  0.11919833578E-01  0.57721772882E-02  0.55488434182E-02  0.14359321936E-01  0.00000000000E+00 0. -1.
     999901    1    3    3    0    0 -0.13028171875E+00 -0.48218703152E-01 -0.39614274207E-01  0.89177780881E+00  0.88000000000E+00 0.  1.
        -11    1    4    4    0    0  0.51335747653E-01  0.12792850677E-02 -0.17013530702E-02  0.51382402442E-01  0.51100000000E-03 0. -1.
         11    1    4    4    0    0  0.67026137517E-01  0.41167240796E-01  0.35766783859E-01  0.86410466807E-01  0.51100000000E-03 0.  1.
</event>
<event>
 8    1  0.2123879E+004  0.1043930E+01  0.7957747E-01            NaN
         13   -1    0    0    0    0  0.00000000000E+00  0.00000000000E+00  0.74505805969E-08  0.10566000000E+00  0.10566000000E+00 0. -1.
     999900   -1    0    0    0    0 -0.00000000000E+00 -0.00000000000E+00 -0.74505805969E-08  0.93827000000E+00  0.93827000000E+00 0. -1.
     999902    2    1    2    0    0  0.18696041609E-02  0.12758976150E-02  0.12035673372E-01  0.10316833365E+01  0.10316106465E+01 0.  0.
     999903    2    3    3    0    0  0.79372074386E-01 -0.69736911052E-01 -0.80913039160E-01  0.14056666898E+00  0.45264838093E-01 0.  0.
         14    1    1    2    0    0 -0.18696041609E-02 -0.12758976150E-02 -0.12035673372E-01  0.12246663544E-01  0.00000000000E+00 0.  1.
     999901    1    3    3    0    0 -0.77502470225E-01  0.71012808667E-01  0.92948712532E-01  0.89111666747E+00  0.88000000000E+00 0.  1.
        -11    1    4    4    0    0  0.51836980376E-01 -0.15500047176E-01 -0.37247051781E-01  0.65688111438E-01  0.51100000000E-03 0. -1.
         11    1    4    4    0    0  0.27535094010E-01 -0.54236863876E-01 -0.43665987379E-01  0.74878557545E-01  0.51100000000E-03 0.  1.
</event>
<event>
 8    1  0.2123879E+004  0.1043930E+01  0.7957747E-01            NaN
         13   -1    0    0    0    0  0.00000000000E+00  0.00000000000E+00  0.74505805969E-08  0.10566000000E+00  0.10566000000E+00 0. -1.
     999900   -1    0    0    0    0 -0.00000000000E+00 -0.00000000000E+00 -0.74505805969E-08  0.93827000000E+00  0.93827000000E+00 0. -1.
     999902    2    1    2    0    0 -0.34071812052E-02  0.12461645922E-01  0.68862233337E-02  0.10292902741E+01  0.10291861575E+01 0.  0.
     999903    2    3    3    0    0  0.11689228773E+00 -0.53518964959E-01  0.25791192025E-01  0.13845762927E+00  0.44466200386E-01 0.  0.
         14    1    1    2    0    0  0.34071812052E-02 -0.12461645922E-01 -0.68862233337E-02  0.14639725908E-01  0.00000000000E+00 0.  1.
     999901    1    3    3    0    0 -0.12029946893E+00  0.65980610881E-01 -0.18904968691E-01  0.89083264482E+00  0.88000000000E+00 0. -1.
        -11    1    4    4    0    0  0.37228637545E-01 -0.90231977469E-03 -0.62245914806E-02  0.37759664916E-01  0.51100000000E-03 0.  1.
         11    1    4    4    0    0  0.79663650183E-01 -0.52616645184E-01  0.32015783505E-01  0.10069796436E+00  0.51100000000E-03 0. -1.
</event>
<event>
 8    1  0.2123879E+004  0.1043930E+01  0.7957747E-01            NaN
         13   -1    0    0    0    0  0.00000000000E+00  0.00000000000E+00  0.74505805969E-08  0.10566000000E+00  0.10566000000E+00 0.  1.
     999900   -1    0    0    0    0 -0.00000000000E+00 -0.00000000000E+00 -0.74505805969E-08  0.93827000000E+00  0.93827000000E+00 0. -1.
     999902    2    1    2    0    0 -0.45602266989E-03 -0.12605036721E-01  0.41476390394E-02  0.10306522812E+01  0.10305667503E+01 0.  0.
     999903    2    3    3    0    0  0.11470937126E+00 -0.10837845171E-01  0.68147716845E-01  0.14084207620E+00  0.43779908340E-01 0.  0.
         14    1    1    2    0    0  0.45602266989E-03  0.12605036721E-01 -0.41476390394E-02  0.13277718818E-01  0.00000000000E+00 0. -1.
     999901    1    3    3    0    0 -0.11516539393E+00 -0.17671915502E-02 -0.64000077806E-01  0.88981020498E+00  0.88000000000E+00 0.  1.
        -11    1    4    4    0    0  0.57406814177E-01  0.17881893772E-03  0.96491074597E-02  0.58214608870E-01  0.51100000000E-03 0.  1.
         11    1    4    4    0    0  0.57302557087E-01 -0.11016664108E-01  0.58498609385E-01  0.82627467333E-01  0.51100000000E-03 0. -1.
</event>
<event>
 8    1  0.2123879E+004  0.1043930E+01  0.7957747E-01            NaN
         13   -1    0    0    0    0  0.00000000000E+00  0.00000000000E+00  0.74505805969E-08  0.10566000000E+00  0.10566000000E+00 0.  1.
     999900   -1    0    0    0    0 -0.00000000000E+00 -0.00000000000E+00 -0.74505805969E-08  0.93827000000E+00  0.93827000000E+00 0. -1.
     999902    2    1    2    0    0  0.69822588635E-02 -0.12289960983E-01  0.17528468214E-02  0.10296868419E+01  0.10295883279E+01 0.  0.
     999903    2    3    3    0    0  0.24045774246E-01  0.76635764206E-01 -0.10376606847E+00  0.13876979212E+00  0.45148849648E-01 0.  0.
         14    1    1    2    0    0 -0.69822588635E-02  0.12289960983E-01 -0.17528468214E-02  0.14243158069E-01  0.00000000000E+00 0.  1.
     999901    1    3    3    0    0 -0.17063515382E-01 -0.88925725189E-01  0.10551891529E+00  0.89091704981E+00  0.88000000000E+00 0.  1.
        -11    1    4    4    0    0  0.61403570907E-02 -0.10072579589E-02 -0.28445713145E-01  0.29122813585E-01  0.51100000000E-03 0. -1.
         11    1    4    4    0    0  0.17905417155E-01  0.77643022165E-01 -0.75320355328E-01  0.10964697854E+00  0.51100000000E-03 0.  1.
</event>
<event>
 8    1  0.2123879E+004  0.1043930E+01  0.7957747E-01            NaN
         13   -1    0    0    0    0  0.00000000000E+00  0.00000000000E+00  0.74505805969E-08  0.10566000000E+00  0.10566000000E+00 0.  1.
     999900   -1    0    0    0    0 -0.00000000000E+00 -0.00000000000E+00 -0.74505805969E-08  0.93827000000E+00  0.93827000000E+00 0. -1.
     999902    2    1    2    0    0  0.35994548280E-02  0.10645425398E-01  0.10660035162E-01  0.10284407293E+01  0.10283240813E+01 0.  0.
     999903    2    3    3    0    0  0.27703437980E-01 -0.10258487715E+00 -0.73628154913E-01  0.13686538061E+00  0.44943183211E-01 0.  0.
         14    1    1    2    0    0 -0.35994548280E-02 -0.10645425398E-01 -0.10660035162E-01  0.15489270694E-01  0.00000000000E+00 0. -1.
     999901    1    3    3    0    0 -0.24103983152E-01  0.11323030255E+00  0.84288190075E-01  0.89157534870E+00  0.88000000000E+00 0.  1.
        -11    1    4    4    0    0  0.34877753474E-01 -0.48146029771E-01 -0.47268359788E-01  0.75954307503E-01  0.51100000000E-03 0.  1.
         11    1    4    4    0    0 -0.71743154941E-02 -0.54438847380E-01 -0.26359795125E-01  0.60911073106E-01  0.51100000000E-03 0. -1.
</event>
<event>
 8    1  0.2123879E+004  0.1043930E+01  0.7957747E-01            NaN
         13   -1    0    0    0    0  0.00000000000E+00  0.00000000000E+00  0.74505805969E-08  0.10566000000E+00  0.10566000000E+00 0. -1.
     999900   -1    0    0    0    0 -0.00000000000E+00 -0.00000000000E+00 -0.74505805969E-08  0.93827000000E+00  0.93827000000E+00 0.  1.
     999902    2    1    2    0    0  0.72482229121E-03 -0.13420701648E-01 -0.12158729826E-02  0.10304348547E+01  0.10303464809E+01 0.  0.
     999903    2    3    3    0    0 -0.66382981118E-01 -0.42828394319E-01  0.10807515805E+00  0.14065240985E+00  0.43149612597E-01 0.  0.
         14    1    1    2    0    0 -0.72482229121E-03  0.13420701648E-01  0.12158729826E-02  0.13495145320E-01  0.00000000000E+00 0. -1.
     999901    1    3    3    0    0  0.67107803409E-01  0.29407692671E-01 -0.10929103103E+00  0.88978244483E+00  0.88000000000E+00 0.  1.
        -11    1    4    4    0    0 -0.68430946562E-01 -0.38526078281E-01  0.79753795846E-01  0.11192846925E+00  0.51100000000E-03 0. -1.
         11    1    4    4    0    0  0.20479654447E-02 -0.43023160379E-02  0.28321362201E-01  0.28723940602E-01  0.51100000000E-03 0.  1.
</event>
<event>
 8    1  0.2123879E+004  0.1043930E+01  0.7957747E-01            NaN
         13   -1    0    0    0    0  0.00000000000E+00  0.00000000000E+00  0.74505805969E-08  0.10566000000E+00  0.10566000000E+00 0.  1.
     999900   -1    0    0    0    0 -0.00000000000E+00 -0.00000000000E+00 -0.74505805969E-08  0.93827000000E+00  0.93827000000E+00 0. -1.
     999902    2    1    2    0    0 -0.62513224821E-02 -0.12295987689E-01 -0.37296064308E-03  0.10301311071E+01  0.10300386829E+01 0.  0.
     999903    2    3    3    0    0 -0.25116158740E-01 -0.17355404567E-01 -0.12955748317E+00  0.14048504229E+00  0.44931883603E-01 0.  0.
         14    1    1    2    0    0  0.62513224821E-02  0.12295987689E-01  0.37296064308E-03  0.13798892915E-01  0.00000000000E+00 0. -1.
     999901    1    3    3    0    0  0.18864836258E-01  0.50594168775E-02  0.12918452253E+00  0.88964606480E+00  0.88000000000E+00 0.  1.
        -11    1    4    4    0    0 -0.33074635810E-01 -0.12101406599E-01 -0.54956119774E-01  0.65274894081E-01  0.51100000000E-03 0.  1.
         11    1    4    4    0    0  0.79584770705E-02 -0.52539979682E-02 -0.74601363397E-01  0.75210148209E-01  0.51100000000E-03 0. -1.
</event>
<event>
 8    1  0.2123879E+004  0.1043930E+01  0.7957747E-01            NaN
         13   -1    0    0    0    0  0.00000000000E+00  0.00000000000E+00  0.74505805969E-08  0.10566000000E+00  0.10566000000E+00 0. -1.
     999900   -1    0    0    0    0 -0.00000000000E+00 -0.00000000000E+00 -0.74505805969E-08  0.93827000000E+00  0.93827000000E+00 0. -1.
     999902    2    1    2    0    0  0.13172093540E-02  0.13273312470E-01 -0.34596378271E-02  0.10301501249E+01  0.10300579570E+01 0.  0.
     999903    2    3    3    0    0 -0.12587328911E+00 -0.17416246764E-01 -0.36992373199E-01  0.13984471869E+00  0.45174097756E-01 0.  0.
         14    1    1    2    0    0 -0.13172093540E-02 -0.13273312470E-01  0.34596378271E-02  0.13779875119E-01  0.00000000000E+00 0. -1.
     999901    1    3    3    0    0  0.12719049847E+00  0.30689559234E-01  0.33532735372E-01  0.89030540619E+00  0.88000000000E+00 0. -1.
        -11    1    4    4    0    0 -0.11800100137E+00 -0.24693182523E-01 -0.23880599888E-01  0.12290050349E+00  0.51100000000E-03 0.  1.
         11    1    4    4    0    0 -0.78722877446E-02  0.72769357591E-02 -0.13111773310E-01  0.16944215199E-01  0.51100000000E-03 0. -1.
</event>
<event>
 8    1  0.2123879E+004  0.1043930E+01  0.7957747E-01            NaN
         13   -1    0    0    0    0  0.00000000000E+00  0.00000000000E+00  0.74505805969E-08  0.10566000000E+00  0.10566000000E+00 0. -1.
     999900   -1    0    0    0    0 -0.00000000000E+00 -0.00000000000E+00 -0.74505805969E-08  0.93827000000E+00  0.93827000000E+00 0. -1.
     999902    2    1    2    0    0 -0.31360397837E-02 -0.57279635147E-02 -0.11668361842E-01  0.10305585760E+01  0.10304718257E+01 0.  0.
     999903    2    3    3    0    0 -0.74971605677E-01 -0.62198808846E-01 -0.92864513114E-01  0.14210929784E+00  0.45626760304E-01 0.  0.
         14    1    1    2    0    0  0.31360397837E-02  0.57279635147E-02  0.11668361842E-01  0.13371423994E-01  0.00000000000E+00 0. -1.
     999901    1    3    3    0    0  0.71835565894E-01  0.56470845331E-01  0.81196151273E-01  0.88844927817E+00  0.88000000000E+00 0.  1.
        -11    1    4    4    0    0 -0.18219323301E-01 -0.40190407081E-01 -0.24135722997E-01  0.50299173039E-01  0.51100000000E-03 0.  1.
         11    1    4    4    0    0 -0.56752282377E-01 -0.22008401766E-01 -0.68728790117E-01  0.91810124797E-01  0.51100000000E-03 0. -1.
</event>
<event>
 8    1  0.2123879E+004  0.1043930E+01  0.7957747E-01            NaN
         13   -1    0    0    0    0  0.00000000000E+00  0.00000000000E+00  0.74505805969E-08  0.10566000000E+00  0.10566000000E+00 0.  1.
     999900   -1    0    0    0    0 -0.00000000000E+00 -0.00000000000E+00 -0.74505805969E-08  0.93827000000E+00  0.93827000000E+00 0. -1.
     999902    2    1    2    0    0 -0.28724749532E-02  0.40621590447E-02 -0.12268628755E-01  0.10306909857E+01  0.10306059560E+01 0.  0.
     999903    2    3    3    0    0 -0.12336553231E-01  0.76356742415E-01  0.10721628627E+00  0.13962829402E+00  0.44924222770E-01 0.  0.
         14    1    1    2    0    0  0.28724749532E-02 -0.40621590447E-02  0.12268628755E-01  0.13239014313E-01  0.00000000000E+00 0.  1.
     999901    1    3    3    0    0  0.94640782777E-02 -0.72294583370E-01 -0.11948491503E+00  0.89106269167E+00  0.88000000000E+00 0. -1.
        -11    1    4    4    0    0  0.14606418995E-02  0.75423384235E-01  0.93571170251E-01  0.12019419864E+00  0.51100000000E-03 0. -1.
         11    1    4    4    0    0 -0.13797195130E-01  0.93335818012E-03  0.13645116020E-01  0.19434095378E-01  0.51100000000E-03 0.  1.
</event>
<event>
 8    1  0.2123879E+004  0.1043930E+01  0.7957747E-01            NaN
         13   -1    0    0    0    0  0.00000000000E+00  0.00000000000E+00  0.74505805969E-08  0.10566000000E+00  0.10566000000E+00 0. -1.
     999900   -1    0    0    0    0 -0.00000000000E+00 -0.00000000000E+00 -0.74505805969E-08  0.93827000000E+00  0.93827000000E+00 0.  1.
     999902    2    1    2    0    0 -0.57671222358E-02 -0.14101108445E-01 -0.68838431448E-02  0.10272120978E+01  0.10270760466E+01 0.  0.
     999903    2    3    3    0    0 -0.28279306752E-01  0.90785578037E-01 -0.87884057845E-01  0.13700479033E+00  0.44776830841E-01 0.  0.
         14    1    1    2    0    0  0.57671222358E-02  0.14101108445E-01  0.68838431448E-02  0.16717902222E-01  0.00000000000E+00 0. -1.
     999901    1    3    3    0    0  0.22512184516E-01 -0.10488668648E+00  0.81000214700E-01  0.89020730745E+00  0.88000000000E+00 0. -1.
        -11    1    4    4    0    0 -0.81628312817E-02  0.40053122078E-01 -0.10317927958E-01  0.42161655104E-01  0.51100000000E-03 0.  1.
         11    1    4    4    0    0 -0.20116475471E-01  0.50732455959E-01 -0.77566129887E-01  0.94843135226E-01  0.51100000000E-03 0. -1.
</event>
<event>
 8    1  0.2123879E+004  0.1043930E+01  0.7957747E-01            NaN
         13   -1    0    0    0    0  0.00000000000E+00  0.00000000000E+00  0.74505805969E-08  0.10566000000E+00  0.10566000000E+00 0. -1.
     999900   -1    0    0    0    0 -0.00000000000E+00 -0.00000000000E+00 -0.74505805969E-08  0.93827000000E+00  0.93827000000E+00 0. -1.
     999902    2    1    2    0    0 -0.11271265542E-01 -0.30326939143E-02  0.96359079036E-02  0.10287943011E+01  0.10286829563E+01 0.  0.
     999903    2    3    3    0    0  0.52683510561E-01 -0.10256092517E+00  0.63575171578E-01  0.13924074660E+00  0.45297763923E-01 0.  0.
         14    1    1    2    0    0  0.11271265542E-01  0.30326939143E-02 -0.96359079036E-02  0.15135698875E-01  0.00000000000E+00 0.  1.
     999901    1    3    3    0    0 -0.63954776103E-01  0.99528231253E-01 -0.53939263675E-01  0.88955355453E+00  0.88000000000E+00 0.  1.
        -11    1    4    4    0    0  0.53439053970E-01 -0.56918003803E-01  0.36758270695E-01  0.86294978021E-01  0.51100000000E-03 0. -1.
         11    1    4    4    0    0 -0.75554340897E-03 -0.45642921364E-01  0.26816900884E-01  0.52945768579E-01  0.51100000000E-03 0.  1.
</event>
<event>
 8    1  0.2123879E+004  0.1043930E+01  0.7957747E-01            NaN
         13   -1    0    0    0    0  0.00000000000E+00  0.00000000000E+00  0.74505805969E-08  0.10566000000E+00  0.10566000000E+00 0.  1.
     999900   -1    0    0    0    0 -0.00000000000E+00 -0.00000000000E+00 -0.74505805969E-08  0.93827000000E+00  0.93827000000E+00 0. -1.
     999902    2    1    2    0    0  0.62957366119E-02 -0.25921626965E-02  0.11957374713E-01  0.10301701157E+01  0.10300782168E+01 0.  0.
     999903    2    3    3    0    0 -0.49819248966E-02  0.71767698225E-02  0.13410347662E+00  0.14160819441E+00  0.44640930556E-01 0.  0.
         14    1    1    2    0    0 -0.62957366119E-02  0.25921626965E-02 -0.11957374713E-01  0.13759884337E-01  0.00000000000E+00 0. -1.
     999901    1    3    3    0    0  0.11277661509E-01 -0.97689325190E-02 -0.12214610191E+00  0.88856192125E+00  0.88000000000E+00 0. -1.
        -11    1    4    4    0    0  0.10293758465E-02 -0.17407353836E-01  0.79940407809E-01  0.81821791131E-01  0.51100000000E-03 0. -1.
         11    1    4    4    0    0 -0.60113007431E-02  0.24584123659E-01  0.54163068813E-01  0.59786403278E-01  0.51100000000E-03 0.  1.
</event>
<event>
 8    1  0.2123879E+004  0.1043930E+01  0.7957747E-01            NaN
         13   -1    0    0    0    0  0.00000000000E+00  0.00000000000E+00  0.74505805969E-08  0.10566000000E+00  0.10566000000E+00 0. -1.
     999900   -1    0    0    0    0 -0.00000000000E+00 -0.00000000000E+00 -0.74505805969E-08  0.93827000000E+00  0.93827000000E+00 0. -1.
     999902    2    1    2    0    0 -0.10969591310E-01  0.37272100200E-02 -0.78149411848E-02  0.10299551178E+01  0.10298603047E+01 0.  0.
     999903    2    3    3    0    0 -0.11739073395E+00 -0.58228006363E-01 -0.33260825900E-01  0.14101676135E+00  0.40104355128E-01 0.  0.
         14    1    1    2    0    0  0.10969591310E-01 -0.37272100200E-02  0.78149411848E-02  0.13974882245E-01  0.00000000000E+00 0. -1.
     999901    1    3    3    0    0  0.10642114264E+00  0.61955216383E-01  0.25445884716E-01  0.88893835640E+00  0.88000000000E+00 0. -1.
        -11    1    4    4    0    0 -0.79976974809E-01 -0.29280112084E-01 -0.37361761319E-02  0.85251754213E-01  0.51100000000E-03 0.  1.
         11    1    4    4    0    0 -0.37413759140E-01 -0.28947894279E-01 -0.29524649769E-01  0.55765007138E-01  0.51100000000E-03 0. -1.
</event>
<event>
 8    1  0.2123879E+004  0.1043930E+01  0.7957747E-01            NaN
         13   -1    0    0    0    0  0.00000000000E+00  0.00000000000E+00  0.74505805969E-08  0.10566000000E+00  0.10566000000E+00 0.  1.
     999900   -1    0    0    0    0 -0.00000000000E+00 -0.00000000000E+00 -0.74505805969E-08  0.93827000000E+00  0.93827000000E+00 0. -1.
     999902    2    1    2    0    0 -0.77386305351E-02  0.12715198901E-01  0.11289094902E-01  0.10252482884E+01  0.10250780685E+01 0.  0.
     999903    2    3    3    0    0  0.10540582364E+00  0.57407493256E-01  0.51047697856E-01  0.13599027452E+00  0.38489990510E-01 0.  0.
         14    1    1    2    0    0  0.77386305351E-02 -0.12715198901E-01 -0.11289094902E-01  0.18681711628E-01  0.00000000000E+00 0. -1.
     999901    1    3    3    0    0 -0.11314445417E+00 -0.44692294355E-01 -0.39758602954E-01  0.88925801385E+00  0.88000000000E+00 0. -1.
        -11    1    4    4    0    0  0.49439259545E-01  0.46414354658E-01  0.36983645167E-01  0.77243665329E-01  0.51100000000E-03 0. -1.
         11    1    4    4    0    0  0.55966564094E-01  0.10993138598E-01  0.14064052689E-01  0.58746609194E-01  0.51100000000E-03 0.  1.
</event>
<event>
 8    1  0.2123879E+004  0.1043930E+01  0.7957747E-01            NaN
         13   -1    0    0    0    0  0.00000000000E+00  0.00000000000E+00  0.74505805969E-08  0.10566000000E+00  0.10566000000E+00 0.  1.
     999900   -1    0    0    0    0 -0.00000000000E+00 -0.00000000000E+00 -0.74505805969E-08  0.93827000000E+00  0.93827000000E+00 0. -1.
     999902    2    1    2    0    0  0.66161903327E-02 -0.70207075700E-02 -0.98252881849E-02  0.10301604467E+01  0.10300684178E+01 0.  0.
     999903    2    3    3    0    0 -0.78187144620E-01  0.96017765824E-01 -0.45006705282E-01  0.13940443933E+00  0.45556045110E-01 0.  0.
         14    1    1    2    0    0 -0.66161903327E-02  0.70207075700E-02  0.98252881849E-02  0.13769553269E-01  0.00000000000E+00 0.  1.
     999901    1    3    3    0    0  0.84803334953E-01 -0.10303847339E+00  0.35181417097E-01  0.89075600740E+00  0.88000000000E+00 0. -1.
        -11    1    4    4    0    0 -0.29957755900E-01  0.63965857142E-01 -0.89849930406E-02  0.71204559120E-01  0.51100000000E-03 0. -1.
         11    1    4    4    0    0 -0.48229388720E-01  0.32051908681E-01 -0.36021712241E-01  0.68199880207E-01  0.51100000000E-03 0.  1.
</event>
<event>
 7    1  0.2123879E+004  0.1043930E+01  0.7957747E-01            NaN
         13   -1    0    0    0    0  0.00000000000E+00  0.00000000000E+00  0.74505805969E-08  0.10566000000E+00  0.10566000000E+00 0.  1.
     999900   -1    0    0    0    0 -0.00000000000E+00 -0.00000000000E+00 -0.74505805969E-08  0.93827000000E+00  0.93827000000E+00 0.  1.
     999903    2    1    2    0    0  0.28064987269E-02  0.10141819946E-01 -0.80975781710E-01  0.92960882723E-01  0.44428769353E-01 0.  0.
         14    1    1    2    0    0  0.60404019983E-01 -0.18036786299E-01 -0.10608950515E-01  0.63925903365E-01  0.00000000000E+00 0. -1.
     999901    1    1    2    0    0 -0.63210518710E-01  0.78949663534E-02  0.91584732225E-01  0.88704321391E+00  0.88000000000E+00 0. -1.
        -11    1    3    3    0    0  0.15948132442E-01  0.21668704928E-01 -0.59223268337E-01  0.65050229325E-01  0.51100000000E-03 0.  1.
         11    1    3    3    0    0 -0.13141633715E-01 -0.11526884983E-01 -0.21752513373E-01  0.27910653399E-01  0.51100000000E-03 0. -1.
</event>
<event>
 8    1  0.2123879E+004  0.1043930E+01  0.7957747E-01            NaN
         13   -1    0    0    0    0  0.00000000000E+00  0.00000000000E+00  0.74505805969E-08  0.10566000000E+00  0.10566000000E+00 0. -1.
     999900   -1    0    0    0    0 -0.00000000000E+00 -0.00000000000E+00 -0.74505805969E-08  0.93827000000E+00  0.93827000000E+00 0. -1.
     999902    2    1    2    0    0  0.18682639963E-02 -0.11656044000E-01 -0.85181195345E-02  0.10293727979E+01  0.10292698601E+01 0.  0.
     999903    2    3    3    0    0 -0.47428658194E-01  0.17626808082E-01 -0.12272378291E+00  0.14014245346E+00  0.44928814670E-01 0.  0.
         14    1    1    2    0    0 -0.18682639963E-02  0.11656044000E-01  0.85181195345E-02  0.14557202084E-01  0.00000000000E+00 0.  1.
     999901    1    3    3    0    0  0.49296922190E-01 -0.29282852082E-01  0.11420566337E+00  0.88923034446E+00  0.88000000000E+00 0.  1.
        -11    1    4    4    0    0 -0.31743427866E-01  0.22921138283E-01 -0.40757450468E-01  0.56519507097E-01  0.51100000000E-03 0. -1.
         11    1    4    4    0    0 -0.15685230328E-01 -0.52943302017E-02 -0.81966332441E-01  0.83622946358E-01  0.51100000000E-03 0.  1.
</event>
<event>
 7    1  0.2123879E+004  0.1043930E+01  0.7957747E-01            NaN
         13   -1    0    0    0    0  0.00000000000E+00  0.00000000000E+00  0.74505805969E-08  0.10566000000E+00  0.10566000000E+00 0. -1.
     999900   -1    0    0    0    0 -0.00000000000E+00 -0.00000000000E+00 -0.74505805969E-08  0.93827000000E+00  0.93827000000E+00 0.  1.
     999903    2    1    2    0    0  0.50667059567E-01  0.61878757125E-02 -0.44033607411E-01  0.80747969104E-01  0.44450367847E-01 0.  0.
         14    1    1    2    0    0 -0.35484813838E-01 -0.36827141237E-01 -0.57188515624E-01  0.76719858342E-01  0.00000000000E+00 0.  1.
     999901    1    1    2    0    0 -0.15182245728E-01  0.30639265524E-01  0.10122212304E+00  0.88646217255E+00  0.88000000000E+00 0. -1.
        -11    1    3    3    0    0  0.58165865953E-02 -0.16323450712E-01 -0.89069408867E-02  0.19490573099E-01  0.51100000000E-03 0. -1.
         11    1    3    3    0    0  0.44850472971E-01  0.22511326424E-01 -0.35126666525E-01  0.61257396005E-01  0.51100000000E-03 0.  1.
</event>
<event>
 8    1  0.2123879E+004  0.1043930E+01  0.7957747E-01            NaN
         13   -1    0    0    0    0  0.00000000000E+00  0.00000000000E+00  0.74505805969E-08  0.10566000000E+00  0.10566000000E+00 0. -1.
     999900   -1    0    0    0    0 -0.00000000000E+00 -0.00000000000E+00 -0.74505805969E-08  0.93827000000E+00  0.93827000000E+00 0. -1.
     999902    2    1    2    0    0  0.11708720362E-02 -0.69421507398E-02  0.11705599188E-01  0.10302703715E+01  0.10301798158E+01 0.  0.
     999903    2    3    3    0    0  0.43575741833E-01  0.12456351219E+00  0.46253848509E-03  0.13941779179E+00  0.44968798968E-01 0.  0.
         14    1    1    2    0    0 -0.11708720362E-02  0.69421507398E-02 -0.11705599188E-01  0.13659628493E-01  0.00000000000E+00 0.  1.
     999901    1    3    3    0    0 -0.42404869796E-01 -0.13150566293E+00  0.11243060702E-01  0.89085257971E+00  0.88000000000E+00 0.  1.
        -11    1    4    4    0    0 -0.52389474469E-02  0.44727757484E-01  0.71520040302E-02  0.45600780065E-01  0.51100000000E-03 0. -1.
         11    1    4    4    0    0  0.48814689279E-01  0.79835754710E-01 -0.66894655451E-02  0.93817011729E-01  0.51100000000E-03 0.  1.
</event>
<event>
 8    1  0.2123879E+004  0.1043930E+01  0.7957747E-01            NaN
         13   -1    0    0    0    0  0.00000000000E+00  0.00000000000E+00  0.74505805969E-08  0.10566000000E+00  0.10566000000E+00 0. -1.
     999900   -1    0    0    0    0 -0.00000000000E+00 -0.00000000000E+00 -0.74505805969E-08  0.93827000000E+00  0.93827000000E+00 0.  1.
     999902    2    1    2    0    0 -0.93255224581E-02 -0.67149415059E-02  0.70534848053E-02  0.10304464005E+01  0.10303581789E+01 0.  0.
     999903    2    3    3    0    0 -0.92676453886E-02  0.61155505686E-01  0.11817141277E+00  0.14086582802E+00  0.45307985852E-01 0.  0.
         14    1    1    2    0    0  0.93255224581E-02  0.67149415059E-02 -0.70534848053E-02  0.13483599536E-01  0.00000000000E+00 0. -1.
     999901    1    3    3    0    0 -0.57877069546E-04 -0.67870447192E-01 -0.11111792796E+00  0.88958057244E+00  0.88000000000E+00 0.  1.
        -11    1    4    4    0    0 -0.10917664035E-01  0.39924754687E-01  0.11087496839E+00  0.11834990985E+00  0.51100000000E-03 0. -1.
         11    1    4    4    0    0  0.16500186460E-02  0.21230750999E-01  0.72964443746E-02  0.22515918170E-01  0.51100000000E-03 0.  1.
</event>
<event>
 8    1  0.2123879E+004  0.1043930E+01  0.7957747E-01            NaN
         13   -1    0    0    0    0  0.00000000000E+00  0.00000000000E+00  0.74505805969E-08  0.10566000000E+00  0.10566000000E+00 0.  1.
     999900   -1    0    0    0    0 -0.00000000000E+00 -0.00000000000E+00 -0.74505805969E-08  0.93827000000E+00  0.93827000000E+00 0.  1.
     999902    2    1    2    0    0 -0.88761034030E-02  0.83083287269E-03  0.11304706240E-01  0.10295330601E+01  0.10294323921E+01 0.  0.
     999903    2    3    3    0    0 -0.45648429814E-01  0.29052844489E-01  0.12211336443E+00  0.14137358983E+00  0.46335420712E-01 0.  0.
         14    1    1    2    0    0  0.88761034030E-02 -0.83083287269E-03 -0.11304706240E-01  0.14396939885E-01  0.00000000000E+00 0. -1.
     999901    1    3    3    0    0  0.36772326411E-01 -0.28222011617E-01 -0.11080865819E+00  0.88815947029E+00  0.88000000000E+00 0.  1.
        -11    1    4    4    0    0 -0.48643122283E-01  0.14655303473E-01  0.65584228193E-01  0.82960733929E-01  0.51100000000E-03 0. -1.
         11    1    4    4    0    0  0.29946924687E-02  0.14397541016E-01  0.56529136232E-01  0.58412855901E-01  0.51100000000E-03 0.  1.
</event>
<event>
 8    1  0.2123879E+004  0.1043930E+01  0.7957747E-01            NaN
         13   -1    0    0    0    0  0.00000000000E+00  0.00000000000E+00  0.74505805969E-08  0.10566000000E+00  0.10566000000E+00 0. -1.
     999900   -1    0    0    0    0 -0.00000000000E+00 -0.00000000000E+00 -0.74505805969E-08  0.93827000000E+00  0.93827000000E+00 0. -1.
     999902    2    1    2    0    0 -0.71572587158E-02 -0.75062375282E-02  0.58257655025E-02  0.10320342235E+01  0.10319656627E+01 0.  0.
     999903    2    3    3    0    0  0.70773057967E-01 -0.11361304683E+00  0.15552807643E-01  0.14218794209E+00  0.45373680784E-01 0.  0.
         14    1    1    2    0    0  0.71572587158E-02  0.75062375282E-02 -0.58257655025E-02  0.11895776471E-01  0.00000000000E+00 0.  1.
     999901    1    3    3    0    0 -0.77930316683E-01  0.10610680930E+00 -0.97270421405E-02  0.88984628144E+00  0.88000000000E+00 0. -1.
        -11    1    4    4    0    0  0.66328875399E-01 -0.11303395315E+00  0.23404881985E-01  0.13313242992E+00  0.51100000000E-03 0. -1.
         11    1    4    4    0    0  0.44441825678E-02 -0.57909368021E-03 -0.78520743417E-02  0.90555121696E-02  0.51100000000E-03 0.  1.
</event>
<event>
 8    1  0.2123879E+004  0.1043930E+01  0.7957747E-01            NaN
         13   -1    0    0    0    0  0.00000000000E+00  0.00000000000E+00  0.74505805969E-08  0.10566000000E+00  0.10566000000E+00 0. -1.
     999900   -1    0    0    0    0 -0.00000000000E+00 -0.00000000000E+00 -0.74505805969E-08  0.93827000000E+00  0.93827000000E+00 0.  1.
     999902    2    1    2    0    0  0.50661694282E-02  0.33916812639E-02 -0.11519402107E-01  0.10308967272E+01  0.10308143363E+01 0.  0.
     999903    2    3    3    0    0  0.75741327712E-01 -0.92461550449E-01  0.57851468250E-01  0.14016941896E+00  0.44886374296E-01 0.  0.
         14    1    1    2    0    0 -0.50661694282E-02 -0.33916812639E-02  0.11519402107E-01  0.13033272781E-01  0.00000000000E+00 0. -1.
     999901    1    3    3    0    0 -0.70675158284E-01  0.95853231713E-01 -0.69370870357E-01  0.89072730826E+00  0.88000000000E+00 0.  1.
        -11    1    4    4    0    0  0.36221307717E-01 -0.16489558368E-01  0.30908330489E-01  0.50393200757E-01  0.51100000000E-03 0.  1.
         11    1    4    4    0    0  0.39520019995E-01 -0.75971992081E-01  0.26943137761E-01  0.89776218201E-01  0.51100000000E-03 0. -1.
</event>
<event>
 8    1  0.2123879E+004  0.1043930E+01  0.7957747E-01            NaN
         13   -1    0    0    0    0  0.00000000000E+00  0.00000000000E+00  0.74505805969E-08  0.10566000000E+00  0.10566000000E+00 0.  1.
     999900   -1    0    0    0    0 -0.00000000000E+00 -0.00000000000E+00 -0.74505805969E-08  0.93827000000E+00  0.93827000000E+00 0. -1.
     999902    2    1    2    0    0  0.32241886731E-03  0.13234502992E-01  0.32448757982E-02  0.10302996940E+01  0.10302095293E+01 0.  0.
     999903    2    3    3    0    0  0.44382417984E-01 -0.89720296239E-01  0.85867824258E-01  0.13936337424E+00  0.45048154837E-01 0.  0.
         14    1    1    2    0    0 -0.32241886731E-03 -0.13234502992E-01 -0.32448757982E-02  0.13630306024E-01  0.00000000000E+00 0. -1.
     999901    1    3    3    0    0 -0.44059999117E-01  0.10295479923E+00 -0.82622948460E-01  0.89093631973E+00  0.88000000000E+00 0. -1.
        -11    1    4    4    0    0  0.11269873543E-01 -0.16747876208E-01 -0.21775222185E-02  0.20310197713E-01  0.51100000000E-03 0. -1.
         11    1    4    4    0    0  0.33112544441E-01 -0.72972420031E-01  0.88045346477E-01  0.11905317653E+00  0.51100000000E-03 0.  1.
</event>
<event>
 8    1  0.2123879E+004  0.1043930E+01  0.7957747E-01            NaN
         13   -1    0    0    0    0  0.00000000000E+00  0.00000000000E+00  0.74505805969E-08  0.10566000000E+00  0.10566000000E+00 0. -1.
     999900   -1    0    0    0    0 -0.00000000000E+00 -0.00000000000E+00 -0.74505805969E-08  0.93827000000E+00  0.93827000000E+00 0.  1.
     999902    2    1    2    0    0  0.74301976644E-02  0.24276509460E-02  0.12013727281E-01  0.10295971367E+01  0.10294973691E+01 0.  0.
     999903    2    3    3    0    0 -0.92483509044E-01 -0.83341423154E-01 -0.40317315831E-01  0.13826239549E+00  0.44631959319E-01 0.  0.
         14    1    1    2    0    0 -0.74301976644E-02 -0.24276509460E-02 -0.12013727281E-01  0.14332863274E-01  0.00000000000E+00 0.  1.
     999901    1    3    3    0    0  0.99913706708E-01  0.85769074100E-01  0.52331043112E-01  0.89133474124E+00  0.88000000000E+00 0. -1.
        -11    1    4    4    0    0 -0.64707395310E-01 -0.28481769332E-01 -0.23649383465E-01  0.74550738771E-01  0.51100000000E-03 0. -1.
         11    1    4    4    0    0 -0.27776113734E-01 -0.54859653822E-01 -0.16667932366E-01  0.63711656719E-01  0.51100000000E-03 0.  1.
</event>
<event>
 8    1  0.2123879E+004  0.1043930E+01  0.7957747E-01            NaN
         13   -1    0    0    0    0  0.00000000000E+00  0.00000000000E+00  0.74505805969E-08  0.10566000000E+00  0.10566000000E+00 0. -1.
     999900   -1    0    0    0    0 -0.00000000000E+00 -0.00000000000E+00 -0.74505805969E-08  0.93827000000E+00  0.93827000000E+00 0. -1.
     999902    2    1    2    0    0  0.54919571938E-02 -0.12292115565E-01  0.36777363707E-02  0.10299735161E+01  0.10298789542E+01 0.  0.
     999903    2    3    3    0    0 -0.85919243144E-02  0.10234230676E+00  0.82395725620E-01  0.13894269262E+00  0.44364933411E-01 0.  0.
         14    1    1    2    0    0 -0.54919571938E-02  0.12292115565E-01 -0.36777363707E-02  0.13956483930E-01  0.00000000000E+00 0. -1.
     999901    1    3    3    0    0  0.14083881508E-01 -0.11463442233E+00 -0.78717989249E-01  0.89103082345E+00  0.88000000000E+00 0. -1.
        -11    1    4    4    0    0  0.13003275974E-01  0.78774315270E-01  0.56704806329E-01  0.97929434361E-01  0.51100000000E-03 0. -1.
         11    1    4    4    0    0 -0.21595200288E-01  0.23567991490E-01  0.25690919290E-01  0.41013258263E-01  0.51100000000E-03 0.  1.
</event>
<event>
 8    1  0.2123879E+004  0.1043930E+01  0.7957747E-01            NaN
         13   -1    0    0    0    0  0.00000000000E+00  0.00000000000E+00  0.74505805969E-08  0.10566000000E+00  0.10566000000E+00 0. -1.
     999900   -1    0    0    0    0 -0.00000000000E+00 -0.00000000000E+00 -0.74505805969E-08  0.93827000000E+00  0.93827000000E+00 0. -1.
     999902    2    1    2    0    0 -0.96863410189E-02 -0.26867568362E-02 -0.87906565402E-02  0.10305763673E+01  0.10304898492E+01 0.  0.
     999903    2    3    3    0    0  0.53127977962E-02  0.98798608412E-01 -0.89846835254E-01  0.14091668086E+00  0.44672880967E-01 0.  0.
         14    1    1    2    0    0  0.96863410189E-02  0.26867568362E-02  0.87906565402E-02  0.13353632728E-01  0.00000000000E+00 0. -1.
     999901    1    3    3    0    0 -0.14999138815E-01 -0.10148536525E+00  0.81056178714E-01  0.88965968642E+00  0.88000000000E+00 0. -1.
        -11    1    4    4    0    0 -0.19750408131E-01  0.48161419337E-01 -0.43113538158E-01  0.67591709753E-01  0.51100000000E-03 0. -1.
         11    1    4    4    0    0  0.25063205927E-01  0.50637189076E-01 -0.46733297096E-01  0.73324971103E-01  0.51100000000E-03 0.  1.
</event>
<event>
 8    1  0.2123879E+004  0.1043930E+01  0.7957747E-01            NaN
         13   -1    0    0    0    0  0.00000000000E+00  0.00000000000E+00  0.74505805969E-08  0.10566000000E+00  0.10566000000E+00 0.  1.
     999900   -1    0    0    0    0 -0.00000000000E+00 -0.00000000000E+00 -0.74505805969E-08  0.93827000000E+00  0.93827000000E+00 0.  1.
     999902    2    1    2    0    0  0.96728983791E-02 -0.98425826548E-02  0.97741352241E-03  0.10300953792E+01  0.10300024725E+01 0.  0.
     999903    2    3    3    0    0  0.44821932401E-01  0.32454403722E-01  0.12132875912E+00  0.14020272495E+00  0.43287900706E-01 0.  0.
         14    1    1    2    0    0 -0.96728983791E-02  0.98425826548E-02 -0.97741352241E-03  0.13834620832E-01  0.00000000000E+00 0.  1.
     999901    1    3    3    0    0 -0.35149034022E-01 -0.42296986377E-01 -0.12035134560E+00  0.88989265422E+00  0.88000000000E+00 0.  1.
        -11    1    4    4    0    0  0.13719148940E-01  0.17022524594E-01  0.10883447879E-01  0.24427278808E-01  0.51100000000E-03 0. -1.
         11    1    4    4    0    0  0.31102783461E-01  0.15431879127E-01  0.11044531124E+00  0.11577544614E+00  0.51100000000E-03 0.  1.
</event>
<event>
 8    1  0.2123879E+004  0.1043930E+01  0.7957747E-01            NaN
         13   -1    0    0    0    0  0.00000000000E+00  0.00000000000E+00  0.74505805969E-08  0.10566000000E+00  0.10566000000E+00 0. -1.
     999900   -1    0    0    0    0 -0.00000000000E+00 -0.00000000000E+00 -0.74505805969E-08  0.93827000000E+00  0.93827000000E+00 0. -1.
     999902    2    1    2    0    0 -0.61748196318E-02 -0.11316378255E-01  0.47093426102E-02  0.10302053243E+01  0.10301138983E+01 0.  0.
     999903    2    3    3    0    0 -0.10851537978E+00  0.51906292416E-01 -0.55451106441E-01  0.13998626367E+00  0.45293244203E-01 0.  0.
         14    1    1    2    0    0  0.61748196318E-02  0.11316378255E-01 -0.47093426102E-02  0.13724675666E-01  0.00000000000E+00 0.  1.
     999901    1    3    3    0    0  0.10234056015E+00 -0.63222670672E-01  0.60160449051E-01  0.89021906066E+00  0.88000000000E+00 0.  1.
        -11    1    4    4    0    0 -0.10253839781E+00  0.43254086104E-01 -0.62189089158E-01  0.12748640289E+00  0.51100000000E-03 0. -1.
         11    1    4    4    0    0 -0.59769819693E-02  0.86522063122E-02  0.67379827168E-02  0.12499860784E-01  0.51100000000E-03 0.  1.
</event>
<event>
 8    1  0.2123879E+004  0.1043930E+01  0.7957747E-01            NaN
         13   -1    0    0    0    0  0.00000000000E+00  0.00000000000E+00  0.74505805969E-08  0.10566000000E+00  0.10566000000E+00 0.  1.
     999900   -1    0    0    0    0 -0.00000000000E+00 -0.00000000000E+00 -0.74505805969E-08  0.93827000000E+00  0.93827000000E+00 0. -1.
     999902    2    1    2    0    0 -0.12902626942E-01  0.34020349769E-02  0.37476415491E-02  0.10300701140E+01  0.10299768654E+01 0.  0.
     999903    2    3    3    0    0  0.98259342815E-01 -0.66167839936E-01 -0.55125707415E-01  0.13840704854E+00  0.45657266390E-01 0.  0.
         14    1    1    2    0    0  0.12902626942E-01 -0.34020349769E-02 -0.37476415491E-02  0.13859886044E-01  0.00000000000E+00 0.  1.
     999901    1    3    3    0    0 -0.11116196976E+00  0.69569874913E-01  0.58873348964E-01  0.89166306542E+00  0.88000000000E+00 0.  1.
        -11    1    4    4    0    0  0.45928630098E-01 -0.47085993832E-02 -0.17994319994E-01  0.49554683370E-01  0.51100000000E-03 0.  1.
         11    1    4    4    0    0  0.52330712717E-01 -0.61459240553E-01 -0.37131387421E-01  0.88852365166E-01  0.51100000000E-03 0. -1.
</event>
<event>
 8    1  0.2123879E+004  0.1043930E+01  0.7957747E-01            NaN
         13   -1    0    0    0    0  0.00000000000E+00  0.00000000000E+00  0.74505805969E-08  0.10566000000E+00  0.10566000000E+00 0. -1.
     999900   -1    0    0    0    0 -0.00000000000E+00 -0.00000000000E+00 -0.74505805969E-08  0.93827000000E+00  0.93827000000E+00 0.  1.
     999902    2    1    2    0    0  0.11720565327E-01 -0.57859387101E-02  0.42343514355E-02  0.10301903322E+01  0.10300987051E+01 0.  0.
     999903    2    3    3    0    0  0.84202150435E-01  0.10105383889E+00  0.19080733209E-01  0.14064621679E+00  0.45993515047E-01 0.  0.
         14    1    1    2    0    0 -0.11720565327E-01  0.57859387101E-02 -0.42343514355E-02  0.13739667769E-01  0.00000000000E+00 0. -1.
     999901    1    3    3    0    0 -0.72481585108E-01 -0.10683977760E+00 -0.14846381773E-01  0.88954411544E+00  0.88000000000E+00 0.  1.
        -11    1    4    4    0    0  0.81974750465E-01  0.75299507875E-01  0.25085276917E-01  0.11410261977E+00  0.51100000000E-03 0.  1.
         11    1    4    4    0    0  0.22273999697E-02  0.25754331014E-01 -0.60045437089E-02  0.26543597020E-01  0.51100000000E-03 0. -1.
</event>
<event>
 8    1  0.2123879E+004  0.1043930E+01  0.7957747E-01            NaN
         13   -1    0    0    0    0  0.00000000000E+00  0.00000000000E+00  0.74505805969E-08  0.10566000000E+00  0.10566000000E+00 0. -1.
     999900   -1    0    0    0    0 -0.00000000000E+00 -0.00000000000E+00 -0.74505805969E-08  0.93827000000E+00  0.93827000000E+00 0. -1.
     999902    2    1    2    0    0  0.12664199240E-02 -0.12967380839E-01 -0.46678770032E-02  0.10300899906E+01  0.10299970111E+01 0.  0.
     999903    2    3    3    0    0  0.18443661719E-01 -0.39590243047E-01  0.12515282041E+00  0.14000165344E+00  0.45051953400E-01 0.  0.
         14    1    1    2    0    0 -0.12664199240E-02  0.12967380839E-01  0.46678770032E-02  0.13840009428E-01  0.00000000000E+00 0.  1.
     999901    1    3    3    0    0 -0.17177241795E-01  0.26622862207E-01 -0.12982069742E+00  0.89008833714E+00  0.88000000000E+00 0. -1.
        -11    1    4    4    0    0 -0.10944579729E-01 -0.18856697583E-02  0.47731951536E-01  0.49009589820E-01  0.51100000000E-03 0.  1.
         11    1    4    4    0    0  0.29388241448E-01 -0.37704573289E-01  0.77420868878E-01  0.90992063616E-01  0.51100000000E-03 0. -1.
</event>
<event>
 8    1  0.2123879E+004  0.1043930E+01  0.7957747E-01            NaN
         13   -1    0    0    0    0  0.00000000000E+00  0.00000000000E+00  0.74505805969E-08  0.10566000000E+00  0.10566000000E+00 0.  1.
     999900   -1    0    0    0    0 -0.00000000000E+00 -0.00000000000E+00 -0.74505805969E-08  0.93827000000E+00  0.93827000000E+00 0.  1.
     999902    2    1    2    0    0  0.52049924112E-02  0.10148939183E-01 -0.82869863409E-02  0.10298315229E+01  0.10297350138E+01 0.  0.
     999903    2    3    3    0    0 -0.13092355580E+00 -0.93025739393E-03 -0.15135218138E-01  0.13926954952E+00  0.45000997243E-01 0.  0.
         14    1    1    2    0    0 -0.52049924112E-02 -0.10148939183E-01  0.82869863409E-02  0.14098477051E-01  0.00000000000E+00 0.  1.
     999901    1    3    3    0    0  0.13612854821E+00  0.11079196577E-01  0.68482317973E-02  0.89056197343E+00  0.88000000000E+00 0. -1.
        -11    1    4    4    0    0 -0.95240186618E-01  0.16632132737E-01  0.83802194748E-04  0.96682930914E-01  0.51100000000E-03 0. -1.
         11    1    4    4    0    0 -0.35683369186E-01 -0.17562390131E-01 -0.15219020333E-01  0.42586618608E-01  0.51100000000E-03 0.  1.
</event>
<event>
 8    1  0.2123879E+004  0.1043930E+01  0.7957747E-01            NaN
         13   -1    0    0    0    0  0.00000000000E+00  0.00000000000E+00  0.74505805969E-08  0.10566000000E+00  0.10566000000E+00 0.  1.
     999900   -1    0    0    0    0 -0.00000000000E+00 -0.00000000000E+00 -0.74505805969E-08  0.93827000000E+00  0.93827000000E+00 0. -1.
     999902    2    1    2    0    0 -0.40413013775E-02 -0.19566845978E-02  0.12646873651E-01  0.10305097115E+01  0.10304223218E+01 0.  0.
     999903    2    3    3    0    0  0.29269754710E-02 -0.13326452441E+00  0.11310360031E-02  0.14066538788E+00  0.44916271606E-01 0.  0.
         14    1    1    2    0    0  0.40413013775E-02  0.19566845978E-02 -0.12646873651E-01  0.13420288543E-01  0.00000000000E+00 0. -1.
     999901    1    3    3    0    0 -0.69682768485E-02  0.13130783981E+00  0.11515837647E-01  0.88984432357E+00  0.88000000000E+00 0. -1.
        -11    1    4    4    0    0 -0.33531748109E-02 -0.20399863438E-01 -0.16244717999E-01  0.26297341947E-01  0.51100000000E-03 0.  1.
         11    1    4    4    0    0  0.62801502819E-02 -0.11286466097E+00  0.17375754002E-01  0.11436804594E+00  0.51100000000E-03 0. -1.
</event>
<event>
 8    1  0.2123879E+004  0.1043930E+01  0.7957747E-01            NaN
         13   -1    0    0    0    0  0.00000000000E+00  0.00000000000E+00  0.74505805969E-08  0.10566000000E+00  0.10566000000E+00 0.  1.
     999900   -1    0    0    0    0 -0.00000000000E+00 -0.00000000000E+00 -0.74505805969E-08  0.93827000000E+00  0.93827000000E+00 0.  1.
     999902    2    1    2    0    0  0.25056828366E-03  0.10081117034E-01 -0.17174509857E-01  0.10240137882E+01  0.10238200930E+01 0.  0.
     999903    2    3    3    0    0  0.95186125833E-01 -0.57879676711E-01  0.56470301380E-01  0.13325288433E+00  0.46443306484E-01 0.  0.
         14    1    1    2    0    0 -0.25056828366E-03 -0.10081117034E-01  0.17174509857E-01  0.19916211837E-01  0.00000000000E+00 0.  1.
     999901    1    3    3    0    0 -0.94935557550E-01  0.67960793745E-01 -0.73644811237E-01  0.89076090383E+00  0.88000000000E+00 0.  1.
        -11    1    4    4    0    0  0.97984881844E-01 -0.53213266835E-01  0.44427818639E-01  0.12002825095E+00  0.51100000000E-03 0. -1.
         11    1    4    4    0    0 -0.27987560111E-02 -0.46664098758E-02  0.12042482742E-01  0.13224633376E-01  0.51100000000E-03 0.  1.
</event>
<event>
 8    1  0.2123879E+004  0.1043930E+01  0.7957747E-01            NaN
         13   -1    0    0    0    0  0.00000000000E+00  0.00000000000E+00  0.74505805969E-08  0.10566000000E+00  0.10566000000E+00 0. -1.
     999900   -1    0    0    0    0 -0.00000000000E+00 -0.00000000000E+00 -0.74505805969E-08  0.93827000000E+00  0.93827000000E+00 0.  1.
     999902    2    1    2    0    0 -0.36342539300E-02  0.79890930118E-02  0.10453812378E-01  0.10302802527E+01  0.10301898288E+01 0.  0.
     999903    2    3    3    0    0  0.76074875200E-01  0.10010832927E+00 -0.43040906218E-01  0.14027958758E+00  0.44908561059E-01 0.  0.
         14    1    1    2    0    0  0.36342539300E-02 -0.79890930118E-02 -0.10453812378E-01  0.13649747324E-01  0.00000000000E+00 0. -1.
     999901    1    3    3    0    0 -0.79709129130E-01 -0.92119236262E-01  0.53494718596E-01  0.89000066510E+00  0.88000000000E+00 0. -1.
        -11    1    4    4    0    0  0.24976855909E-01  0.69084788142E-01 -0.19288236738E-01  0.75952935961E-01  0.51100000000E-03 0. -1.
         11    1    4    4    0    0  0.51098019291E-01  0.31023541132E-01 -0.23752669481E-01  0.64326651617E-01  0.51100000000E-03 0.  1.
</event>
<event>
 8    1  0.2123879E+004  0.1043930E+01  0.7957747E-01            NaN
         13   -1    0    0    0    0  0.00000000000E+00  0.00000000000E+00  0.74505805969E-08  0.10566000000E+00  0.10566000000E+00 0. -1.
     999900   -1    0    0    0    0 -0.00000000000E+00 -0.00000000000E+00 -0.74505805969E-08  0.93827000000E+00  0.93827000000E+00 0.  1.
     999902    2    1    2    0    0  0.16961403867E-01 -0.12669189877E-01 -0.16549400383E-02  0.10226947364E+01  0.10224742478E+01 0.  0.
     999903    2    3    3    0    0 -0.76375517144E-01 -0.70303404554E-02  0.98389506990E-01  0.13210365806E+00  0.43453838521E-01 0.  0.
         14    1    1    2    0    0 -0.16961403867E-01  0.12669189877E-01  0.16549400383E-02  0.21235263591E-01  0.00000000000E+00 0.  1.
     999901    1    3    3    0    0  0.93336921010E-01 -0.56388494213E-02 -0.10004444703E+00  0.89059107834E+00  0.88000000000E+00 0.  1.
        -11    1    4    4    0    0 -0.67759239172E-01  0.90563652614E-02  0.86761959230E-01  0.11045918221E+00  0.51100000000E-03 0. -1.
         11    1    4    4    0    0 -0.86162779716E-02 -0.16086705717E-01  0.11627547759E-01  0.21644475850E-01  0.51100000000E-03 0.  1.
</event>
<event>
 8    1  0.2123879E+004  0.1043930E+01  0.7957747E-01            NaN
         13   -1    0    0    0    0  0.00000000000E+00  0.00000000000E+00  0.74505805969E-08  0.10566000000E+00  0.10566000000E+00 0. -1.
     999900   -1    0    0    0    0 -0.00000000000E+00 -0.00000000000E+00 -0.74505805969E-08  0.93827000000E+00  0.93827000000E+00 0.  1.
     999902    2    1    2    0    0 -0.54439656798E-02  0.87027576235E-02 -0.92525674230E-02  0.10301102765E+01  0.10300175712E+01 0.  0.
     999903    2    3    3    0    0 -0.22848411023E-01  0.12033249641E-01  0.12876208888E+00  0.13917702862E+00  0.46083845104E-01 0.  0.
         14    1    1    2    0    0  0.54439656798E-02 -0.87027576235E-02  0.92525674230E-02  0.13819723459E-01  0.00000000000E+00 0. -1.
     999901    1    3    3    0    0  0.17404445343E-01 -0.33304920171E-02 -0.13801465630E+00  0.89093324792E+00  0.88000000000E+00 0.  1.
        -11    1    4    4    0    0  0.11753290052E-01 -0.41505575620E-03  0.60539288818E-01  0.61673160369E-01  0.51100000000E-03 0.  1.
         11    1    4    4    0    0 -0.34601701075E-01  0.12448305397E-01  0.68222800062E-01  0.77503868251E-01  0.51100000000E-03 0. -1.
</event>
<event>
 8    1  0.2123879E+004  0.1043930E+01  0.7957747E-01            NaN
         13   -1    0    0    0    0  0.00000000000E+00  0.00000000000E+00  0.74505805969E-08  0.10566000000E+00  0.10566000000E+00 0.  1.
     999900   -1    0    0    0    0 -0.00000000000E+00 -0.00000000000E+00 -0.74505805969E-08  0.93827000000E+00  0.93827000000E+00 0. -1.
     999902    2    1    2    0    0  0.92303173571E-02 -0.75162345827E-02  0.54575872390E-04  0.10320264073E+01  0.10319577558E+01 0.  0.
     999903    2    3    3    0    0 -0.44612036937E-01 -0.12646052086E+00  0.15877993432E-01  0.14225277153E+00  0.44735256314E-01 0.  0.
         14    1    1    2    0    0 -0.92303173571E-02  0.75162345827E-02 -0.54575872390E-04  0.11903592707E-01  0.00000000000E+00 0. -1.
     999901    1    3    3    0    0  0.53842354294E-01  0.11894428628E+00 -0.15823417560E-01  0.88977363576E+00  0.88000000000E+00 0. -1.
        -11    1    4    4    0    0 -0.24420127668E-01 -0.11613914228E+00  0.13555147408E-01  0.11945143845E+00  0.51100000000E-03 0. -1.
         11    1    4    4    0    0 -0.20191909268E-01 -0.10321378574E-01  0.23228460247E-02  0.22801333080E-01  0.51100000000E-03 0.  1.
</event>
<event>
 8    1  0.2123879E+004  0.1043930E+01  0.7957747E-01            NaN
         13   -1    0    0    0    0  0.00000000000E+00  0.00000000000E+00  0.74505805969E-08  0.10566000000E+00  0.10566000000E+00 0.  1.
     999900   -1    0    0    0    0 -0.00000000000E+00 -0.00000000000E+00 -0.74505805969E-08  0.93827000000E+00  0.93827000000E+00 0. -1.
     999902    2    1    2    0    0  0.44532271601E-02  0.12320214206E-01 -0.39214570108E-02  0.10302553250E+01  0.10301645684E+01 0.  0.
     999903    2    3    3    0    0 -0.13136381465E+00 -0.15555702393E-01 -0.55789008812E-02  0.13939838776E+00  0.43615991326E-01 0.  0.
         14    1    1    2    0    0 -0.44532271601E-02 -0.12320214206E-01  0.39214570108E-02  0.13674674962E-01  0.00000000000E+00 0.  1.
     999901    1    3    3    0    0  0.13581704181E+00  0.27875916599E-01  0.16574438704E-02  0.89085693728E+00  0.88000000000E+00 0. -1.
        -11    1    4    4    0    0 -0.70105507991E-01  0.11838858976E-01  0.57908221761E-02  0.71335373939E-01  0.51100000000E-03 0. -1.
         11    1    4    4    0    0 -0.61258306659E-01 -0.27394561369E-01 -0.11369723057E-01  0.68063013824E-01  0.51100000000E-03 0.  1.
</event>
<event>
 8    1  0.2123879E+004  0.1043930E+01  0.7957747E-01            NaN
         13   -1    0    0    0    0  0.00000000000E+00  0.00000000000E+00  0.74505805969E-08  0.10566000000E+00  0.10566000000E+00 0.  1.
     999900   -1    0    0    0    0 -0.00000000000E+00 -0.00000000000E+00 -0.74505805969E-08  0.93827000000E+00  0.93827000000E+00 0. -1.
     999902    2    1    2    0    0 -0.91939570120E-02 -0.89340885001E-02  0.41094911614E-02  0.10304676562E+01  0.10303797144E+01 0.  0.
     999903    2    3    3    0    0 -0.51000742466E-01 -0.81947145056E-01  0.93942378018E-01  0.14190214860E+00  0.44661382376E-01 0.  0.
         14    1    1    2    0    0  0.91939570120E-02  0.89340885001E-02 -0.41094911614E-02  0.13462343796E-01  0.00000000000E+00 0.  1.
     999901    1    3    3    0    0  0.41806785453E-01  0.73013056556E-01 -0.89832886856E-01  0.88856550760E+00  0.88000000000E+00 0. -1.
        -11    1    4    4    0    0 -0.14595430593E-01  0.17896960555E-02  0.93723564852E-02  0.17445108004E-01  0.51100000000E-03 0. -1.
         11    1    4    4    0    0 -0.36405311872E-01 -0.83736841111E-01  0.84570021533E-01  0.12445704060E+00  0.51100000000E-03 0.  1.
</event>
<event>
 8    1  0.2123879E+004  0.1043930E+01  0.7957747E-01            NaN
         13   -1    0    0    0    0  0.00000000000E+00  0.00000000000E+00  0.74505805969E-08  0.10566000000E+00  0.10566000000E+00 0.  1.
     999900   -1    0    0    0    0 -0.00000000000E+00 -0.00000000000E+00 -0.74505805969E-08  0.93827000000E+00  0.93827000000E+00 0.  1.
     999902    2    1    2    0    0  0.67978464589E-02 -0.86337527248E-02 -0.94706909764E-02  0.10294232295E+01  0.10293210088E+01 0.  0.
     999903    2    3    3    0    0 -0.77888801098E-01  0.17761648665E-01  0.10287595603E+00  0.13785701515E+00  0.45154764934E-01 0.  0.
         14    1    1    2    0    0 -0.67978464589E-02  0.86337527248E-02  0.94706909764E-02  0.14506770494E-01  0.00000000000E+00 0.  1.
     999901    1    3    3    0    0  0.84686647556E-01 -0.26395401389E-01 -0.11234664701E+00  0.89156621436E+00  0.88000000000E+00 0. -1.
        -11    1    4    4    0    0 -0.48543138088E-01 -0.99149453096E-02  0.42692441689E-01  0.65403731501E-01  0.51100000000E-03 0. -1.
         11    1    4    4    0    0 -0.29345663010E-01  0.27676593974E-01  0.60183514345E-01  0.72453283648E-01  0.51100000000E-03 0.  1.
</event>
<event>
 8    1  0.2123879E+004  0.1043930E+01  0.7957747E-01            NaN
         13   -1    0    0    0    0  0.00000000000E+00  0.00000000000E+00  0.74505805969E-08  0.10566000000E+00  0.10566000000E+00 0.  1.
     999900   -1    0    0    0    0 -0.00000000000E+00 -0.00000000000E+00 -0.74505805969E-08  0.93827000000E+00  0.93827000000E+00 0. -1.
     999902    2    1    2    0    0 -0.93560819260E-02  0.70654768946E-02  0.76525479284E-02  0.10299293314E+01  0.10298341657E+01 0.  0.
     999903    2    3    3    0    0  0.62298676284E-01 -0.37045605622E-01  0.11046498608E+00  0.13995709054E+00  0.46173283202E-01 0.  0.
         14    1    1    2    0    0  0.93560819260E-02 -0.70654768946E-02 -0.76525479284E-02  0.14000668647E-01  0.00000000000E+00 0.  1.
     999901    1    3    3    0    0 -0.71654758210E-01  0.44111082517E-01 -0.10281243815E+00  0.88997224081E+00  0.88000000000E+00 0.  1.
        -11    1    4    4    0    0  0.25598372015E-01  0.89071721771E-02  0.33516721155E-01  0.43107378533E-01  0.51100000000E-03 0.  1.
         11    1    4    4    0    0  0.36700304269E-01 -0.45952777799E-01  0.76948264922E-01  0.96849712010E-01  0.51100000000E-03 0. -1.
</event>
<event>
 8    1  0.2123879E+004  0.1043930E+01  0.7957747E-01            NaN
         13   -1    0    0    0    0  0.00000000000E+00  0.00000000000E+00  0.74505805969E-08  0.10566000000E+00  0.10566000000E+00 0. -1.
     999900   -1    0    0    0    0 -0.00000000000E+00 -0.00000000000E+00 -0.74505805969E-08  0.93827000000E+00  0.93827000000E+00 0.  1.
     999902    2    1    2    0    0 -0.38957990109E-02 -0.97629485919E-03  0.13423908349E-01  0.10299181580E+01  0.10298228393E+01 0.  0.
     999903    2    3    3    0    0 -0.52680023041E-01 -0.10957312462E+00  0.55619400128E-01  0.14089980525E+00  0.44472272080E-01 0.  0.
         14    1    1    2    0    0  0.38957990109E-02  0.97629485919E-03 -0.13423908349E-01  0.14011842026E-01  0.00000000000E+00 0.  1.
     999901    1    3    3    0    0  0.48784224031E-01  0.10859682976E+00 -0.42195491779E-01  0.88901835272E+00  0.88000000000E+00 0.  1.
        -11    1    4    4    0    0 -0.75537363094E-02 -0.29259616327E-01  0.35465545844E-01  0.46596675234E-01  0.51100000000E-03 0. -1.
         11    1    4    4    0    0 -0.45126286732E-01 -0.80313508290E-01  0.20153854284E-01  0.94303130020E-01  0.51100000000E-03 0.  1.
</event>
<event>
 8    1  0.2123879E+004  0.1043930E+01  0.7957747E-01            NaN
         13   -1    0    0    0    0  0.00000000000E+00  0.00000000000E+00  0.74505805969E-08  0.10566000000E+00  0.10566000000E+00 0.  1.
     999900   -1    0    0    0    0 -0.00000000000E+00 -0.00000000000E+00 -0.74505805969E-08  0.93827000000E+00  0.93827000000E+00 0.  1.
     999902    2    1    2    0    0 -0.81754775147E-02  0.12289440420E-01  0.11916985267E-02  0.10291215928E+01  0.10290150455E+01 0.  0.
     999903    2    3    3    0    0 -0.88676485743E-01 -0.71055380069E-01  0.65859820827E-01  0.13917286536E+00  0.46034598868E-01 0.  0.
         14    1    1    2    0    0  0.81754775147E-02 -0.12289440420E-01 -0.11916985267E-02  0.14808407200E-01  0.00000000000E+00 0.  1.
     999901    1    3    3    0    0  0.80501008228E-01  0.83344820489E-01 -0.64668122300E-01  0.88994872744E+00  0.88000000000E+00 0. -1.
        -11    1    4    4    0    0 -0.46158690869E-01 -0.52138193176E-01  0.60645533111E-01  0.92342610629E-01  0.51100000000E-03 0.  1.
         11    1    4    4    0    0 -0.42517794874E-01 -0.18917186894E-01  0.52142877151E-02  0.46830254732E-01  0.51100000000E-03 0. -1.
</event>
<event>
 8    1  0.2123879E+004  0.1043930E+01  0.7957747E-01            NaN
         13   -1    0    0    0    0  0.00000000000E+00  0.00000000000E+00  0.74505805969E-08  0.10566000000E+00  0.10566000000E+00 0.  1.
     999900   -1    0    0    0    0 -0.00000000000E+00 -0.00000000000E+00 -0.74505805969E-08  0.93827000000E+00  0.93827000000E+00 0.  1.
     999902    2    1    2    0    0  0.67287741331E-02 -0.12013032709E-01 -0.13953635745E-02  0.10300903325E+01  0.10299973577E+01 0.  0.
     999903    2    3    3    0    0 -0.98100583371E-01  0.18192362250E-01  0.86076374038E-01  0.13905000518E+00  0.44396793480E-01 0.  0.
         14    1    1    2    0    0 -0.67287741331E-02  0.12013032709E-01  0.13953635745E-02  0.13839667471E-01  0.00000000000E+00 0. -1.
     999901    1    3    3    0    0  0.10482935750E+00 -0.30205394959E-01 -0.87471737612E-01  0.89104032735E+00  0.88000000000E+00 0. -1.
        -11    1    4    4    0    0 -0.51463981148E-01  0.26879648315E-01  0.29221924089E-01  0.65001837033E-01  0.51100000000E-03 0. -1.
         11    1    4    4    0    0 -0.46636602223E-01 -0.86872860650E-02  0.56854449949E-01  0.74048168148E-01  0.51100000000E-03 0.  1.
</event>
<event>
 8    1  0.2123879E+004  0.1043930E+01  0.7957747E-01            NaN
         13   -1    0    0    0    0  0.00000000000E+00  0.00000000000E+00  0.74505805969E-08  0.10566000000E+00  0.10566000000E+00 0.  1.
     999900   -1    0    0    0    0 -0.00000000000E+00 -0.00000000000E+00 -0.74505805969E-08  0.93827000000E+00  0.93827000000E+00 0.  1.
     999902    2    1    2    0    0 -0.85311885506E-02  0.74753210383E-02 -0.11035946501E-01  0.10281042704E+01  0.10279824595E+01 0.  0.
     999903    2    3    3    0    0  0.10224551786E+00  0.50989172398E-01 -0.64100614095E-01  0.13850841108E+00  0.44962757805E-01 0.  0.
         14    1    1    2    0    0  0.85311885506E-02 -0.74753210383E-02  0.11035946501E-01  0.15825729616E-01  0.00000000000E+00 0.  1.
     999901    1    3    3    0    0 -0.11077670641E+00 -0.43513851359E-01  0.53064667594E-01  0.88959585930E+00  0.88000000000E+00 0.  1.
        -11    1    4    4    0    0  0.58509279784E-01  0.30907007046E-01 -0.61452604046E-01  0.90306492405E-01  0.51100000000E-03 0.  1.
         11    1    4    4    0    0  0.43736238071E-01  0.20082165352E-01 -0.26480100491E-02  0.48201918676E-01  0.51100000000E-03 0. -1.
</event>
<event>
 8    1  0.2123879E+004  0.1043930E+01  0.7957747E-01            NaN
         13   -1    0    0    0    0  0.00000000000E+00  0.00000000000E+00  0.74505805969E-08  0.10566000000E+00  0.10566000000E+00 0. -1.
     999900   -1    0    0    0    0 -0.00000000000E+00 -0.00000000000E+00 -0.74505805969E-08  0.93827000000E+00  0.93827000000E+00 0. -1.
     999902    2    1    2    0    0 -0.44946129866E-02  0.11472473183E-01 -0.67942091762E-02  0.10298594469E+01  0.10297633223E+01 0.  0.
     999903    2    3    3    0    0  0.48084244706E-01 -0.92220975960E-01 -0.80555855956E-01  0.13915318317E+00  0.45360329164E-01 0.  0.
         14    1    1    2    0    0  0.44946129866E-02 -0.11472473183E-01  0.67942091762E-02  0.14070553122E-01  0.00000000000E+00 0. -1.
     999901    1    3    3    0    0 -0.52578857692E-01  0.10369344914E+00  0.73761646779E-01  0.89070626371E+00  0.88000000000E+00 0. -1.
        -11    1    4    4    0    0  0.37199269643E-01 -0.88112630140E-01 -0.53252981535E-01  0.10947037232E+00  0.51100000000E-03 0.  1.
         11    1    4    4    0    0  0.10884975062E-01 -0.41083458204E-02 -0.27302874420E-01  0.29682810852E-01  0.51100000000E-03 0. -1.
</event>
<event>
 8    1  0.2123879E+004  0.1043930E+01  0.7957747E-01            NaN
         13   -1    0    0    0    0  0.00000000000E+00  0.00000000000E+00  0.74505805969E-08  0.10566000000E+00  0.10566000000E+00 0.  1.
     999900   -1    0    0    0    0 -0.00000000000E+00 -0.00000000000E+00 -0.74505805969E-08  0.93827000000E+00  0.93827000000E+00 0. -1.
     999902    2    1    2    0    0  0.11555865693E-01  0.77147673880E-02  0.11020821286E-02  0.10299919136E+01  0.10298976026E+01 0.  0.
     999903    2    3    3    0    0 -0.11503252790E+00  0.37693181061E-01 -0.50850596983E-01  0.13891256384E+00  0.45361424206E-01 0.  0.
         14    1    1    2    0    0 -0.11555865693E-01 -0.77147673880E-02 -0.11020821286E-02  0.13938086410E-01  0.00000000000E+00 0.  1.
     999901    1    3    3    0    0  0.12658839359E+00 -0.29978413673E-01  0.51952679112E-01  0.89107934975E+00  0.88000000000E+00 0.  1.
        -11    1    4    4    0    0 -0.14572510462E-01 -0.40502811671E-02 -0.21395620251E-01  0.26206803040E-01  0.51100000000E-03 0.  1.
         11    1    4    4    0    0 -0.10046001744E+00  0.41743462228E-01 -0.29454976733E-01  0.11270576080E+00  0.51100000000E-03 0. -1.
</event>
<event>
 8    1  0.2123879E+004  0.1043930E+01  0.7957747E-01            NaN
         13   -1    0    0    0    0  0.00000000000E+00  0.00000000000E+00  0.74505805969E-08  0.10566000000E+00  0.10566000000E+00 0.  1.
     999900   -1    0    0    0    0 -0.00000000000E+00 -0.00000000000E+00 -0.74505805969E-08  0.93827000000E+00  0.93827000000E+00 0.  1.
     999902    2    1    2    0    0 -0.15307469916E-02 -0.12583980327E-02  0.14229473249E-01  0.10295632098E+01  0.10294629660E+01 0.  0.
     999903    2    3    3    0    0  0.97015236238E-01  0.15078387633E-01 -0.86098282760E-01  0.13824740717E+00  0.45388516817E-01 0.  0.
         14    1    1    2    0    0  0.15307469916E-02  0.12583980327E-02 -0.14229473249E-01  0.14366790209E-01  0.00000000000E+00 0. -1.
     999901    1    3    3    0    0 -0.98545983230E-01 -0.16336785665E-01  0.10032775601E+00  0.89131580262E+00  0.88000000000E+00 0. -1.
        -11    1    4    4    0    0  0.52051722719E-01  0.22175839769E-01 -0.69895935995E-01  0.89926929766E-01  0.51100000000E-03 0. -1.
         11    1    4    4    0    0  0.44963513519E-01 -0.70974521361E-02 -0.16202346765E-01  0.48320477404E-01  0.51100000000E-03 0.  1.
</event>
<event>
 8    1  0.2123879E+004  0.1043930E+01  0.7957747E-01            NaN
         13   -1    0    0    0    0  0.00000000000E+00  0.00000000000E+00  0.74505805969E-08  0.10566000000E+00  0.10566000000E+00 0.  1.
     999900   -1    0    0    0    0 -0.00000000000E+00 -0.00000000000E+00 -0.74505805969E-08  0.93827000000E+00  0.93827000000E+00 0. -1.
     999902    2    1    2    0    0 -0.61131866573E-03 -0.13399610642E-01 -0.50830425652E-02  0.10295856423E+01  0.10294857135E+01 0.  0.
     999903    2    3    3    0    0 -0.71349319874E-01  0.70552877165E-01  0.84110035899E-01  0.13829035439E+00  0.44511684478E-01 0.  0.
         14    1    1    2    0    0  0.61131866573E-03  0.13399610642E-01  0.50830425652E-02  0.14344357691E-01  0.00000000000E+00 0.  1.
     999901    1    3    3    0    0  0.70738001208E-01 -0.83952487807E-01 -0.89193078464E-01  0.89129528792E+00  0.88000000000E+00 0. -1.
        -11    1    4    4    0    0 -0.32046324358E-01  0.21331810289E-01  0.59063532384E-01  0.70503723403E-01  0.51100000000E-03 0.  1.
         11    1    4    4    0    0 -0.39302995515E-01  0.49221066876E-01  0.25046503515E-01  0.67786630985E-01  0.51100000000E-03 0. -1.
</event>
<event>
 8    1  0.2123879E+004  0.1043930E+01  0.7957747E-01            NaN
         13   -1    0    0    0    0  0.00000000000E+00  0.00000000000E+00  0.74505805969E-08  0.10566000000E+00  0.10566000000E+00 0. -1.
     999900   -1    0    0    0    0 -0.00000000000E+00 -0.00000000000E+00 -0.74505805969E-08  0.93827000000E+00  0.93827000000E+00 0.  1.
     999902    2    1    2    0    0  0.15635368534E-02  0.94548263455E-02  0.78613982191E-02  0.10315348408E+01  0.10314603666E+01 0.  0.
     999903    2    3    3    0    0  0.32077890090E-01  0.59213421636E-02  0.12917551657E+00  0.14268123839E+00  0.51064355317E-01 0.  0.
         14    1    1    2    0    0 -0.15635368534E-02 -0.94548263455E-02 -0.78613982191E-02  0.12395159163E-01  0.00000000000E+00 0.  1.
     999901    1    3    3    0    0 -0.30514353237E-01  0.35334841819E-02 -0.12131411835E+00  0.88885360244E+00  0.88000000000E+00 0.  1.
        -11    1    4    4    0    0  0.44899907564E-01  0.29116742833E-03  0.82263396703E-01  0.93720937019E-01  0.51100000000E-03 0. -1.
         11    1    4    4    0    0 -0.12822017473E-01  0.56301747353E-02  0.46912119864E-01  0.48960301376E-01  0.51100000000E-03 0.  1.
</event>
<event>
 8    1  0.2123879E+004  0.1043930E+01  0.7957747E-01            NaN
         13   -1    0    0    0    0  0.00000000000E+00  0.00000000000E+00  0.74505805969E-08  0.10566000000E+00  0.10566000000E+00 0. -1.
     999900   -1    0    0    0    0 -0.00000000000E+00 -0.00000000000E+00 -0.74505805969E-08  0.93827000000E+00  0.93827000000E+00 0. -1.
     999902    2    1    2    0    0 -0.17020998180E-01 -0.61317206138E-02  0.18211894774E-01  0.10182592873E+01  0.10179356516E+01 0.  0.
     999903    2    3    3    0    0  0.94264230803E-01  0.30460000639E-01  0.70044419145E-01  0.12898432040E+00  0.43785584485E-01 0.  0.
         14    1    1    2    0    0  0.17020998180E-01  0.61317206138E-02 -0.18211894774E-01  0.25670712651E-01  0.00000000000E+00 0.  1.
     999901    1    3    3    0    0 -0.11128522898E+00 -0.36591721253E-01 -0.51832524370E-01  0.88927496695E+00  0.88000000000E+00 0. -1.
        -11    1    4    4    0    0  0.88504818096E-02  0.15095264843E-01  0.26825229505E-01  0.32032048138E-01  0.51100000000E-03 0.  1.
         11    1    4    4    0    0  0.85413748994E-01  0.15364735796E-01  0.43219189640E-01  0.96952272265E-01  0.51100000000E-03 0. -1.
</event>
<event>
 7    1  0.2123879E+004  0.1043930E+01  0.7957747E-01            NaN
         13   -1    0    0    0    0  0.00000000000E+00  0.00000000000E+00  0.74505805969E-08  0.10566000000E+00  0.10566000000E+00 0. -1.
     999900   -1    0    0    0    0 -0.00000000000E+00 -0.00000000000E+00 -0.74505805969E-08  0.93827000000E+00  0.93827000000E+00 0.  1.
     999903    2    1    2    0    0  0.97152405611E-01  0.26220781905E-01  0.39288694059E-01  0.11688087885E+00  0.44625318384E-01 0.  0.
         14    1    1    2    0    0 -0.25465685725E-01 -0.34950606998E-01 -0.76042492159E-03  0.43250714735E-01  0.00000000000E+00 0. -1.
     999901    1    1    2    0    0 -0.71686719886E-01  0.87298250926E-02 -0.38528269138E-01  0.88379840641E+00  0.88000000000E+00 0.  1.
        -11    1    3    3    0    0  0.36344456428E-01  0.14653822396E-01 -0.67094016741E-02  0.39760925740E-01  0.51100000000E-03 0.  1.
         11    1    3    3    0    0  0.60807949183E-01  0.11566959510E-01  0.45998095734E-01  0.77119953114E-01  0.51100000000E-03 0. -1.
</event>
<event>
 8    1  0.2123879E+004  0.1043930E+01  0.7957747E-01            NaN
         13   -1    0    0    0    0  0.00000000000E+00  0.00000000000E+00  0.74505805969E-08  0.10566000000E+00  0.10566000000E+00 0.  1.
     999900   -1    0    0    0    0 -0.00000000000E+00 -0.00000000000E+00 -0.74505805969E-08  0.93827000000E+00  0.93827000000E+00 0.  1.
     999902    2    1    2    0    0 -0.12368084654E-01  0.35690486816E-02  0.41640869494E-02  0.10304005046E+01  0.10303116774E+01 0.  0.
     999903    2    3    3    0    0  0.46319792375E-01 -0.63885463002E-01 -0.10495400359E+00  0.13916476935E+00  0.46093541943E-01 0.  0.
         14    1    1    2    0    0  0.12368084654E-01 -0.35690486816E-02 -0.41640869494E-02  0.13529495431E-01  0.00000000000E+00 0. -1.
     999901    1    3    3    0    0 -0.58687877028E-01  0.67454511684E-01  0.10911809054E+00  0.89123573522E+00  0.88000000000E+00 0. -1.
        -11    1    4    4    0    0  0.34528567248E-01 -0.55196261813E-01 -0.10607835866E+00  0.12446577269E+00  0.51100000000E-03 0. -1.
         11    1    4    4    0    0  0.11791225127E-01 -0.86892011897E-02  0.11243550726E-02  0.14698996654E-01  0.51100000000E-03 0.  1.
</event>
<event>
 8    1  0.2123879E+004  0.1043930E+01  0.7957747E-01            NaN
         13   -1    0    0    0    0  0.00000000000E+00  0.00000000000E+00  0.74505805969E-08  0.10566000000E+00  0.10566000000E+00 0.  1.
     999900   -1    0    0    0    0 -0.00000000000E+00 -0.00000000000E+00 -0.74505805969E-08  0.93827000000E+00  0.93827000000E+00 0. -1.
     999902    2    1    2    0    0 -0.28852550234E-02  0.13837549238E-01  0.31881772143E-02  0.10294397640E+01  0.10293377778E+01 0.  0.
     999903    2    3    3    0    0 -0.24990785541E-02 -0.12556653154E+00  0.34855475610E-01  0.13790374977E+00  0.45048205128E-01 0.  0.
         14    1    1    2    0    0  0.28852550234E-02 -0.13837549238E-01 -0.31881772143E-02  0.14490236003E-01  0.00000000000E+00 0.  1.
     999901    1    3    3    0    0 -0.38617646931E-03  0.13940408078E+00 -0.31667298396E-01  0.89153601422E+00  0.88000000000E+00 0.  1.
        -11    1    4    4    0    0 -0.13813548471E-01 -0.18228949885E-01 -0.39313877213E-02  0.23212618673E-01  0.51100000000E-03 0. -1.
         11    1    4    4    0    0  0.11314469917E-01 -0.10733758165E+00  0.38786863332E-01  0.11469113110E+00  0.51100000000E-03 0.  1.
</event>
<event>
 8    1  0.2123879E+004  0.1043930E+01  0.7957747E-01            NaN
         13   -1    0    0    0    0  0.00000000000E+00  0.00000000000E+00  0.74505805969E-08  0.10566000000E+00  0.10566000000E+00 0.  1.
     999900   -1    0    0    0    0 -0.00000000000E+00 -0.00000000000E+00 -0.74505805969E-08  0.93827000000E+00  0.93827000000E+00 0.  1.
     999902    2    1    2    0    0  0.71173815618E-03  0.13102534763E-01 -0.42038020340E-02  0.10301512141E+01  0.10300590609E+01 0.  0.
     999903    2    3    3    0    0  0.12328682545E+00  0.47800673765E-01 -0.15664459707E-01  0.14090436452E+00  0.46088164429E-01 0.  0.
         14    1    1    2    0    0 -0.71173815618E-03 -0.13102534763E-01  0.42038020340E-02  0.13778785866E-01  0.00000000000E+00 0.  1.
     999901    1    3    3    0    0 -0.12257508729E+00 -0.34698139002E-01  0.11460657673E-01  0.88924684961E+00  0.88000000000E+00 0. -1.
        -11    1    4    4    0    0  0.72397675910E-01  0.45453034625E-01 -0.25096792592E-01  0.89092715489E-01  0.51100000000E-03 0. -1.
         11    1    4    4    0    0  0.50889149541E-01  0.23476391400E-02  0.94323328857E-02  0.51811649030E-01  0.51100000000E-03 0.  1.
</event>
<event>
 8    1  0.2123879E+004  0.1043930E+01  0.7957747E-01            NaN
         13   -1    0    0    0    0  0.00000000000E+00  0.00000000000E+00  0.74505805969E-08  0.10566000000E+00  0.10566000000E+00 0. -1.
     999900   -1    0    0    0    0 -0.00000000000E+00 -0.00000000000E+00 -0.74505805969E-08  0.93827000000E+00  0.93827000000E+00 0. -1.
     999902    2    1    2    0    0 -0.60857089044E-02 -0.10302604340E-01  0.89349562912E-02  0.10289963818E+01  0.10288880118E+01 0.  0.
     999903    2    3    3    0    0 -0.62056870346E-01  0.79401281779E-01 -0.83036875126E-01  0.13790807198E+00  0.44360962357E-01 0.  0.
         14    1    1    2    0    0  0.60857089044E-02  0.10302604340E-01 -0.89349562912E-02  0.14933618215E-01  0.00000000000E+00 0.  1.
     999901    1    3    3    0    0  0.55971161441E-01 -0.89703886119E-01  0.91971831417E-01  0.89108830981E+00  0.88000000000E+00 0.  1.
        -11    1    4    4    0    0 -0.45487722398E-02  0.22125008971E-01 -0.40242003069E-01  0.46150701868E-01  0.51100000000E-03 0.  1.
         11    1    4    4    0    0 -0.57508098106E-01  0.57276272808E-01 -0.42794872056E-01  0.91757370112E-01  0.51100000000E-03 0. -1.
</event>
<event>
 8    1  0.2123879E+004  0.1043930E+01  0.7957747E-01            NaN
         13   -1    0    0    0    0  0.00000000000E+00  0.00000000000E+00  0.74505805969E-08  0.10566000000E+00  0.10566000000E+00 0.  1.
     999900   -1    0    0    0    0 -0.00000000000E+00 -0.00000000000E+00 -0.74505805969E-08  0.93827000000E+00  0.93827000000E+00 0.  1.
     999902    2    1    2    0    0  0.13034099475E-02  0.12948732628E-01 -0.52256707694E-02  0.10299058712E+01  0.10298103841E+01 0.  0.
     999903    2    3    3    0    0  0.17814646687E-01 -0.81136069491E-01 -0.10240339127E+00  0.13941831917E+00  0.45283438115E-01 0.  0.
         14    1    1    2    0    0 -0.13034099475E-02 -0.12948732628E-01  0.52256707694E-02  0.14024128820E-01  0.00000000000E+00 0.  1.
     999901    1    3    3    0    0 -0.16511236739E-01  0.94084802119E-01  0.97177720497E-01  0.89048755201E+00  0.88000000000E+00 0. -1.
        -11    1    4    4    0    0 -0.48499939366E-02 -0.42813291772E-01 -0.24182049659E-01  0.49411871451E-01  0.51100000000E-03 0. -1.
         11    1    4    4    0    0  0.22664640623E-01 -0.38322777719E-01 -0.78221341607E-01  0.90006447716E-01  0.51100000000E-03 0.  1.
</event>
<event>
 8    1  0.2123879E+004  0.1043930E+01  0.7957747E-01            NaN
         13   -1    0    0    0    0  0.00000000000E+00  0.00000000000E+00  0.74505805969E-08  0.10566000000E+00  0.10566000000E+00 0. -1.
     999900   -1    0    0    0    0 -0.00000000000E+00 -0.00000000000E+00 -0.74505805969E-08  0.93827000000E+00  0.93827000000E+00 0. -1.
     999902    2    1    2    0    0  0.52077068100E-02  0.31590135313E-02 -0.13417908985E-01  0.10291943338E+01  0.10290888382E+01 0.  0.
     999903    2    3    3    0    0 -0.87657063046E-01  0.90332738984E-01 -0.38865418141E-01  0.13966035491E+00  0.46375958978E-01 0.  0.
         14    1    1    2    0    0 -0.52077068100E-02 -0.31590135313E-02  0.13417908985E-01  0.14735666196E-01  0.00000000000E+00 0. -1.
     999901    1    3    3    0    0  0.92864769856E-01 -0.87173725453E-01  0.25447509156E-01  0.88953397890E+00  0.88000000000E+00 0. -1.
        -11    1    4    4    0    0 -0.77818402631E-01  0.93654176987E-01 -0.41991905099E-01  0.12880368733E+00  0.51100000000E-03 0.  1.
         11    1    4    4    0    0 -0.98386604149E-02 -0.33214380022E-02  0.31264869580E-02  0.10856667576E-01  0.51100000000E-03 0. -1.
</event>
<event>
 8    1  0.2123879E+004  0.1043930E+01  0.7957747E-01            NaN
         13   -1    0    0    0    0  0.00000000000E+00  0.00000000000E+00  0.74505805969E-08  0.10566000000E+00  0.10566000000E+00 0.  1.
     999900   -1    0    0    0    0 -0.00000000000E+00 -0.00000000000E+00 -0.74505805969E-08  0.93827000000E+00  0.93827000000E+00 0. -1.
     999902    2    1    2    0    0 -0.34139495511E-02 -0.13363451597E-01  0.13426530150E-02  0.10300721644E+01  0.10299789436E+01 0.  0.
     999903    2    3    3    0    0 -0.84248535013E-01 -0.71513906800E-01 -0.75560118486E-01  0.14112349215E+00  0.44659310491E-01 0.  0.
         14    1    1    2    0    0  0.34139495511E-02  0.13363451597E-01 -0.13426530150E-02  0.13857835590E-01  0.00000000000E+00 0. -1.
     999901    1    3    3    0    0  0.80834585461E-01  0.58150455203E-01  0.76902771501E-01  0.88894867226E+00  0.88000000000E+00 0. -1.
        -11    1    4    4    0    0 -0.59392318764E-01 -0.21646807100E-01 -0.44744965092E-01  0.77449369319E-01  0.51100000000E-03 0.  1.
         11    1    4    4    0    0 -0.24856216249E-01 -0.49867099700E-01 -0.30815153394E-01  0.63674122832E-01  0.51100000000E-03 0. -1.
</event>
<event>
 8    1  0.2123879E+004  0.1043930E+01  0.7957747E-01            NaN
         13   -1    0    0    0    0  0.00000000000E+00  0.00000000000E+00  0.74505805969E-08  0.10566000000E+00  0.10566000000E+00 0.  1.
     999900   -1    0    0    0    0 -0.00000000000E+00 -0.00000000000E+00 -0.74505805969E-08  0.93827000000E+00  0.93827000000E+00 0. -1.
     999902    2    1    2    0    0 -0.34667409853E-02 -0.12568899084E-01 -0.79624908536E-02  0.10286526711E+01  0.10285392171E+01 0.  0.
     999903    2    3    3    0    0 -0.79334710266E-01  0.92140652434E-01 -0.37416945662E-01  0.13871581726E+00  0.55300579126E-01 0.  0.
         14    1    1    2    0    0  0.34667409853E-02  0.12568899084E-01  0.79624908536E-02  0.15277328884E-01  0.00000000000E+00 0.  1.
     999901    1    3    3    0    0  0.75867969281E-01 -0.10470955152E+00  0.29454454808E-01  0.88993685386E+00  0.88000000000E+00 0. -1.
        -11    1    4    4    0    0 -0.21369350243E-01  0.31369575239E-01 -0.39395738235E-01  0.54708177566E-01  0.51100000000E-03 0.  1.
         11    1    4    4    0    0 -0.57965360024E-01  0.60771077194E-01  0.19787925732E-02  0.84007639695E-01  0.51100000000E-03 0. -1.
</event>
<event>
 8    1  0.2123879E+004  0.1043930E+01  0.7957747E-01            NaN
         13   -1    0    0    0    0  0.00000000000E+00  0.00000000000E+00  0.74505805969E-08  0.10566000000E+00  0.10566000000E+00 0. -1.
     999900   -1    0    0    0    0 -0.00000000000E+00 -0.00000000000E+00 -0.74505805969E-08  0.93827000000E+00  0.93827000000E+00 0. -1.
     999902    2    1    2    0    0  0.60139449992E-02  0.32873767661E-02 -0.11742764069E-01  0.10303334236E+01  0.10302437076E+01 0.  0.
     999903    2    3    3    0    0 -0.89651075892E-01  0.85038138944E-01 -0.49830782232E-01  0.14056621788E+00  0.44799043149E-01 0.  0.
         14    1    1    2    0    0 -0.60139449992E-02 -0.32873767661E-02  0.11742764069E-01  0.13596576350E-01  0.00000000000E+00 0. -1.
     999901    1    3    3    0    0  0.95665020892E-01 -0.81750762178E-01  0.38088018162E-01  0.88976720577E+00  0.88000000000E+00 0.  1.
        -11    1    4    4    0    0 -0.79855261776E-01  0.84173460076E-01 -0.56115295128E-01  0.12888452848E+00  0.51100000000E-03 0. -1.
         11    1    4    4    0    0 -0.97958141165E-02  0.86467886824E-03  0.62845128961E-02  0.11681689394E-01  0.51100000000E-03 0.  1.
</event>
<event>
 8    1  0.2123879E+004  0.1043930E+01  0.7957747E-01            NaN
         13   -1    0    0    0    0  0.00000000000E+00  0.00000000000E+00  0.74505805969E-08  0.10566000000E+00  0.10566000000E+00 0.  1.
     999900   -1    0    0    0    0 -0.00000000000E+00 -0.00000000000E+00 -0.74505805969E-08  0.93827000000E+00  0.93827000000E+00 0.  1.
     999902    2    1    2    0    0 -0.14459562565E-01  0.53677239850E-03  0.18501281573E-02  0.10293426751E+01  0.10292393078E+01 0.  0.
     999903    2    3    3    0    0  0.90852425027E-01  0.10490187430E-01 -0.93121738903E-01  0.13793404783E+00  0.44608700145E-01 0.  0.
         14    1    1    2    0    0  0.14459562565E-01 -0.53677239850E-03 -0.18501281573E-02  0.14587324922E-01  0.00000000000E+00 0. -1.
     999901    1    3    3    0    0 -0.10531198759E+00 -0.99534150319E-02  0.94971867060E-01  0.89140862725E+00  0.88000000000E+00 0. -1.
        -11    1    4    4    0    0  0.16177048609E-01 -0.62988639987E-02 -0.43177227890E-01  0.46539302945E-01  0.51100000000E-03 0.  1.
         11    1    4    4    0    0  0.74675376418E-01  0.16789051429E-01 -0.49944511013E-01  0.91394744884E-01  0.51100000000E-03 0. -1.
</event>
<event>
 8    1  0.2123879E+004  0.1043930E+01  0.7957747E-01            NaN
         13   -1    0    0    0    0  0.00000000000E+00  0.00000000000E+00  0.74505805969E-08  0.10566000000E+00  0.10566000000E+00 0. -1.
     999900   -1    0    0    0    0 -0.00000000000E+00 -0.00000000000E+00 -0.74505805969E-08  0.93827000000E+00  0.93827000000E+00 0. -1.
     999902    2    1    2    0    0 -0.47370110860E-02 -0.57511636064E-02  0.11710323722E-01  0.10300502724E+01  0.10299567548E+01 0.  0.
     999903    2    3    3    0    0  0.28629508121E-01  0.24964887965E-01  0.12814726377E+00  0.14122275176E+00  0.45598794245E-01 0.  0.
         14    1    1    2    0    0  0.47370110860E-02  0.57511636064E-02 -0.11710323722E-01  0.13879727610E-01  0.00000000000E+00 0.  1.
     999901    1    3    3    0    0 -0.33366519207E-01 -0.30716051572E-01 -0.11643694004E+00  0.88882752063E+00  0.88000000000E+00 0. -1.
        -11    1    4    4    0    0  0.21026536588E-02  0.29884043067E-01  0.47300955585E-01  0.55992130721E-01  0.51100000000E-03 0. -1.
         11    1    4    4    0    0  0.26526854462E-01 -0.49191551016E-02  0.80846308182E-01  0.85230621036E-01  0.51100000000E-03 0.  1.
</event>
<event>
 8    1  0.2123879E+004  0.1043930E+01  0.7957747E-01            NaN
         13   -1    0    0    0    0  0.00000000000E+00  0.00000000000E+00  0.74505805969E-08  0.10566000000E+00  0.10566000000E+00 0.  1.
     999900   -1    0    0    0    0 -0.00000000000E+00 -0.00000000000E+00 -0.74505805969E-08  0.93827000000E+00  0.93827000000E+00 0.  1.
     999902    2    1    2    0    0 -0.83123610068E-03 -0.99375786096E-02 -0.16876267654E-02  0.10338159253E+01  0.10337664499E+01 0.  0.
     999903    2    3    3    0    0  0.54058293691E-01 -0.21234347631E-01  0.12307160456E+00  0.14325130485E+00  0.44733878172E-01 0.  0.
         14    1    1    2    0    0  0.83123610068E-03  0.99375786096E-02  0.16876267654E-02  0.10114074657E-01  0.00000000000E+00 0.  1.
     999901    1    3    3    0    0 -0.54889529792E-01  0.11296769021E-01 -0.12475923133E+00  0.89056462049E+00  0.88000000000E+00 0.  1.
        -11    1    4    4    0    0  0.17132367908E-01 -0.30513830614E-01  0.53245234250E-01  0.63717564143E-01  0.51100000000E-03 0. -1.
         11    1    4    4    0    0  0.36925925783E-01  0.92794829832E-02  0.69826370310E-01  0.79533740708E-01  0.51100000000E-03 0.  1.
</event>
<event>
 8    1  0.2123879E+004  0.1043930E+01  0.7957747E-01            NaN
         13   -1    0    0    0    0  0.00000000000E+00  0.00000000000E+00  0.74505805969E-08  0.10566000000E+00  0.10566000000E+00 0.  1.
     999900   -1    0    0    0    0 -0.00000000000E+00 -0.00000000000E+00 -0.74505805969E-08  0.93827000000E+00  0.93827000000E+00 0. -1.
     999902    2    1    2    0    0 -0.11226661431E-01 -0.65545926218E-02 -0.51228063982E-02  0.10299570348E+01  0.10298622480E+01 0.  0.
     999903    2    3    3    0    0  0.92243886877E-01 -0.69034111903E-03 -0.94303298785E-01  0.13939894907E+00  0.45050456206E-01 0.  0.
         14    1    1    2    0    0  0.11226661431E-01  0.65545926218E-02  0.51228063982E-02  0.13972965208E-01  0.00000000000E+00 0.  1.
     999901    1    3    3    0    0 -0.10347054831E+00 -0.58642515027E-02  0.89180492387E-01  0.89055808572E+00  0.88000000000E+00 0.  1.
        -11    1    4    4    0    0  0.47330366935E-01 -0.22634123880E-01 -0.43909006576E-01  0.68415854723E-01  0.51100000000E-03 0. -1.
         11    1    4    4    0    0  0.44913519943E-01  0.21943782761E-01 -0.50394292209E-01  0.70983094351E-01  0.51100000000E-03 0.  1.
</event>
<event>
 8    1  0.2123879E+004  0.1043930E+01  0.7957747E-01            NaN
         13   -1    0    0    0    0  0.00000000000E+00  0.00000000000E+00  0.74505805969E-08  0.10566000000E+00  0.10566000000E+00 0. -1.
     999900   -1    0    0    0    0 -0.00000000000E+00 -0.00000000000E+00 -0.74505805969E-08  0.93827000000E+00  0.93827000000E+00 0.  1.
     999902    2    1    2    0    0  0.59584789465E-02 -0.90415948152E-02  0.72483926955E-02  0.10308995317E+01  0.10308171765E+01 0.  0.
     999903    2    3    3    0    0 -0.10853127152E+00 -0.11666179592E-01  0.76304731911E-01  0.14079640878E+00  0.45673624429E-01 0.  0.
         14    1    1    2    0    0 -0.59584789465E-02  0.90415948152E-02 -0.72483926955E-02  0.13030468327E-01  0.00000000000E+00 0. -1.
     999901    1    3    3    0    0  0.11448975046E+00  0.26245847769E-02 -0.69056339215E-01  0.89010312290E+00  0.88000000000E+00 0.  1.
        -11    1    4    4    0    0 -0.39259095903E-01 -0.66317937505E-02  0.31840745587E-02  0.39945672497E-01  0.51100000000E-03 0.  1.
         11    1    4    4    0    0 -0.69272175615E-01 -0.50343858416E-02  0.73120657352E-01  0.10085073628E+00  0.51100000000E-03 0. -1.
</event>
<event>
 8    1  0.2123879E+004  0.1043930E+01  0.7957747E-01            NaN
         13   -1    0    0    0    0  0.00000000000E+00  0.00000000000E+00  0.74505805969E-08  0.10566000000E+00  0.10566000000E+00 0. -1.
     999900   -1    0    0    0    0 -0.00000000000E+00 -0.00000000000E+00 -0.74505805969E-08  0.93827000000E+00  0.93827000000E+00 0.  1.
     999902    2    1    2    0    0 -0.11058934344E-01  0.10468001221E-01  0.50743801390E-02  0.10278791928E+01  0.10277538648E+01 0.  0.
     999903    2    3    3    0    0  0.13031257078E-01  0.13077331610E-01  0.13031899550E+00  0.13868103737E+00  0.43687060717E-01 0.  0.
         14    1    1    2    0    0  0.11058934344E-01 -0.10468001221E-01 -0.50743801390E-02  0.16050807213E-01  0.00000000000E+00 0. -1.
     999901    1    3    3    0    0 -0.24090191422E-01 -0.26093303894E-02 -0.12524461536E+00  0.88919815542E+00  0.88000000000E+00 0.  1.
        -11    1    4    4    0    0 -0.53251172740E-02  0.20686050640E-01  0.10115710909E+00  0.10338902942E+00  0.51100000000E-03 0.  1.
         11    1    4    4    0    0  0.18356374352E-01 -0.76087190297E-02  0.29161886412E-01  0.35292007944E-01  0.51100000000E-03 0. -1.
</event>
<event>
 8    1  0.2123879E+004  0.1043930E+01  0.7957747E-01            NaN
         13   -1    0    0    0    0  0.00000000000E+00  0.00000000000E+00  0.74505805969E-08  0.10566000000E+00  0.10566000000E+00 0. -1.
     999900   -1    0    0    0    0 -0.00000000000E+00 -0.00000000000E+00 -0.74505805969E-08  0.93827000000E+00  0.93827000000E+00 0.  1.
     999902    2    1    2    0    0 -0.57042053098E-02  0.26360480924E-02  0.10855238236E-01  0.10313871572E+01  0.10313108868E+01 0.  0.
     999903    2    3    3    0    0 -0.12905902840E+00  0.30534393031E-01 -0.13970517583E-02  0.14226126701E+00  0.51456140256E-01 0.  0.
         14    1    1    2    0    0  0.57042053098E-02 -0.26360480924E-02 -0.10855238236E-01  0.12542842776E-01  0.00000000000E+00 0.  1.
     999901    1    3    3    0    0  0.12335482309E+00 -0.27898344939E-01  0.12252289994E-01  0.88912589021E+00  0.88000000000E+00 0. -1.
        -11    1    4    4    0    0 -0.31628911646E-01 -0.44438805724E-02  0.18401963717E-01  0.36865017511E-01  0.51100000000E-03 0. -1.
         11    1    4    4    0    0 -0.97430116753E-01  0.34978273603E-01 -0.19799015475E-01  0.10539624950E+00  0.51100000000E-03 0.  1.
</event>
<event>
 8    1  0.2176541E+004  0.1043930E+01  0.7957747E-01            NaN
         13   -1    0    0    0    0  0.00000000000E+00  0.00000000000E+00  0.74505805969E-08  0.10566000000E+00  0.10566000000E+00 0. -1.
     999900   -1    0    0    0    0 -0.00000000000E+00 -0.00000000000E+00 -0.74505805969E-08  0.93827000000E+00  0.93827000000E+00 0. -1.
     999902    2    1    2    0    0  0.33511237121E-02  0.19956352645E-02 -0.13608633139E-01  0.10297734649E+01  0.10296761537E+01 0.  0.
     999903    2    3    3    0    0 -0.12902447701E+00 -0.39616358822E-02  0.24621509386E-01  0.13903201389E+00  0.45394624504E-01 0.  0.
         14    1    1    2    0    0 -0.33511237121E-02 -0.19956352645E-02  0.13608633139E-01  0.14156535104E-01  0.00000000000E+00 0. -1.
     999901    1    3    3    0    0  0.13237560073E+00  0.59572711467E-02 -0.38230142525E-01  0.89074145101E+00  0.88000000000E+00 0.  1.
        -11    1    4    4    0    0 -0.45185917306E-01 -0.21235748166E-01  0.18373568857E-01  0.53203132206E-01  0.51100000000E-03 0.  1.
         11    1    4    4    0    0 -0.83838559707E-01  0.17274112284E-01  0.62479405290E-02  0.85828881682E-01  0.51100000000E-03 0. -1.
</event>
<event>
 8    1  0.2123879E+004  0.1043930E+01  0.7957747E-01            NaN
         13   -1    0    0    0    0  0.00000000000E+00  0.00000000000E+00  0.74505805969E-08  0.10566000000E+00  0.10566000000E+00 0.  1.
     999900   -1    0    0    0    0 -0.00000000000E+00 -0.00000000000E+00 -0.74505805969E-08  0.93827000000E+00  0.93827000000E+00 0. -1.
     999902    2    1    2    0    0  0.72323067901E-02  0.33907864474E-02 -0.11385435948E-01  0.10300220222E+01  0.10299281210E+01 0.  0.
     999903    2    3    3    0    0  0.11492233467E+00 -0.85736076795E-02  0.65841222550E-01  0.14001963705E+00  0.44606977232E-01 0.  0.
         14    1    1    2    0    0 -0.72323067901E-02 -0.33907864474E-02  0.11385435948E-01  0.13907977782E-01  0.00000000000E+00 0.  1.
     999901    1    3    3    0    0 -0.10769002788E+00  0.11964394127E-01 -0.77226658498E-01  0.89000238517E+00  0.88000000000E+00 0. -1.
        -11    1    4    4    0    0  0.22424562534E-01  0.37607122697E-02  0.34994020833E-01  0.41735435503E-01  0.51100000000E-03 0.  1.
         11    1    4    4    0    0  0.92497772132E-01 -0.12334319949E-01  0.30847201717E-01  0.98284201542E-01  0.51100000000E-03 0. -1.
</event>
<event>
 7    1  0.2123879E+004  0.1043930E+01  0.7957747E-01            NaN
         13   -1    0    0    0    0  0.00000000000E+00  0.00000000000E+00  0.74505805969E-08  0.10566000000E+00  0.10566000000E+00 0. -1.
     999900   -1    0    0    0    0 -0.00000000000E+00 -0.00000000000E+00 -0.74505805969E-08  0.93827000000E+00  0.93827000000E+00 0. -1.
     999903    2    1    2    0    0 -0.78251660293E-01  0.61133547405E-01  0.53338152180E-01  0.12177636815E+00  0.46085707164E-01 0.  0.
         14    1    1    2    0    0 -0.10163810425E-01  0.97780367850E-02  0.27809946271E-01  0.31181824150E-01  0.00000000000E+00 0. -1.
     999901    1    1    2    0    0  0.88415470718E-01 -0.70911584190E-01 -0.81148098452E-01  0.89097180770E+00  0.88000000000E+00 0. -1.
        -11    1    3    3    0    0 -0.43484172759E-01  0.60027395416E-01  0.41945932326E-01  0.85169735474E-01  0.51100000000E-03 0.  1.
         11    1    3    3    0    0 -0.34767487534E-01  0.11061519886E-02  0.11392219854E-01  0.36606632675E-01  0.51100000000E-03 0. -1.
</event>
<event>
 8    1  0.2123879E+004  0.1043930E+01  0.7957747E-01            NaN
         13   -1    0    0    0    0  0.00000000000E+00  0.00000000000E+00  0.74505805969E-08  0.10566000000E+00  0.10566000000E+00 0.  1.
     999900   -1    0    0    0    0 -0.00000000000E+00 -0.00000000000E+00 -0.74505805969E-08  0.93827000000E+00  0.93827000000E+00 0.  1.
     999902    2    1    2    0    0  0.13303198393E-01  0.68509304154E-02  0.77506939091E-02  0.10270781873E+01  0.10269399297E+01 0.  0.
     999903    2    3    3    0    0 -0.43838902763E-01 -0.10684707779E+00  0.58079131216E-01  0.13650230149E+00  0.43835435438E-01 0.  0.
         14    1    1    2    0    0 -0.13303198393E-01 -0.68509304154E-02 -0.77506939091E-02  0.16851812695E-01  0.00000000000E+00 0. -1.
     999901    1    3    3    0    0  0.57142101156E-01  0.11369800821E+00 -0.50328437307E-01  0.89057588582E+00  0.88000000000E+00 0.  1.
        -11    1    4    4    0    0 -0.20756026059E-01 -0.95540333214E-01  0.47572240431E-01  0.10872969727E+00  0.51100000000E-03 0.  1.
         11    1    4    4    0    0 -0.23082876704E-01 -0.11306744581E-01  0.10506890785E-01  0.27772604216E-01  0.51100000000E-03 0. -1.
</event>
<event>
 8    1  0.2123879E+004  0.1043930E+01  0.7957747E-01            NaN
         13   -1    0    0    0    0  0.00000000000E+00  0.00000000000E+00  0.74505805969E-08  0.10566000000E+00  0.10566000000E+00 0. -1.
     999900   -1    0    0    0    0 -0.00000000000E+00 -0.00000000000E+00 -0.74505805969E-08  0.93827000000E+00  0.93827000000E+00 0. -1.
     999902    2    1    2    0    0 -0.27337806365E-02  0.11309337529E-01  0.10148526308E-01  0.10284908531E+01  0.10283749645E+01 0.  0.
     999903    2    3    3    0    0 -0.13089681792E+00 -0.75056907833E-02 -0.13767761037E-01  0.13868651602E+00  0.43059100640E-01 0.  0.
         14    1    1    2    0    0  0.27337806365E-02 -0.11309337529E-01 -0.10148526308E-01  0.15439146937E-01  0.00000000000E+00 0.  1.
     999901    1    3    3    0    0  0.12816303728E+00  0.18815028312E-01  0.23916287345E-01  0.88980433704E+00  0.88000000000E+00 0.  1.
        -11    1    4    4    0    0 -0.11031328721E+00  0.89964125169E-02 -0.46834047100E-02  0.11077974622E+00  0.51100000000E-03 0. -1.
         11    1    4    4    0    0 -0.20583530709E-01 -0.16502103300E-01 -0.90843563275E-02  0.27906769800E-01  0.51100000000E-03 0.  1.
</event>
<event>
 8    1  0.2123879E+004  0.1043930E+01  0.7957747E-01            NaN
         13   -1    0    0    0    0  0.00000000000E+00  0.00000000000E+00  0.74505805969E-08  0.10566000000E+00  0.10566000000E+00 0.  1.
     999900   -1    0    0    0    0 -0.00000000000E+00 -0.00000000000E+00 -0.74505805969E-08  0.93827000000E+00  0.93827000000E+00 0. -1.
     999902    2    1    2    0    0 -0.43066526165E-02  0.58427777564E-02 -0.11784455206E-01  0.10300895270E+01  0.10299965412E+01 0.  0.
     999903    2    3    3    0    0 -0.86451092543E-01  0.73606994477E-01  0.68170895734E-01  0.14007123716E+00  0.45616876458E-01 0.  0.
         14    1    1    2    0    0  0.43066526165E-02 -0.58427777564E-02  0.11784455206E-01  0.13840473011E-01  0.00000000000E+00 0.  1.
     999901    1    3    3    0    0  0.82144439926E-01 -0.67764216721E-01 -0.79955350939E-01  0.89001828982E+00  0.88000000000E+00 0. -1.
        -11    1    4    4    0    0 -0.15713028721E-01  0.41926881587E-01  0.27345664161E-01  0.52467219677E-01  0.51100000000E-03 0.  1.
         11    1    4    4    0    0 -0.70738063822E-01  0.31680112890E-01  0.40825231573E-01  0.87604017488E-01  0.51100000000E-03 0. -1.
</event>
<event>
 8    1  0.2123879E+004  0.1043930E+01  0.7957747E-01            NaN
         13   -1    0    0    0    0  0.00000000000E+00  0.00000000000E+00  0.74505805969E-08  0.10566000000E+00  0.10566000000E+00 0.  1.
     999900   -1    0    0    0    0 -0.00000000000E+00 -0.00000000000E+00 -0.74505805969E-08  0.93827000000E+00  0.93827000000E+00 0. -1.
     999902    2    1    2    0    0 -0.96172177235E-02 -0.19975793653E-02  0.88462535337E-02  0.10307111725E+01  0.10306264035E+01 0.  0.
     999903    2    3    3    0    0  0.37264408156E-01  0.12548895640E+00  0.32812208881E-01  0.13996706180E+00  0.37121732790E-01 0.  0.
         14    1    1    2    0    0  0.96172177235E-02  0.19975793653E-02 -0.88462535337E-02  0.13218827544E-01  0.00000000000E+00 0. -1.
     999901    1    3    3    0    0 -0.46881625879E-01 -0.12748653576E+00 -0.23965955348E-01  0.89074411065E+00  0.88000000000E+00 0.  1.
        -11    1    4    4    0    0  0.29663314070E-01  0.96997246348E-01  0.40926856149E-01  0.10937845618E+00  0.51100000000E-03 0. -1.
         11    1    4    4    0    0  0.76010940859E-02  0.28491710049E-01 -0.81146472672E-02  0.30588605625E-01  0.51100000000E-03 0.  1.
</event>
<event>
 8    1  0.2123879E+004  0.1043930E+01  0.7957747E-01            NaN
         13   -1    0    0    0    0  0.00000000000E+00  0.00000000000E+00  0.74505805969E-08  0.10566000000E+00  0.10566000000E+00 0. -1.
     999900   -1    0    0    0    0 -0.00000000000E+00 -0.00000000000E+00 -0.74505805969E-08  0.93827000000E+00  0.93827000000E+00 0.  1.
     999902    2    1    2    0    0 -0.78482306396E-02  0.27240472610E-02 -0.11772886818E-01  0.10295211131E+01  0.10294202768E+01 0.  0.
     999903    2    3    3    0    0  0.11415906918E+00 -0.49921350899E-01  0.39331162330E-01  0.13807905497E+00  0.44659273840E-01 0.  0.
         14    1    1    2    0    0  0.78482306396E-02 -0.27240472610E-02  0.11772886818E-01  0.14408886900E-01  0.00000000000E+00 0. -1.
     999901    1    3    3    0    0 -0.12200729982E+00  0.52645398160E-01 -0.51104049149E-01  0.89144205813E+00  0.88000000000E+00 0. -1.
        -11    1    4    4    0    0  0.43061080683E-01 -0.42915854181E-01  0.15183623906E-01  0.62664429828E-01  0.51100000000E-03 0.  1.
         11    1    4    4    0    0  0.71097988500E-01 -0.70054967176E-02  0.24147538424E-01  0.75414625146E-01  0.51100000000E-03 0. -1.
</event>
<event>
 8    1  0.2123879E+004  0.1043930E+01  0.7957747E-01            NaN
         13   -1    0    0    0    0  0.00000000000E+00  0.00000000000E+00  0.74505805969E-08  0.10566000000E+00  0.10566000000E+00 0.  1.
     999900   -1    0    0    0    0 -0.00000000000E+00 -0.00000000000E+00 -0.74505805969E-08  0.93827000000E+00  0.93827000000E+00 0. -1.
     999902    2    1    2    0    0  0.78030299099E-02 -0.84690033657E-02 -0.75573848891E-02  0.10301559171E+01  0.10300638272E+01 0.  0.
     999903    2    3    3    0    0 -0.96552080327E-01  0.26840820407E-01  0.83931628371E-01  0.13858033855E+00  0.46013673368E-01 0.  0.
         14    1    1    2    0    0 -0.78030299099E-02  0.84690033657E-02  0.75573848891E-02  0.13774082915E-01  0.00000000000E+00 0. -1.
     999901    1    3    3    0    0  0.10435511024E+00 -0.35309823772E-01 -0.91489013260E-01  0.89157557853E+00  0.88000000000E+00 0. -1.
        -11    1    4    4    0    0 -0.55520700447E-01  0.21107290393E-01  0.20543090007E-01  0.62851774469E-01  0.51100000000E-03 0. -1.
         11    1    4    4    0    0 -0.41031379881E-01  0.57335300133E-02  0.63388538364E-01  0.75728564084E-01  0.51100000000E-03 0.  1.
</event>
<event>
 8    1  0.2123879E+004  0.1043930E+01  0.7957747E-01            NaN
         13   -1    0    0    0    0  0.00000000000E+00  0.00000000000E+00  0.74505805969E-08  0.10566000000E+00  0.10566000000E+00 0.  1.
     999900   -1    0    0    0    0 -0.00000000000E+00 -0.00000000000E+00 -0.74505805969E-08  0.93827000000E+00  0.93827000000E+00 0.  1.
     999902    2    1    2    0    0 -0.69521233789E-02 -0.10992844489E-01 -0.40624362239E-02  0.10303036271E+01  0.10302135148E+01 0.  0.
     999903    2    3    3    0    0 -0.46902466901E-01  0.12642356159E+00  0.22545196112E-02  0.13872121224E+00  0.32492053510E-01 0.  0.
         14    1    1    2    0    0  0.69521233789E-02  0.10992844489E-01  0.40624362239E-02  0.13626372867E-01  0.00000000000E+00 0. -1.
     999901    1    3    3    0    0  0.39950343522E-01 -0.13741640608E+00 -0.63169558350E-02  0.89158241489E+00  0.88000000000E+00 0.  1.
        -11    1    4    4    0    0 -0.22542589450E-01  0.40641044167E-01 -0.12975307893E-01  0.48254352612E-01  0.51100000000E-03 0.  1.
         11    1    4    4    0    0 -0.24359877451E-01  0.85782517424E-01  0.15229827504E-01  0.90466859633E-01  0.51100000000E-03 0. -1.
</event>
<event>
 8    1  0.2123879E+004  0.1043930E+01  0.7957747E-01            NaN
         13   -1    0    0    0    0  0.00000000000E+00  0.00000000000E+00  0.74505805969E-08  0.10566000000E+00  0.10566000000E+00 0. -1.
     999900   -1    0    0    0    0 -0.00000000000E+00 -0.00000000000E+00 -0.74505805969E-08  0.93827000000E+00  0.93827000000E+00 0.  1.
     999902    2    1    2    0    0  0.33843558550E-02  0.79672155000E-02 -0.12389183529E-01  0.10288163553E+01  0.10287053372E+01 0.  0.
     999903    2    3    3    0    0  0.86203707019E-01  0.84970366801E-01 -0.55246346359E-01  0.14054541317E+00  0.45274849963E-01 0.  0.
         14    1    1    2    0    0 -0.33843558550E-02 -0.79672155000E-02  0.12389183529E-01  0.15113644693E-01  0.00000000000E+00 0. -1.
     999901    1    3    3    0    0 -0.82819351164E-01 -0.77003151301E-01  0.42857162830E-01  0.88827094214E+00  0.88000000000E+00 0. -1.
        -11    1    4    4    0    0  0.26509785312E-01  0.29282211743E-01  0.39559116136E-02  0.39700465986E-01  0.51100000000E-03 0. -1.
         11    1    4    4    0    0  0.59693921707E-01  0.55688155059E-01 -0.59202257973E-01  0.10084494718E+00  0.51100000000E-03 0.  1.
</event>
<event>
 8    1  0.2123879E+004  0.1043930E+01  0.7957747E-01            NaN
         13   -1    0    0    0    0  0.00000000000E+00  0.00000000000E+00  0.74505805969E-08  0.10566000000E+00  0.10566000000E+00 0.  1.
     999900   -1    0    0    0    0 -0.00000000000E+00 -0.00000000000E+00 -0.74505805969E-08  0.93827000000E+00  0.93827000000E+00 0. -1.
     999902    2    1    2    0    0  0.41033854667E-02 -0.89422616108E-02 -0.87175399227E-02  0.10307847607E+01  0.10307009389E+01 0.  0.
     999903    2    3    3    0    0  0.90122771897E-01  0.68990050194E-01 -0.71102616982E-01  0.14097316380E+00  0.44001246915E-01 0.  0.
         14    1    1    2    0    0 -0.41033854667E-02  0.89422616108E-02  0.87175399227E-02  0.13145239340E-01  0.00000000000E+00 0.  1.
     999901    1    3    3    0    0 -0.86019386431E-01 -0.77932311805E-01  0.62385077060E-01  0.88981159686E+00  0.88000000000E+00 0. -1.
        -11    1    4    4    0    0  0.46313409786E-02  0.10231669034E-01 -0.25079799257E-01  0.27484428724E-01  0.51100000000E-03 0. -1.
         11    1    4    4    0    0  0.85491430919E-01  0.58758381160E-01 -0.46022817725E-01  0.11348873508E+00  0.51100000000E-03 0.  1.
</event>
<event>
 8    1  0.2123879E+004  0.1043930E+01  0.7957747E-01            NaN
         13   -1    0    0    0    0  0.00000000000E+00  0.00000000000E+00  0.74505805969E-08  0.10566000000E+00  0.10566000000E+00 0. -1.
     999900   -1    0    0    0    0 -0.00000000000E+00 -0.00000000000E+00 -0.74505805969E-08  0.93827000000E+00  0.93827000000E+00 0.  1.
     999902    2    1    2    0    0 -0.88672038004E-02  0.10420870284E-01 -0.27406341171E-02  0.10299753264E+01  0.10298807892E+01 0.  0.
     999903    2    3    3    0    0 -0.63663998522E-01  0.11354033301E+00  0.32586498923E-01  0.14155857809E+00  0.45082581899E-01 0.  0.
         14    1    1    2    0    0  0.88672038004E-02 -0.10420870284E-01  0.27406341171E-02  0.13954673628E-01  0.00000000000E+00 0.  1.
     999901    1    3    3    0    0  0.54796794722E-01 -0.10311946272E+00 -0.35327133040E-01  0.88841674828E+00  0.88000000000E+00 0.  1.
        -11    1    4    4    0    0 -0.52622612267E-01  0.59752225531E-01  0.41749265861E-02  0.79731793600E-01  0.51100000000E-03 0.  1.
         11    1    4    4    0    0 -0.11041386255E-01  0.53788107476E-01  0.28411572337E-01  0.61826784487E-01  0.51100000000E-03 0. -1.
</event>
<event>
 8    1  0.2123879E+004  0.1043930E+01  0.7957747E-01            NaN
         13   -1    0    0    0    0  0.00000000000E+00  0.00000000000E+00  0.74505805969E-08  0.10566000000E+00  0.10566000000E+00 0. -1.
     999900   -1    0    0    0    0 -0.00000000000E+00 -0.00000000000E+00 -0.74505805969E-08  0.93827000000E+00  0.93827000000E+00 0. -1.
     999902    2    1    2    0    0 -0.87680205946E-02  0.74386024141E-02  0.30730168259E-02  0.10320281336E+01  0.10319595022E+01 0.  0.
     999903    2    3    3    0    0  0.80205432651E-01  0.49163956409E-01  0.95926024798E-01  0.14170293368E+00  0.45032356633E-01 0.  0.
         14    1    1    2    0    0  0.87680205946E-02 -0.74386024141E-02 -0.30730168259E-02  0.11901866385E-01  0.00000000000E+00 0.  1.
     999901    1    3    3    0    0 -0.88973453245E-01 -0.41725353995E-01 -0.92853007972E-01  0.89032519993E+00  0.88000000000E+00 0. -1.
        -11    1    4    4    0    0  0.74797343464E-01  0.56123377794E-01  0.94147708366E-01  0.13269712972E+00  0.51100000000E-03 0. -1.
         11    1    4    4    0    0  0.54080891870E-02 -0.69594213847E-02  0.17783164312E-02  0.90058039616E-02  0.51100000000E-03 0.  1.
</event>
<event>
 8    1  0.2123879E+004  0.1043930E+01  0.7957747E-01            NaN
         13   -1    0    0    0    0  0.00000000000E+00  0.00000000000E+00  0.74505805969E-08  0.10566000000E+00  0.10566000000E+00 0. -1.
     999900   -1    0    0    0    0 -0.00000000000E+00 -0.00000000000E+00 -0.74505805969E-08  0.93827000000E+00  0.93827000000E+00 0. -1.
     999902    2    1    2    0    0  0.11519648076E-01 -0.12320899468E-02 -0.10536256435E-01  0.10282700818E+01  0.10281508295E+01 0.  0.
     999903    2    3    3    0    0  0.90877544205E-02  0.79552727699E-01  0.10222931277E+00  0.13740074547E+00  0.44910006686E-01 0.  0.
         14    1    1    2    0    0 -0.11519648076E-01  0.12320899468E-02  0.10536256435E-01  0.15659918170E-01  0.00000000000E+00 0. -1.
     999901    1    3    3    0    0  0.24318936557E-02 -0.80784817646E-01 -0.11276556921E+00  0.89086933636E+00  0.88000000000E+00 0. -1.
        -11    1    4    4    0    0  0.17792469696E-01  0.16093951237E-01  0.12229317836E-01  0.26933335850E-01  0.51100000000E-03 0. -1.
         11    1    4    4    0    0 -0.87047152752E-02  0.63458776463E-01  0.89999994937E-01  0.11046740962E+00  0.51100000000E-03 0.  1.
</event>
<event>
 8    1  0.2123879E+004  0.1043930E+01  0.7957747E-01            NaN
         13   -1    0    0    0    0  0.00000000000E+00  0.00000000000E+00  0.74505805969E-08  0.10566000000E+00  0.10566000000E+00 0.  1.
     999900   -1    0    0    0    0 -0.00000000000E+00 -0.00000000000E+00 -0.74505805969E-08  0.93827000000E+00  0.93827000000E+00 0.  1.
     999902    2    1    2    0    0  0.26953032395E-02  0.51271397560E-02 -0.11526802344E-01  0.10310296359E+01  0.10309489273E+01 0.  0.
     999903    2    3    3    0    0  0.58384581968E-01  0.10745417896E+00 -0.55299894034E-01  0.14227308753E+00  0.47205859445E-01 0.  0.
         14    1    1    2    0    0 -0.26953032395E-02 -0.51271397560E-02  0.11526802344E-01  0.12900364100E-01  0.00000000000E+00 0.  1.
     999901    1    3    3    0    0 -0.55689278729E-01 -0.10232703921E+00  0.43773091690E-01  0.88875654837E+00  0.88000000000E+00 0. -1.
        -11    1    4    4    0    0  0.46628835360E-01  0.49639308162E-01 -0.46864052026E-01  0.82672907867E-01  0.51100000000E-03 0. -1.
         11    1    4    4    0    0  0.11755746608E-01  0.57814870803E-01 -0.84358420076E-02  0.59600179661E-01  0.51100000000E-03 0.  1.
</event>
<event>
 8    1  0.2123879E+004  0.1043930E+01  0.7957747E-01            NaN
         13   -1    0    0    0    0  0.00000000000E+00  0.00000000000E+00  0.74505805969E-08  0.10566000000E+00  0.10566000000E+00 0.  1.
     999900   -1    0    0    0    0 -0.00000000000E+00 -0.00000000000E+00 -0.74505805969E-08  0.93827000000E+00  0.93827000000E+00 0.  1.
     999902    2    1    2    0    0  0.65617517761E-02 -0.13528898357E-01  0.29429185389E-02  0.10286084972E+01  0.10284943812E+01 0.  0.
     999903    2    3    3    0    0  0.76809691460E-01  0.62082092618E-01  0.87751521360E-01  0.13852743684E+00  0.41660608845E-01 0.  0.
         14    1    1    2    0    0 -0.65617517761E-02  0.13528898357E-01 -0.29429185389E-02  0.15321502755E-01  0.00000000000E+00 0. -1.
     999901    1    3    3    0    0 -0.70247939684E-01 -0.75610990976E-01 -0.84808602822E-01  0.89008106041E+00  0.88000000000E+00 0.  1.
        -11    1    4    4    0    0  0.88168627012E-02  0.25263188814E-01  0.91892521175E-02  0.28296099597E-01  0.51100000000E-03 0. -1.
         11    1    4    4    0    0  0.67992828759E-01  0.36818903805E-01  0.78562269243E-01  0.11023133724E+00  0.51100000000E-03 0.  1.
</event>
<event>
 8    1  0.2123879E+004  0.1043930E+01  0.7957747E-01            NaN
         13   -1    0    0    0    0  0.00000000000E+00  0.00000000000E+00  0.74505805969E-08  0.10566000000E+00  0.10566000000E+00 0.  1.
     999900   -1    0    0    0    0 -0.00000000000E+00 -0.00000000000E+00 -0.74505805969E-08  0.93827000000E+00  0.93827000000E+00 0.  1.
     999902    2    1    2    0    0 -0.36068189022E-02 -0.35079453542E-02  0.13546528700E-01  0.10294792816E+01  0.10293778548E+01 0.  0.
     999903    2    3    3    0    0  0.73926615490E-01 -0.97375983841E-01  0.51816120314E-01  0.14027334157E+00  0.45215852571E-01 0.  0.
         14    1    1    2    0    0  0.36068189022E-02  0.35079453542E-02 -0.13546528700E-01  0.14450718425E-01  0.00000000000E+00 0. -1.
     999901    1    3    3    0    0 -0.77533434392E-01  0.93868038487E-01 -0.38269591615E-01  0.88920594001E+00  0.88000000000E+00 0.  1.
        -11    1    4    4    0    0  0.56057491374E-01 -0.90081266570E-01  0.28229018550E-01  0.10979169156E+00  0.51100000000E-03 0. -1.
         11    1    4    4    0    0  0.17869124116E-01 -0.72947172710E-02  0.23587101764E-01  0.30481650011E-01  0.51100000000E-03 0.  1.
</event>
<event>
 8    1  0.2123879E+004  0.1043930E+01  0.7957747E-01            NaN
         13   -1    0    0    0    0  0.00000000000E+00  0.00000000000E+00  0.74505805969E-08  0.10566000000E+00  0.10566000000E+00 0. -1.
     999900   -1    0    0    0    0 -0.00000000000E+00 -0.00000000000E+00 -0.74505805969E-08  0.93827000000E+00  0.93827000000E+00 0.  1.
     999902    2    1    2    0    0  0.84861148304E-02  0.10673664314E-01 -0.10091904631E-03  0.10302935987E+01  0.10302033528E+01 0.  0.
     999903    2    3    3    0    0  0.10421446227E+00 -0.80700611082E-01 -0.16219317353E-01  0.14025260110E+00  0.45105244535E-01 0.  0.
         14    1    1    2    0    0 -0.84861148304E-02 -0.10673664314E-01  0.10091904631E-03  0.13636401265E-01  0.00000000000E+00 0. -1.
     999901    1    3    3    0    0 -0.95728347441E-01  0.91374275395E-01  0.16118398307E-01  0.89004099764E+00  0.88000000000E+00 0.  1.
        -11    1    4    4    0    0  0.52909322600E-01 -0.24138700570E-01  0.10984533184E-01  0.59186099495E-01  0.51100000000E-03 0. -1.
         11    1    4    4    0    0  0.51305139671E-01 -0.56561910512E-01 -0.27203850537E-01  0.81066501605E-01  0.51100000000E-03 0.  1.
</event>
<event>
 8    1  0.2123879E+004  0.1043930E+01  0.7957747E-01            NaN
         13   -1    0    0    0    0  0.00000000000E+00  0.00000000000E+00  0.74505805969E-08  0.10566000000E+00  0.10566000000E+00 0. -1.
     999900   -1    0    0    0    0 -0.00000000000E+00 -0.00000000000E+00 -0.74505805969E-08  0.93827000000E+00  0.93827000000E+00 0.  1.
     999902    2    1    2    0    0 -0.12745568897E-01 -0.34057882860E-02 -0.11367393614E-02  0.10306883575E+01  0.10306032938E+01 0.  0.
     999903    2    3    3    0    0  0.62201492827E-01  0.52762820398E-01 -0.10417455163E+00  0.13974011800E+00  0.44966903895E-01 0.  0.
         14    1    1    2    0    0  0.12745568897E-01  0.34057882860E-02  0.11367393614E-02  0.13241642524E-01  0.00000000000E+00 0. -1.
     999901    1    3    3    0    0 -0.74947061724E-01 -0.56168608684E-01  0.10303781227E+00  0.89094823947E+00  0.88000000000E+00 0.  1.
        -11    1    4    4    0    0  0.23516895656E-01  0.75716506407E-02 -0.62211908233E-01  0.66939950117E-01  0.51100000000E-03 0. -1.
         11    1    4    4    0    0  0.38684597171E-01  0.45191169758E-01 -0.41962643398E-01  0.72800167887E-01  0.51100000000E-03 0.  1.
</event>
<event>
 8    1  0.2123879E+004  0.1043930E+01  0.7957747E-01            NaN
         13   -1    0    0    0    0  0.00000000000E+00  0.00000000000E+00  0.74505805969E-08  0.10566000000E+00  0.10566000000E+00 0.  1.
     999900   -1    0    0    0    0 -0.00000000000E+00 -0.00000000000E+00 -0.74505805969E-08  0.93827000000E+00  0.93827000000E+00 0. -1.
     999902    2    1    2    0    0 -0.52830644390E-03 -0.84256319232E-02  0.84237755974E-02  0.10320039623E+01  0.10319350502E+01 0.  0.
     999903    2    3    3    0    0 -0.96363322731E-02 -0.41708614402E-01 -0.12686228632E+00  0.14099721054E+00  0.44200749687E-01 0.  0.
         14    1    1    2    0    0  0.52830644390E-03  0.84256319232E-02 -0.84237755974E-02  0.11926037746E-01  0.00000000000E+00 0. -1.
     999901    1    3    3    0    0  0.91080258292E-02  0.33282982479E-01  0.13528606192E+00  0.89100675172E+00  0.88000000000E+00 0.  1.
        -11    1    4    4    0    0  0.14737672682E-02  0.88652942467E-02 -0.27742885745E-01  0.29166663547E-01  0.51100000000E-03 0. -1.
         11    1    4    4    0    0 -0.11110099541E-01 -0.50573908649E-01 -0.99119400578E-01  0.11183054699E+00  0.51100000000E-03 0.  1.
</event>
<event>
 8    1  0.2123879E+004  0.1043930E+01  0.7957747E-01            NaN
         13   -1    0    0    0    0  0.00000000000E+00  0.00000000000E+00  0.74505805969E-08  0.10566000000E+00  0.10566000000E+00 0.  1.
     999900   -1    0    0    0    0 -0.00000000000E+00 -0.00000000000E+00 -0.74505805969E-08  0.93827000000E+00  0.93827000000E+00 0. -1.
     999902    2    1    2    0    0  0.63358331435E-02  0.77830747110E-02  0.24966850707E-02  0.10335882173E+01  0.10335364775E+01 0.  0.
     999903    2    3    3    0    0 -0.13821054770E-01 -0.51739575513E-01 -0.12406906385E+00  0.14231489510E+00  0.44636213250E-01 0.  0.
         14    1    1    2    0    0 -0.63358331435E-02 -0.77830747110E-02 -0.24966850707E-02  0.10341782725E-01  0.00000000000E+00 0. -1.
     999901    1    3    3    0    0  0.20156887913E-01  0.59522650224E-01  0.12656574892E+00  0.89127332217E+00  0.88000000000E+00 0.  1.
        -11    1    4    4    0    0 -0.88874625084E-02 -0.13448543680E-02 -0.59896052029E-01  0.60568917712E-01  0.51100000000E-03 0.  1.
         11    1    4    4    0    0 -0.49335922614E-02 -0.50394721145E-01 -0.64173011822E-01  0.81745977389E-01  0.51100000000E-03 0. -1.
</event>
<event>
 8    1  0.2123879E+004  0.1043930E+01  0.7957747E-01            NaN
         13   -1    0    0    0    0  0.00000000000E+00  0.00000000000E+00  0.74505805969E-08  0.10566000000E+00  0.10566000000E+00 0.  1.
     999900   -1    0    0    0    0 -0.00000000000E+00 -0.00000000000E+00 -0.74505805969E-08  0.93827000000E+00  0.93827000000E+00 0. -1.
     999902    2    1    2    0    0 -0.89639099923E-02  0.13452268901E-01  0.15316427385E-02  0.10276923539E+01  0.10275640677E+01 0.  0.
     999903    2    3    3    0    0 -0.10414363541E+00 -0.73486851864E-01 -0.27283482912E-01  0.13783399310E+00  0.44806327911E-01 0.  0.
         14    1    1    2    0    0  0.89639099923E-02 -0.13452268901E-01 -0.15316427385E-02  0.16237646086E-01  0.00000000000E+00 0.  1.
     999901    1    3    3    0    0  0.95179725413E-01  0.86939120766E-01  0.28815125650E-01  0.88985836082E+00  0.88000000000E+00 0.  1.
        -11    1    4    4    0    0 -0.51756969554E-01 -0.62836975523E-01 -0.12472029909E-01  0.82359468438E-01  0.51100000000E-03 0.  1.
         11    1    4    4    0    0 -0.52386665852E-01 -0.10649876341E-01 -0.14811453003E-01  0.55474524659E-01  0.51100000000E-03 0. -1.
</event>
<event>
 8    1  0.2123879E+004  0.1043930E+01  0.7957747E-01            NaN
         13   -1    0    0    0    0  0.00000000000E+00  0.00000000000E+00  0.74505805969E-08  0.10566000000E+00  0.10566000000E+00 0. -1.
     999900   -1    0    0    0    0 -0.00000000000E+00 -0.00000000000E+00 -0.74505805969E-08  0.93827000000E+00  0.93827000000E+00 0. -1.
     999902    2    1    2    0    0 -0.14640459696E-01  0.33733239647E-02 -0.12933558990E-03  0.10289053835E+01  0.10287956789E+01 0.  0.
     999903    2    3    3    0    0 -0.19020550122E-02 -0.13078122185E+00 -0.11342986242E-01  0.13857653686E+00  0.44355917633E-01 0.  0.
         14    1    1    2    0    0  0.14640459696E-01 -0.33733239647E-02  0.12933558990E-03  0.15024616547E-01  0.00000000000E+00 0.  1.
     999901    1    3    3    0    0 -0.12738404684E-01  0.13415454582E+00  0.11213650652E-01  0.89032884659E+00  0.88000000000E+00 0. -1.
        -11    1    4    4    0    0 -0.32048658293E-03 -0.69551846825E-01 -0.28190035015E-01  0.75049992029E-01  0.51100000000E-03 0. -1.
         11    1    4    4    0    0 -0.15815684293E-02 -0.61229375025E-01  0.16847048773E-01  0.63526544830E-01  0.51100000000E-03 0.  1.
</event>
<event>
 8    1  0.2123879E+004  0.1043930E+01  0.7957747E-01            NaN
         13   -1    0    0    0    0  0.00000000000E+00  0.00000000000E+00  0.74505805969E-08  0.10566000000E+00  0.10566000000E+00 0. -1.
     999900   -1    0    0    0    0 -0.00000000000E+00 -0.00000000000E+00 -0.74505805969E-08  0.93827000000E+00  0.93827000000E+00 0. -1.
     999902    2    1    2    0    0  0.86244791536E-02  0.10845579777E-02  0.11763592160E-01  0.10293033118E+01  0.10291993819E+01 0.  0.
     999903    2    3    3    0    0 -0.79226006040E-01  0.10383650244E+00 -0.13333512969E-01  0.13862630273E+00  0.44504943178E-01 0.  0.
         14    1    1    2    0    0 -0.86244791536E-02 -0.10845579777E-02 -0.11763592160E-01  0.14626688182E-01  0.00000000000E+00 0. -1.
     999901    1    3    3    0    0  0.87850485194E-01 -0.10275194446E+00  0.25097105129E-01  0.89067700909E+00  0.88000000000E+00 0. -1.
        -11    1    4    4    0    0 -0.66994384708E-01  0.56627898910E-01 -0.18277119969E-01  0.89606253982E-01  0.51100000000E-03 0.  1.
         11    1    4    4    0    0 -0.12231621333E-01  0.47208603530E-01  0.49436069998E-02  0.49020048744E-01  0.51100000000E-03 0. -1.
</event>
<event>
 8    1  0.2123879E+004  0.1043930E+01  0.7957747E-01            NaN
         13   -1    0    0    0    0  0.00000000000E+00  0.00000000000E+00  0.74505805969E-08  0.10566000000E+00  0.10566000000E+00 0.  1.
     999900   -1    0    0    0    0 -0.00000000000E+00 -0.00000000000E+00 -0.74505805969E-08  0.93827000000E+00  0.93827000000E+00 0.  1.
     999902    2    1    2    0    0  0.59279524959E-02 -0.93582366729E-02  0.92215497797E-02  0.10295163192E+01  0.10294154153E+01 0.  0.
     999903    2    3    3    0    0  0.15522456468E-01  0.12423662868E+00  0.39569646845E-01  0.13886450756E+00  0.45187475544E-01 0.  0.
         14    1    1    2    0    0 -0.59279524959E-02  0.93582366729E-02 -0.92215497797E-02  0.14413680819E-01  0.00000000000E+00 0. -1.
     999901    1    3    3    0    0 -0.95945039722E-02 -0.13359486536E+00 -0.30348097065E-01  0.89065181163E+00  0.88000000000E+00 0. -1.
        -11    1    4    4    0    0  0.12855292004E-01  0.27475703969E-01  0.28163380537E-01  0.41395772313E-01  0.51100000000E-03 0. -1.
         11    1    4    4    0    0  0.26671644646E-02  0.96760924714E-01  0.11406266307E-01  0.97468735243E-01  0.51100000000E-03 0.  1.
</event>
<event>
 8    1  0.2123879E+004  0.1043930E+01  0.7957747E-01            NaN
         13   -1    0    0    0    0  0.00000000000E+00  0.00000000000E+00  0.74505805969E-08  0.10566000000E+00  0.10566000000E+00 0.  1.
     999900   -1    0    0    0    0 -0.00000000000E+00 -0.00000000000E+00 -0.74505805969E-08  0.93827000000E+00  0.93827000000E+00 0. -1.
     999902    2    1    2    0    0 -0.10791148247E-01  0.11474068894E-01  0.62771057322E-02  0.10269740219E+01  0.10268340355E+01 0.  0.
     999903    2    3    3    0    0  0.82783728463E-01 -0.75948418602E-01 -0.60139533657E-01  0.13522847586E+00  0.45262226946E-01 0.  0.
         14    1    1    2    0    0  0.10791148247E-01 -0.11474068894E-01 -0.62771057322E-02  0.16955978115E-01  0.00000000000E+00 0.  1.
     999901    1    3    3    0    0 -0.93574876710E-01  0.87422487496E-01  0.66416639389E-01  0.89174554603E+00  0.88000000000E+00 0.  1.
        -11    1    4    4    0    0  0.67196905505E-01 -0.35260799874E-01 -0.48726169406E-01  0.90184526518E-01  0.51100000000E-03 0. -1.
         11    1    4    4    0    0  0.15586822957E-01 -0.40687618728E-01 -0.11413364251E-01  0.45043949340E-01  0.51100000000E-03 0.  1.
</event>
<event>
 8    1  0.2123879E+004  0.1043930E+01  0.7957747E-01            NaN
         13   -1    0    0    0    0  0.00000000000E+00  0.00000000000E+00  0.74505805969E-08  0.10566000000E+00  0.10566000000E+00 0.  1.
     999900   -1    0    0    0    0 -0.00000000000E+00 -0.00000000000E+00 -0.74505805969E-08  0.93827000000E+00  0.93827000000E+00 0. -1.
     999902    2    1    2    0    0  0.91455776686E-02 -0.46387454705E-02 -0.92073295088E-02  0.10301483286E+01  0.10300561365E+01 0.  0.
     999903    2    3    3    0    0 -0.48667238219E-01  0.11393983642E+00 -0.47052855087E-01  0.13951064379E+00  0.43571345632E-01 0.  0.
         14    1    1    2    0    0 -0.91455776686E-02  0.46387454705E-02  0.92073295088E-02  0.13781671420E-01  0.00000000000E+00 0.  1.
     999901    1    3    3    0    0  0.57812815888E-01 -0.11857858189E+00  0.37845525578E-01  0.89063768479E+00  0.88000000000E+00 0.  1.
        -11    1    4    4    0    0 -0.27554184315E-01  0.22951807180E-01 -0.23059693596E-02  0.35938797166E-01  0.51100000000E-03 0.  1.
         11    1    4    4    0    0 -0.21113053904E-01  0.90988029237E-01 -0.44746885727E-01  0.10357184662E+00  0.51100000000E-03 0. -1.
</event>
<event>
 8    1  0.2123879E+004  0.1043930E+01  0.7957747E-01            NaN
         13   -1    0    0    0    0  0.00000000000E+00  0.00000000000E+00  0.74505805969E-08  0.10566000000E+00  0.10566000000E+00 0.  1.
     999900   -1    0    0    0    0 -0.00000000000E+00 -0.00000000000E+00 -0.74505805969E-08  0.93827000000E+00  0.93827000000E+00 0. -1.
     999902    2    1    2    0    0 -0.11695977168E-01 -0.71500961645E-02  0.18819101769E-02  0.10300930443E+01  0.10300001061E+01 0.  0.
     999903    2    3    3    0    0 -0.47944313284E-01 -0.12507875815E+00  0.28579753560E-03  0.14148533628E+00  0.45548499259E-01 0.  0.
         14    1    1    2    0    0  0.11695977168E-01  0.71500961645E-02 -0.18819101769E-02  0.13836955698E-01  0.00000000000E+00 0. -1.
     999901    1    3    3    0    0  0.36248336116E-01  0.11792866198E+00  0.15961126413E-02  0.88860770803E+00  0.88000000000E+00 0. -1.
        -11    1    4    4    0    0 -0.26417913070E-01 -0.38159560549E-01 -0.18541226961E-01  0.49980960480E-01  0.51100000000E-03 0. -1.
         11    1    4    4    0    0 -0.21526400214E-01 -0.86919197598E-01  0.18827024497E-01  0.91504375796E-01  0.51100000000E-03 0.  1.
</event>
<event>
 7    1  0.2123879E+004  0.1043930E+01  0.7957747E-01            NaN
         13   -1    0    0    0    0  0.00000000000E+00  0.00000000000E+00  0.74505805969E-08  0.10566000000E+00  0.10566000000E+00 0.  1.
     999900   -1    0    0    0    0 -0.00000000000E+00 -0.00000000000E+00 -0.74505805969E-08  0.93827000000E+00  0.93827000000E+00 0. -1.
     999903    2    1    2    0    0  0.14526590098E-01  0.75991256465E-01 -0.79860929408E-01  0.11978756494E+00  0.44560069440E-01 0.  0.
         14    1    1    2    0    0 -0.76263550206E-02 -0.15248510459E-02 -0.32894762659E-01  0.33801654871E-01  0.00000000000E+00 0. -1.
     999901    1    1    2    0    0 -0.69002350773E-02 -0.74466405419E-01  0.11275569207E+00  0.89034078019E+00  0.88000000000E+00 0. -1.
        -11    1    3    3    0    0  0.14300257352E-01  0.60704244314E-01 -0.33139681588E-01  0.70625790295E-01  0.51100000000E-03 0. -1.
         11    1    3    3    0    0  0.22633274587E-03  0.15287012152E-01 -0.46721247821E-01  0.49161774642E-01  0.51100000000E-03 0.  1.
</event>
<event>
 8    1  0.2123879E+004  0.1043930E+01  0.7957747E-01            NaN
         13   -1    0    0    0    0  0.00000000000E+00  0.00000000000E+00  0.74505805969E-08  0.10566000000E+00  0.10566000000E+00 0.  1.
     999900   -1    0    0    0    0 -0.00000000000E+00 -0.00000000000E+00 -0.74505805969E-08  0.93827000000E+00  0.93827000000E+00 0.  1.
     999902    2    1    2    0    0 -0.37985109445E-02 -0.85482799981E-02 -0.10640509606E-01  0.10297623530E+01  0.10296648879E+01 0.  0.
     999903    2    3    3    0    0  0.10725971069E+00 -0.77967581031E-01  0.30124374629E-02  0.13996497669E+00  0.44693743315E-01 0.  0.
         14    1    1    2    0    0  0.37985109445E-02  0.85482799981E-02  0.10640509606E-01  0.14167646982E-01  0.00000000000E+00 0.  1.
     999901    1    3    3    0    0 -0.11105822164E+00  0.69419301033E-01 -0.13652947069E-01  0.88979737632E+00  0.88000000000E+00 0. -1.
        -11    1    4    4    0    0  0.52388096350E-01 -0.62897265571E-01 -0.71063517176E-02  0.82166538270E-01  0.51100000000E-03 0.  1.
         11    1    4    4    0    0  0.54871614344E-01 -0.15070315460E-01  0.10118789180E-01  0.57798438424E-01  0.51100000000E-03 0. -1.
</event>
<event>
 8    1  0.2123879E+004  0.1043930E+01  0.7957747E-01            NaN
         13   -1    0    0    0    0  0.00000000000E+00  0.00000000000E+00  0.74505805969E-08  0.10566000000E+00  0.10566000000E+00 0. -1.
     999900   -1    0    0    0    0 -0.00000000000E+00 -0.00000000000E+00 -0.74505805969E-08  0.93827000000E+00  0.93827000000E+00 0. -1.
     999902    2    1    2    0    0 -0.91587336160E-02 -0.25868273044E-02 -0.36497181223E-02  0.10337371339E+01  0.10336868808E+01 0.  0.
     999903    2    3    3    0    0 -0.39329970640E-01 -0.62784594033E-01 -0.11571562324E+00  0.14407829943E+00  0.43355496392E-01 0.  0.
         14    1    1    2    0    0  0.91587336160E-02  0.25868273044E-02  0.36497181223E-02  0.10192866100E-01  0.00000000000E+00 0. -1.
     999901    1    3    3    0    0  0.30171237024E-01  0.60197766728E-01  0.11206590511E+00  0.88965883447E+00  0.88000000000E+00 0.  1.
        -11    1    4    4    0    0 -0.12616876347E-02 -0.36592081427E-01 -0.70411494249E-01  0.79363794782E-01  0.51100000000E-03 0.  1.
         11    1    4    4    0    0 -0.38068283005E-01 -0.26192512606E-01 -0.45304128987E-01  0.64714504648E-01  0.51100000000E-03 0. -1.
</event>
<event>
 8    1  0.2123879E+004  0.1043930E+01  0.7957747E-01            NaN
         13   -1    0    0    0    0  0.00000000000E+00  0.00000000000E+00  0.74505805969E-08  0.10566000000E+00  0.10566000000E+00 0.  1.
     999900   -1    0    0    0    0 -0.00000000000E+00 -0.00000000000E+00 -0.74505805969E-08  0.93827000000E+00  0.93827000000E+00 0. -1.
     999902    2    1    2    0    0  0.13437030573E-02  0.77368543943E-02  0.11453770583E-01  0.10300428363E+01  0.10299492179E+01 0.  0.
     999903    2    3    3    0    0 -0.45551025428E-01 -0.10799059903E+00  0.61565899938E-01  0.13981635699E+00  0.44959851531E-01 0.  0.
         14    1    1    2    0    0 -0.13437030573E-02 -0.77368543943E-02 -0.11453770583E-01  0.13887163655E-01  0.00000000000E+00 0. -1.
     999901    1    3    3    0    0  0.46894728486E-01  0.11572745343E+00 -0.50112129355E-01  0.89022647936E+00  0.88000000000E+00 0.  1.
        -11    1    4    4    0    0  0.82338310970E-02 -0.25472202033E-01  0.16896297705E-01  0.31660307138E-01  0.51100000000E-03 0.  1.
         11    1    4    4    0    0 -0.53784856525E-01 -0.82518397000E-01  0.44669602233E-01  0.10815604985E+00  0.51100000000E-03 0. -1.
</event>
<event>
 8    1  0.2123879E+004  0.1043930E+01  0.7957747E-01            NaN
         13   -1    0    0    0    0  0.00000000000E+00  0.00000000000E+00  0.74505805969E-08  0.10566000000E+00  0.10566000000E+00 0.  1.
     999900   -1    0    0    0    0 -0.00000000000E+00 -0.00000000000E+00 -0.74505805969E-08  0.93827000000E+00  0.93827000000E+00 0.  1.
     999902    2    1    2    0    0  0.12417464608E-01  0.34198951505E-02  0.11995902482E-02  0.10309944626E+01  0.10309133105E+01 0.  0.
     999903    2    3    3    0    0  0.10891405966E+00 -0.35345126848E-01 -0.70405333066E-01  0.14198288519E+00  0.45723936623E-01 0.  0.
         14    1    1    2    0    0 -0.12417464608E-01 -0.34198951505E-02 -0.11995902482E-02  0.12935537364E-01  0.00000000000E+00 0. -1.
     999901    1    3    3    0    0 -0.96496595049E-01  0.38765021999E-01  0.71604923314E-01  0.88901157744E+00  0.88000000000E+00 0. -1.
        -11    1    4    4    0    0  0.67211120573E-01 -0.11321580179E-01 -0.17318317945E-01  0.70325657934E-01  0.51100000000E-03 0.  1.
         11    1    4    4    0    0  0.41702939085E-01 -0.24023546670E-01 -0.53087015121E-01  0.71657227258E-01  0.51100000000E-03 0. -1.
</event>
<event>
 8    1  0.2123879E+004  0.1043930E+01  0.7957747E-01            NaN
         13   -1    0    0    0    0  0.00000000000E+00  0.00000000000E+00  0.74505805969E-08  0.10566000000E+00  0.10566000000E+00 0.  1.
     999900   -1    0    0    0    0 -0.00000000000E+00 -0.00000000000E+00 -0.74505805969E-08  0.93827000000E+00  0.93827000000E+00 0.  1.
     999902    2    1    2    0    0  0.15785931572E-01  0.70010433950E-02 -0.60633085944E-02  0.10256277063E+01  0.10254643914E+01 0.  0.
     999903    2    3    3    0    0  0.10517360955E+00  0.66736021373E-01 -0.40915355873E-01  0.13839995099E+00  0.44331652256E-01 0.  0.
         14    1    1    2    0    0 -0.15785931572E-01 -0.70010433950E-02  0.60633085944E-02  0.18302293717E-01  0.00000000000E+00 0.  1.
     999901    1    3    3    0    0 -0.89387677981E-01 -0.59734977979E-01  0.34852047278E-01  0.88722775530E+00  0.88000000000E+00 0. -1.
        -11    1    4    4    0    0  0.16252378655E-01  0.31934939716E-01 -0.18432118860E-01  0.40298688729E-01  0.51100000000E-03 0. -1.
         11    1    4    4    0    0  0.88921230897E-01  0.34801081657E-01 -0.22483237013E-01  0.98101262257E-01  0.51100000000E-03 0.  1.
</event>
<event>
 8    1  0.2123879E+004  0.1043930E+01  0.7957747E-01            NaN
         13   -1    0    0    0    0  0.00000000000E+00  0.00000000000E+00  0.74505805969E-08  0.10566000000E+00  0.10566000000E+00 0. -1.
     999900   -1    0    0    0    0 -0.00000000000E+00 -0.00000000000E+00 -0.74505805969E-08  0.93827000000E+00  0.93827000000E+00 0.  1.
     999902    2    1    2    0    0  0.26849819711E-02 -0.12983851341E-01 -0.12106791534E-02  0.10306162752E+01  0.10305302768E+01 0.  0.
     999903    2    3    3    0    0 -0.91693916424E-02 -0.76429695056E-01  0.11039016149E+00  0.14122285894E+00  0.42805748505E-01 0.  0.
         14    1    1    2    0    0 -0.26849819711E-02  0.12983851341E-01  0.12106791534E-02  0.13313724793E-01  0.00000000000E+00 0.  1.
     999901    1    3    3    0    0  0.11854373614E-01  0.63445843715E-01 -0.11160084064E+00  0.88939341626E+00  0.88000000000E+00 0.  1.
        -11    1    4    4    0    0  0.94906193611E-02 -0.23173638398E-01  0.62057130625E-01  0.66921132349E-01  0.51100000000E-03 0. -1.
         11    1    4    4    0    0 -0.18660011004E-01 -0.53256056658E-01  0.48333030866E-01  0.74301726596E-01  0.51100000000E-03 0.  1.
</event>
<event>
 8    1  0.2123879E+004  0.1043930E+01  0.7957747E-01            NaN
         13   -1    0    0    0    0  0.00000000000E+00  0.00000000000E+00  0.74505805969E-08  0.10566000000E+00  0.10566000000E+00 0. -1.
     999900   -1    0    0    0    0 -0.00000000000E+00 -0.00000000000E+00 -0.74505805969E-08  0.93827000000E+00  0.93827000000E+00 0. -1.
     999902    2    1    2    0    0 -0.11357986819E-02 -0.89714732482E-02 -0.13167339455E-01  0.10279563905E+01  0.10278322746E+01 0.  0.
     999903    2    3    3    0    0 -0.77152410761E-01  0.80247733546E-01 -0.69030644240E-01  0.13842881874E+00  0.44778508098E-01 0.  0.
         14    1    1    2    0    0  0.11357986819E-02  0.89714732482E-02  0.13167339455E-01  0.15973609461E-01  0.00000000000E+00 0. -1.
     999901    1    3    3    0    0  0.76016612079E-01 -0.89219206794E-01  0.55863304784E-01  0.88952757180E+00  0.88000000000E+00 0. -1.
        -11    1    4    4    0    0 -0.29916393316E-01  0.49107395432E-02 -0.11040975311E-01  0.32268718733E-01  0.51100000000E-03 0. -1.
         11    1    4    4    0    0 -0.47236017446E-01  0.75336994003E-01 -0.57989668929E-01  0.10616010000E+00  0.51100000000E-03 0.  1.
</event>
<event>
 8    1  0.2123879E+004  0.1043930E+01  0.7957747E-01            NaN
         13   -1    0    0    0    0  0.00000000000E+00  0.00000000000E+00  0.74505805969E-08  0.10566000000E+00  0.10566000000E+00 0.  1.
     999900   -1    0    0    0    0 -0.00000000000E+00 -0.00000000000E+00 -0.74505805969E-08  0.93827000000E+00  0.93827000000E+00 0. -1.
     999902    2    1    2    0    0 -0.98727329990E-02 -0.10527125052E-01  0.51374920223E-02  0.10286105665E+01  0.10284964815E+01 0.  0.
     999903    2    3    3    0    0 -0.91343830959E-01  0.93087642421E-01  0.14190135045E-01  0.13874793092E+00  0.45173263953E-01 0.  0.
         14    1    1    2    0    0  0.98727329990E-02  0.10527125052E-01 -0.51374920223E-02  0.15319433508E-01  0.00000000000E+00 0.  1.
     999901    1    3    3    0    0  0.81471097960E-01 -0.10361476747E+00 -0.90526430225E-02  0.88986263557E+00  0.88000000000E+00 0. -1.
        -11    1    4    4    0    0 -0.61142288763E-02  0.32744471915E-01  0.72044787045E-02  0.34084452030E-01  0.51100000000E-03 0. -1.
         11    1    4    4    0    0 -0.85229602083E-01  0.60343170505E-01  0.69856563404E-02  0.10466347889E+00  0.51100000000E-03 0.  1.
</event>
<event>
 8    1  0.2123879E+004  0.1043930E+01  0.7957747E-01            NaN
         13   -1    0    0    0    0  0.00000000000E+00  0.00000000000E+00  0.74505805969E-08  0.10566000000E+00  0.10566000000E+00 0. -1.
     999900   -1    0    0    0    0 -0.00000000000E+00 -0.00000000000E+00 -0.74505805969E-08  0.93827000000E+00  0.93827000000E+00 0. -1.
     999902    2    1    2    0    0  0.31572257776E-02  0.97772076130E-02 -0.77930477273E-02  0.10310345180E+01  0.10309538709E+01 0.  0.
     999903    2    3    3    0    0  0.34860759937E-01 -0.89727396284E-01  0.90173950718E-01  0.13946073358E+00  0.45295436791E-01 0.  0.
         14    1    1    2    0    0 -0.31572257776E-02 -0.97772076130E-02  0.77930477273E-02  0.12895482007E-01  0.00000000000E+00 0. -1.
     999901    1    3    3    0    0 -0.31703534159E-01  0.99504603897E-01 -0.97966998446E-01  0.89157378442E+00  0.88000000000E+00 0. -1.
        -11    1    4    4    0    0  0.41050302805E-01 -0.85917668175E-01  0.70496808660E-01  0.11847799043E+00  0.51100000000E-03 0.  1.
         11    1    4    4    0    0 -0.61895428680E-02 -0.38097281087E-02  0.19677142058E-01  0.20982743142E-01  0.51100000000E-03 0. -1.
</event>
<event>
 8    1  0.2123879E+004  0.1043930E+01  0.7957747E-01            NaN
         13   -1    0    0    0    0  0.00000000000E+00  0.00000000000E+00  0.74505805969E-08  0.10566000000E+00  0.10566000000E+00 0. -1.
     999900   -1    0    0    0    0 -0.00000000000E+00 -0.00000000000E+00 -0.74505805969E-08  0.93827000000E+00  0.93827000000E+00 0.  1.
     999902    2    1    2    0    0  0.52045281878E-02 -0.12049464187E-01  0.35861163726E-02  0.10303234967E+01  0.10302336487E+01 0.  0.
     999903    2    3    3    0    0  0.75046203942E-02 -0.10754789393E+00 -0.79011203047E-01  0.14130856002E+00  0.45852700151E-01 0.  0.
         14    1    1    2    0    0 -0.52045281878E-02  0.12049464187E-01 -0.35861163726E-02  0.13606503279E-01  0.00000000000E+00 0. -1.
     999901    1    3    3    0    0 -0.23000922064E-02  0.95498429742E-01  0.82597319420E-01  0.88901493670E+00  0.88000000000E+00 0. -1.
        -11    1    4    4    0    0 -0.14258520663E-01 -0.48721213596E-01 -0.18162621578E-01  0.53918494131E-01  0.51100000000E-03 0.  1.
         11    1    4    4    0    0  0.21763141057E-01 -0.58826680333E-01 -0.60848581469E-01  0.87390065886E-01  0.51100000000E-03 0. -1.
</event>
<event>
 8    1  0.2123879E+004  0.1043930E+01  0.7957747E-01            NaN
         13   -1    0    0    0    0  0.00000000000E+00  0.00000000000E+00  0.74505805969E-08  0.10566000000E+00  0.10566000000E+00 0.  1.
     999900   -1    0    0    0    0 -0.00000000000E+00 -0.00000000000E+00 -0.74505805969E-08  0.93827000000E+00  0.93827000000E+00 0. -1.
     999902    2    1    2    0    0 -0.99571974364E-02  0.16495182363E-02 -0.68266903376E-02  0.10317451573E+01  0.10316732037E+01 0.  0.
     999903    2    3    3    0    0 -0.35428545141E-02  0.99207601030E-01 -0.94846605139E-01  0.14196640460E+00  0.36109300860E-01 0.  0.
         14    1    1    2    0    0  0.99571974364E-02 -0.16495182363E-02  0.68266903376E-02  0.12184842722E-01  0.00000000000E+00 0. -1.
     999901    1    3    3    0    0 -0.64143429223E-02 -0.97558082794E-01  0.88019914801E-01  0.88977875268E+00  0.88000000000E+00 0.  1.
        -11    1    4    4    0    0  0.66529576298E-02  0.16875958585E-02 -0.10880719902E-01  0.12874820837E-01  0.51100000000E-03 0.  1.
         11    1    4    4    0    0 -0.10195812144E-01  0.97520005172E-01 -0.83965885237E-01  0.12909158376E+00  0.51100000000E-03 0. -1.
</event>
<event>
 8    1  0.2123879E+004  0.1043930E+01  0.7957747E-01            NaN
         13   -1    0    0    0    0  0.00000000000E+00  0.00000000000E+00  0.74505805969E-08  0.10566000000E+00  0.10566000000E+00 0. -1.
     999900   -1    0    0    0    0 -0.00000000000E+00 -0.00000000000E+00 -0.74505805969E-08  0.93827000000E+00  0.93827000000E+00 0.  1.
     999902    2    1    2    0    0 -0.33595265310E-02  0.82282381670E-02 -0.10289769585E-01  0.10303333210E+01  0.10302436036E+01 0.  0.
     999903    2    3    3    0    0  0.59577937740E-01  0.11854393364E+00 -0.19765559535E-01  0.14116490744E+00  0.43984757355E-01 0.  0.
         14    1    1    2    0    0  0.33595265310E-02 -0.82282381670E-02  0.10289769585E-01  0.13596679004E-01  0.00000000000E+00 0. -1.
     999901    1    3    3    0    0 -0.62937464271E-01 -0.11031569547E+00  0.94757899504E-02  0.88916841356E+00  0.88000000000E+00 0. -1.
        -11    1    4    4    0    0  0.80761938327E-02  0.40122684851E-01  0.11077570608E-01  0.42403165425E-01  0.51100000000E-03 0. -1.
         11    1    4    4    0    0  0.51501743907E-01  0.78421248789E-01 -0.30843130143E-01  0.98761742011E-01  0.51100000000E-03 0.  1.
</event>
<event>
 8    1  0.2123879E+004  0.1043930E+01  0.7957747E-01            NaN
         13   -1    0    0    0    0  0.00000000000E+00  0.00000000000E+00  0.74505805969E-08  0.10566000000E+00  0.10566000000E+00 0. -1.
     999900   -1    0    0    0    0 -0.00000000000E+00 -0.00000000000E+00 -0.74505805969E-08  0.93827000000E+00  0.93827000000E+00 0. -1.
     999902    2    1    2    0    0  0.93036824048E-02 -0.23101500303E-02  0.30541937856E-02  0.10338690160E+01  0.10338200612E+01 0.  0.
     999903    2    3    3    0    0  0.41095660545E-01  0.33644477627E-01  0.12634340933E+00  0.14397930609E+00  0.44120055662E-01 0.  0.
         14    1    1    2    0    0 -0.93036824048E-02  0.23101500303E-02 -0.30541937856E-02  0.10060984004E-01  0.00000000000E+00 0. -1.
     999901    1    3    3    0    0 -0.31791978140E-01 -0.35954627657E-01 -0.12328921554E+00  0.88988970990E+00  0.88000000000E+00 0. -1.
        -11    1    4    4    0    0  0.22364616980E-01  0.90720413656E-02  0.14985045224E-01  0.28412862027E-01  0.51100000000E-03 0.  1.
         11    1    4    4    0    0  0.18731043565E-01  0.24572436261E-01  0.11135836410E+00  0.11556644407E+00  0.51100000000E-03 0. -1.
</event>
<event>
 8    1  0.2123879E+004  0.1043930E+01  0.7957747E-01            NaN
         13   -1    0    0    0    0  0.00000000000E+00  0.00000000000E+00  0.74505805969E-08  0.10566000000E+00  0.10566000000E+00 0.  1.
     999900   -1    0    0    0    0 -0.00000000000E+00 -0.00000000000E+00 -0.74505805969E-08  0.93827000000E+00  0.93827000000E+00 0.  1.
     999902    2    1    2    0    0 -0.12530125860E-01  0.30154526980E-02 -0.48365920867E-02  0.10301644767E+01  0.10300725020E+01 0.  0.
     999903    2    3    3    0    0 -0.11967017589E+00  0.84917021439E-02  0.59269934775E-01  0.14133455684E+00  0.45491447406E-01 0.  0.
         14    1    1    2    0    0  0.12530125860E-01 -0.30154526980E-02  0.48365920867E-02  0.13765523312E-01  0.00000000000E+00 0.  1.
     999901    1    3    3    0    0  0.10714005003E+00 -0.54762494459E-02 -0.64106526861E-01  0.88882991985E+00  0.88000000000E+00 0.  1.
        -11    1    4    4    0    0 -0.68044025646E-01  0.15286564829E-01  0.55489547785E-01  0.89123619343E-01  0.51100000000E-03 0. -1.
         11    1    4    4    0    0 -0.51626150242E-01 -0.67948626851E-02  0.37803869896E-02  0.52210937499E-01  0.51100000000E-03 0.  1.
</event>
<event>
 8    1  0.2123879E+004  0.1043930E+01  0.7957747E-01            NaN
         13   -1    0    0    0    0  0.00000000000E+00  0.00000000000E+00  0.74505805969E-08  0.10566000000E+00  0.10566000000E+00 0. -1.
     999900   -1    0    0    0    0 -0.00000000000E+00 -0.00000000000E+00 -0.74505805969E-08  0.93827000000E+00  0.93827000000E+00 0. -1.
     999902    2    1    2    0    0 -0.13983956654E-02 -0.84426619168E-02  0.11023529948E-01  0.10299746332E+01  0.10298800866E+01 0.  0.
     999903    2    3    3    0    0 -0.13619830043E-01  0.12742949341E+00 -0.27731069658E-01  0.13862031247E+00  0.44975584978E-01 0.  0.
         14    1    1    2    0    0  0.13983956654E-02  0.84426619168E-02 -0.11023529948E-01  0.13955366824E-01  0.00000000000E+00 0.  1.
     999901    1    3    3    0    0  0.12221434378E-01 -0.13587215533E+00  0.38754599606E-01  0.89135432071E+00  0.88000000000E+00 0.  1.
        -11    1    4    4    0    0 -0.65719202158E-02  0.51024989116E-01 -0.33945567330E-01  0.61638480773E-01  0.51100000000E-03 0. -1.
         11    1    4    4    0    0 -0.70479098272E-02  0.76404504292E-01  0.62144976722E-02  0.76981831697E-01  0.51100000000E-03 0.  1.
</event>
<event>
 8    1  0.2123879E+004  0.1043930E+01  0.7957747E-01            NaN
         13   -1    0    0    0    0  0.00000000000E+00  0.00000000000E+00  0.74505805969E-08  0.10566000000E+00  0.10566000000E+00 0. -1.
     999900   -1    0    0    0    0 -0.00000000000E+00 -0.00000000000E+00 -0.74505805969E-08  0.93827000000E+00  0.93827000000E+00 0. -1.
     999902    2    1    2    0    0  0.12539369141E-01  0.48567259502E-02  0.53641976678E-02  0.10294524939E+01  0.10293506881E+01 0.  0.
     999903    2    3    3    0    0  0.12402752286E+00 -0.48176950080E-01 -0.19768317387E-02  0.14080404267E+00  0.46022012376E-01 0.  0.
         14    1    1    2    0    0 -0.12539369141E-01 -0.48567259502E-02 -0.53641976678E-02  0.14477506071E-01  0.00000000000E+00 0.  1.
     999901    1    3    3    0    0 -0.11148815372E+00  0.53033676030E-01  0.73410294065E-02  0.88864845126E+00  0.88000000000E+00 0. -1.
        -11    1    4    4    0    0  0.47039655927E-01 -0.41625003921E-01  0.61270930779E-02  0.63112380495E-01  0.51100000000E-03 0. -1.
         11    1    4    4    0    0  0.76987866931E-01 -0.65519461590E-02 -0.81039248166E-02  0.77691662175E-01  0.51100000000E-03 0.  1.
</event>
<event>
 8    1  0.2123879E+004  0.1043930E+01  0.7957747E-01            NaN
         13   -1    0    0    0    0  0.00000000000E+00  0.00000000000E+00  0.74505805969E-08  0.10566000000E+00  0.10566000000E+00 0. -1.
     999900   -1    0    0    0    0 -0.00000000000E+00 -0.00000000000E+00 -0.74505805969E-08  0.93827000000E+00  0.93827000000E+00 0.  1.
     999902    2    1    2    0    0 -0.14070067216E-02  0.18895971023E-02  0.13205233239E-01  0.10305162597E+01  0.10304289558E+01 0.  0.
     999903    2    3    3    0    0  0.86424281938E-01 -0.98719935257E-01 -0.16827273020E-01  0.13993298747E+00  0.45643200353E-01 0.  0.
         14    1    1    2    0    0  0.14070067216E-02 -0.18895971023E-02 -0.13205233239E-01  0.13413740344E-01  0.00000000000E+00 0.  1.
     999901    1    3    3    0    0 -0.87831288660E-01  0.10060953236E+00  0.30032506259E-01  0.89058327219E+00  0.88000000000E+00 0. -1.
        -11    1    4    4    0    0  0.74704140969E-02 -0.99408239853E-02 -0.17067568740E-01  0.21123212161E-01  0.51100000000E-03 0. -1.
         11    1    4    4    0    0  0.78953867842E-01 -0.88779111272E-01  0.24029572054E-03  0.11880977531E+00  0.51100000000E-03 0.  1.
</event>
<event>
 8    1  0.2123879E+004  0.1043930E+01  0.7957747E-01            NaN
         13   -1    0    0    0    0  0.00000000000E+00  0.00000000000E+00  0.74505805969E-08  0.10566000000E+00  0.10566000000E+00 0.  1.
     999900   -1    0    0    0    0 -0.00000000000E+00 -0.00000000000E+00 -0.74505805969E-08  0.93827000000E+00  0.93827000000E+00 0. -1.
     999902    2    1    2    0    0 -0.13950693549E-01 -0.43868255697E-02 -0.34261169468E-02  0.10289098680E+01  0.10288002294E+01 0.  0.
     999903    2    3    3    0    0 -0.54531138343E-01 -0.11153432648E+00  0.46863884421E-01  0.14005867474E+00  0.44795732773E-01 0.  0.
         14    1    1    2    0    0  0.13950693549E-01  0.43868255697E-02  0.34261169468E-02  0.15020132037E-01  0.00000000000E+00 0.  1.
     999901    1    3    3    0    0  0.40580444795E-01  0.10714750091E+00 -0.50290001368E-01  0.88885119322E+00  0.88000000000E+00 0. -1.
        -11    1    4    4    0    0 -0.17494678696E-01 -0.17487440748E-01 -0.67447475424E-02  0.25644241206E-01  0.51100000000E-03 0.  1.
         11    1    4    4    0    0 -0.37036459647E-01 -0.94046885735E-01  0.53608631963E-01  0.11441443354E+00  0.51100000000E-03 0. -1.
</event>
<event>
 8    1  0.2123879E+004  0.1043930E+01  0.7957747E-01            NaN
         13   -1    0    0    0    0  0.00000000000E+00  0.00000000000E+00  0.74505805969E-08  0.10566000000E+00  0.10566000000E+00 0. -1.
     999900   -1    0    0    0    0 -0.00000000000E+00 -0.00000000000E+00 -0.74505805969E-08  0.93827000000E+00  0.93827000000E+00 0.  1.
     999902    2    1    2    0    0 -0.10679566277E-01 -0.23566512947E-02  0.89852748376E-02  0.10297757743E+01  0.10296784951E+01 0.  0.
     999903    2    3    3    0    0 -0.76692960051E-01 -0.88868090349E-01 -0.62472365170E-01  0.14019823886E+00  0.44422991416E-01 0.  0.
         14    1    1    2    0    0  0.10679566277E-01  0.23566512947E-02 -0.89852748376E-02  0.14154225698E-01  0.00000000000E+00 0.  1.
     999901    1    3    3    0    0  0.66013393774E-01  0.86511439054E-01  0.71457640008E-01  0.88957753544E+00  0.88000000000E+00 0.  1.
        -11    1    4    4    0    0 -0.68721355809E-01 -0.63567009513E-01 -0.30083238800E-01  0.98329302959E-01  0.51100000000E-03 0.  1.
         11    1    4    4    0    0 -0.79716042425E-02 -0.25301080835E-01 -0.32389126370E-01  0.41868935903E-01  0.51100000000E-03 0. -1.
</event>
<event>
 8    1  0.2123879E+004  0.1043930E+01  0.7957747E-01            NaN
         13   -1    0    0    0    0  0.00000000000E+00  0.00000000000E+00  0.74505805969E-08  0.10566000000E+00  0.10566000000E+00 0.  1.
     999900   -1    0    0    0    0 -0.00000000000E+00 -0.00000000000E+00 -0.74505805969E-08  0.93827000000E+00  0.93827000000E+00 0. -1.
     999902    2    1    2    0    0 -0.10754981052E-02 -0.91006262568E-05  0.14083036309E-01  0.10298059535E+01  0.10297090915E+01 0.  0.
     999903    2    3    3    0    0  0.11899406208E-01  0.93306644018E-02  0.13413551900E+00  0.14151085725E+00  0.42477383331E-01 0.  0.
         14    1    1    2    0    0  0.10754981052E-02  0.91006262568E-05 -0.14083036309E-01  0.14124046540E-01  0.00000000000E+00 0. -1.
     999901    1    3    3    0    0 -0.12974904313E-01 -0.93397650281E-02 -0.12005248269E+00  0.88829509621E+00  0.88000000000E+00 0. -1.
        -11    1    4    4    0    0  0.16815827757E-01  0.23885553908E-01  0.97448845853E-01  0.10173411634E+00  0.51100000000E-03 0.  1.
         11    1    4    4    0    0 -0.49164215486E-02 -0.14554889506E-01  0.36686673150E-01  0.39776740907E-01  0.51100000000E-03 0. -1.
</event>
<event>
 8    1  0.2123879E+004  0.1043930E+01  0.7957747E-01            NaN
         13   -1    0    0    0    0  0.00000000000E+00  0.00000000000E+00  0.74505805969E-08  0.10566000000E+00  0.10566000000E+00 0.  1.
     999900   -1    0    0    0    0 -0.00000000000E+00 -0.00000000000E+00 -0.74505805969E-08  0.93827000000E+00  0.93827000000E+00 0. -1.
     999902    2    1    2    0    0  0.52145539141E-02  0.56042197460E-02 -0.11167734808E-01  0.10303905335E+01  0.10303015745E+01 0.  0.
     999903    2    3    3    0    0 -0.70550119107E-01 -0.93972376360E-01 -0.61766828869E-01  0.14010066361E+00  0.44776422034E-01 0.  0.
         14    1    1    2    0    0 -0.52145539141E-02 -0.56042197460E-02  0.11167734808E-01  0.13539466467E-01  0.00000000000E+00 0.  1.
     999901    1    3    3    0    0  0.75764673021E-01  0.99576596106E-01  0.50599094061E-01  0.89028986992E+00  0.88000000000E+00 0. -1.
        -11    1    4    4    0    0 -0.63076586351E-01 -0.91491527417E-01 -0.67790159848E-01  0.13017343134E+00  0.51100000000E-03 0.  1.
         11    1    4    4    0    0 -0.74735327566E-02 -0.24808489426E-02  0.60233309789E-02  0.99272322639E-02  0.51100000000E-03 0. -1.
</event>
<event>
 8    1  0.2123879E+004  0.1043930E+01  0.7957747E-01            NaN
         13   -1    0    0    0    0  0.00000000000E+00  0.00000000000E+00  0.74505805969E-08  0.10566000000E+00  0.10566000000E+00 0. -1.
     999900   -1    0    0    0    0 -0.00000000000E+00 -0.00000000000E+00 -0.74505805969E-08  0.93827000000E+00  0.93827000000E+00 0.  1.
     999902    2    1    2    0    0 -0.11553443291E-02 -0.31190461596E-02  0.12207791514E-01  0.10312771962E+01  0.10311995743E+01 0.  0.
     999903    2    3    3    0    0 -0.64081387527E-01  0.50168047736E-01 -0.10395420402E+00  0.13982175119E+00  0.46047674546E-01 0.  0.
         14    1    1    2    0    0  0.11553443291E-02  0.31190461596E-02 -0.12207791514E-01  0.12652803765E-01  0.00000000000E+00 0.  1.
     999901    1    3    3    0    0  0.62926043198E-01 -0.53287093896E-01  0.11616199554E+00  0.89145544504E+00  0.88000000000E+00 0.  1.
        -11    1    4    4    0    0 -0.42365371329E-01  0.31298498747E-01 -0.96750199628E-01  0.11016026035E+00  0.51100000000E-03 0. -1.
         11    1    4    4    0    0 -0.21716016198E-01  0.18869548989E-01 -0.72040043966E-02  0.29661490841E-01  0.51100000000E-03 0.  1.
</event>
<event>
 8    1  0.2123879E+004  0.1043930E+01  0.7957747E-01            NaN
         13   -1    0    0    0    0  0.00000000000E+00  0.00000000000E+00  0.74505805969E-08  0.10566000000E+00  0.10566000000E+00 0.  1.
     999900   -1    0    0    0    0 -0.00000000000E+00 -0.00000000000E+00 -0.74505805969E-08  0.93827000000E+00  0.93827000000E+00 0.  1.
     999902    2    1    2    0    0  0.32089623004E-02  0.34921482710E-02 -0.12376943759E-01  0.10306755187E+01  0.10305902889E+01 0.  0.
     999903    2    3    3    0    0  0.10077566316E+00 -0.24394289900E-01 -0.86605977155E-01  0.14173971449E+00  0.42880481786E-01 0.  0.
         14    1    1    2    0    0 -0.32089623004E-02 -0.34921482710E-02  0.12376943759E-01  0.13254481333E-01  0.00000000000E+00 0.  1.
     999901    1    3    3    0    0 -0.97566700864E-01  0.27886438171E-01  0.74229033396E-01  0.88893580418E+00  0.88000000000E+00 0.  1.
        -11    1    4    4    0    0  0.66128505510E-01 -0.20537317151E-01 -0.30460091508E-01  0.75649447668E-01  0.51100000000E-03 0.  1.
         11    1    4    4    0    0  0.34647157654E-01 -0.38569727492E-02 -0.56145885647E-01  0.66090266821E-01  0.51100000000E-03 0. -1.
</event>
<event>
 8    1  0.2123879E+004  0.1043930E+01  0.7957747E-01            NaN
         13   -1    0    0    0    0  0.00000000000E+00  0.00000000000E+00  0.74505805969E-08  0.10566000000E+00  0.10566000000E+00 0. -1.
     999900   -1    0    0    0    0 -0.00000000000E+00 -0.00000000000E+00 -0.74505805969E-08  0.93827000000E+00  0.93827000000E+00 0.  1.
     999902    2    1    2    0    0 -0.41529184556E-02 -0.14221476917E-01 -0.79491362733E-02  0.10271167343E+01  0.10269791137E+01 0.  0.
     999903    2    3    3    0    0 -0.57823978114E-01 -0.11846216427E+00 -0.18750104527E-02  0.13931968620E+00  0.45050665792E-01 0.  0.
         14    1    1    2    0    0  0.41529184556E-02  0.14221476917E-01  0.79491362733E-02  0.16813265742E-01  0.00000000000E+00 0.  1.
     999901    1    3    3    0    0  0.53671059658E-01  0.10424068735E+00 -0.60741258206E-02  0.88779704806E+00  0.88000000000E+00 0.  1.
        -11    1    4    4    0    0  0.59572384317E-03 -0.40340991846E-01  0.84520889113E-02  0.41224379170E-01  0.51100000000E-03 0. -1.
         11    1    4    4    0    0 -0.58419701957E-01 -0.78121172426E-01 -0.10327099364E-01  0.98095307025E-01  0.51100000000E-03 0.  1.
</event>
<event>
 8    1  0.2123879E+004  0.1043930E+01  0.7957747E-01            NaN
         13   -1    0    0    0    0  0.00000000000E+00  0.00000000000E+00  0.74505805969E-08  0.10566000000E+00  0.10566000000E+00 0.  1.
     999900   -1    0    0    0    0 -0.00000000000E+00 -0.00000000000E+00 -0.74505805969E-08  0.93827000000E+00  0.93827000000E+00 0.  1.
     999902    2    1    2    0    0  0.86989372751E-02  0.82017210739E-02  0.76888303845E-02  0.10297152946E+01  0.10296171764E+01 0.  0.
     999903    2    3    3    0    0 -0.66765149631E-01 -0.54810453865E-01  0.99909873477E-01  0.13945124193E+00  0.44753714923E-01 0.  0.
         14    1    1    2    0    0 -0.86989372751E-02 -0.82017210739E-02 -0.76888303845E-02  0.14214705448E-01  0.00000000000E+00 0. -1.
     999901    1    3    3    0    0  0.75464086906E-01  0.63012174939E-01 -0.92221043092E-01  0.89026405262E+00  0.88000000000E+00 0.  1.
        -11    1    4    4    0    0 -0.26160966572E-01 -0.31142775746E-02  0.10249666099E-01  0.28273869083E-01  0.51100000000E-03 0.  1.
         11    1    4    4    0    0 -0.40604183059E-01 -0.51696176291E-01  0.89660207378E-01  0.11117737285E+00  0.51100000000E-03 0. -1.
</event>
<event>
 8    1  0.2123879E+004  0.1043930E+01  0.7957747E-01            NaN
         13   -1    0    0    0    0  0.00000000000E+00  0.00000000000E+00  0.74505805969E-08  0.10566000000E+00  0.10566000000E+00 0. -1.
     999900   -1    0    0    0    0 -0.00000000000E+00 -0.00000000000E+00 -0.74505805969E-08  0.93827000000E+00  0.93827000000E+00 0.  1.
     999902    2    1    2    0    0 -0.54663661121E-03 -0.12394592149E-01  0.57745970752E-02  0.10302453116E+01  0.10301544211E+01 0.  0.
     999903    2    3    3    0    0 -0.24766043836E-01 -0.13072852264E+00  0.23074266343E-01  0.14182605393E+00  0.43346329109E-01 0.  0.
         14    1    1    2    0    0  0.54663661121E-03  0.12394592149E-01 -0.57745970752E-02  0.13684688433E-01  0.00000000000E+00 0.  1.
     999901    1    3    3    0    0  0.24219407224E-01  0.11833393049E+00 -0.17299669267E-01  0.88841925764E+00  0.88000000000E+00 0.  1.
        -11    1    4    4    0    0  0.92019477310E-03 -0.30319422841E-01 -0.11683064141E-01  0.32509525813E-01  0.51100000000E-03 0.  1.
         11    1    4    4    0    0 -0.25686238609E-01 -0.10040909979E+00  0.34757330484E-01  0.10931652811E+00  0.51100000000E-03 0. -1.
</event>
<event>
 8    1  0.2123879E+004  0.1043930E+01  0.7957747E-01            NaN
         13   -1    0    0    0    0  0.00000000000E+00  0.00000000000E+00  0.74505805969E-08  0.10566000000E+00  0.10566000000E+00 0. -1.
     999900   -1    0    0    0    0 -0.00000000000E+00 -0.00000000000E+00 -0.74505805969E-08  0.93827000000E+00  0.93827000000E+00 0. -1.
     999902    2    1    2    0    0 -0.54135637395E-04  0.12402549447E-01 -0.58435109847E-02  0.10302196833E+01  0.10301284498E+01 0.  0.
     999903    2    3    3    0    0 -0.29450970234E-01  0.39348953810E-01 -0.12497828063E+00  0.14129709053E+00  0.43927182353E-01 0.  0.
         14    1    1    2    0    0  0.54135637395E-04 -0.12402549447E-01  0.58435109847E-02  0.13710316703E-01  0.00000000000E+00 0. -1.
     999901    1    3    3    0    0  0.29396834597E-01 -0.26946404362E-01  0.11913476965E+00  0.88892259277E+00  0.88000000000E+00 0.  1.
        -11    1    4    4    0    0  0.10612837821E-01  0.58006899054E-02 -0.13223022023E-01  0.17927346776E-01  0.51100000000E-03 0. -1.
         11    1    4    4    0    0 -0.40063808055E-01  0.33548263904E-01 -0.11175525861E+00  0.12336974375E+00  0.51100000000E-03 0.  1.
</event>
<event>
 8    1  0.2123879E+004  0.1043930E+01  0.7957747E-01            NaN
         13   -1    0    0    0    0  0.00000000000E+00  0.00000000000E+00  0.74505805969E-08  0.10566000000E+00  0.10566000000E+00 0.  1.
     999900   -1    0    0    0    0 -0.00000000000E+00 -0.00000000000E+00 -0.74505805969E-08  0.93827000000E+00  0.93827000000E+00 0. -1.
     999902    2    1    2    0    0  0.77980711730E-02 -0.50491400723E-02  0.10843176667E-01  0.10296514073E+01  0.10295523990E+01 0.  0.
     999903    2    3    3    0    0  0.67382317459E-01 -0.61986637969E-01 -0.94916031738E-01  0.13949570673E+00  0.45467341285E-01 0.  0.
         14    1    1    2    0    0 -0.77980711730E-02  0.50491400723E-02 -0.10843176667E-01  0.14278592708E-01  0.00000000000E+00 0. -1.
     999901    1    3    3    0    0 -0.59584246286E-01  0.56937497897E-01  0.10575920841E+00  0.89015570056E+00  0.88000000000E+00 0.  1.
        -11    1    4    4    0    0  0.52310462055E-02 -0.14689246717E-01 -0.42920696192E-01  0.45668206622E-01  0.51100000000E-03 0.  1.
         11    1    4    4    0    0  0.62151271254E-01 -0.47297391252E-01 -0.51995335546E-01  0.93827500112E-01  0.51100000000E-03 0. -1.
</event>
<event>
 8    1  0.2123879E+004  0.1043930E+01  0.7957747E-01            NaN
         13   -1    0    0    0    0  0.00000000000E+00  0.00000000000E+00  0.74505805969E-08  0.10566000000E+00  0.10566000000E+00 0.  1.
     999900   -1    0    0    0    0 -0.00000000000E+00 -0.00000000000E+00 -0.74505805969E-08  0.93827000000E+00  0.93827000000E+00 0.  1.
     999902    2    1    2    0    0 -0.12152226232E-01  0.56540006625E-03 -0.57333506238E-02  0.10304812979E+01  0.10303935353E+01 0.  0.
     999903    2    3    3    0    0  0.54629811866E-01  0.57297474585E-01  0.10529769056E+00  0.13918658735E+00  0.44920880697E-01 0.  0.
         14    1    1    2    0    0  0.12152226232E-01 -0.56540006625E-03  0.57333506238E-02  0.13448702130E-01  0.00000000000E+00 0.  1.
     999901    1    3    3    0    0 -0.66782038098E-01 -0.56732074519E-01 -0.11103104118E+00  0.89129471052E+00  0.88000000000E+00 0.  1.
        -11    1    4    4    0    0  0.55841312499E-02  0.37842752954E-01  0.44702884720E-01  0.58837619736E-01  0.51100000000E-03 0.  1.
         11    1    4    4    0    0  0.49045680617E-01  0.19454721631E-01  0.60594805841E-01  0.80348967615E-01  0.51100000000E-03 0. -1.
</event>
<event>
 8    1  0.2123879E+004  0.1043930E+01  0.7957747E-01            NaN
         13   -1    0    0    0    0  0.00000000000E+00  0.00000000000E+00  0.74505805969E-08  0.10566000000E+00  0.10566000000E+00 0.  1.
     999900   -1    0    0    0    0 -0.00000000000E+00 -0.00000000000E+00 -0.74505805969E-08  0.93827000000E+00  0.93827000000E+00 0.  1.
     999902    2    1    2    0    0  0.23612240874E-02 -0.22604547029E-02  0.13799030414E-01  0.10297490877E+01  0.10296514387E+01 0.  0.
     999903    2    3    3    0    0 -0.60856358175E-01 -0.11369620923E+00  0.32043992752E-01  0.14028449097E+00  0.44973287782E-01 0.  0.
         14    1    1    2    0    0 -0.23612240874E-02  0.22604547029E-02 -0.13799030414E-01  0.14180912348E-01  0.00000000000E+00 0. -1.
     999901    1    3    3    0    0  0.63217582262E-01  0.11143575452E+00 -0.18244962338E-01  0.88946459668E+00  0.88000000000E+00 0. -1.
        -11    1    4    4    0    0 -0.58632921784E-02 -0.56253783437E-01  0.19192317520E-01  0.59728322586E-01  0.51100000000E-03 0.  1.
         11    1    4    4    0    0 -0.54993065996E-01 -0.57442425789E-01  0.12851675231E-01  0.80556168388E-01  0.51100000000E-03 0. -1.
</event>
<event>
 8    1  0.2123879E+004  0.1043930E+01  0.7957747E-01            NaN
         13   -1    0    0    0    0  0.00000000000E+00  0.00000000000E+00  0.74505805969E-08  0.10566000000E+00  0.10566000000E+00 0.  1.
     999900   -1    0    0    0    0 -0.00000000000E+00 -0.00000000000E+00 -0.74505805969E-08  0.93827000000E+00  0.93827000000E+00 0. -1.
     999902    2    1    2    0    0 -0.12792467318E-01 -0.42475174709E-02  0.11036828584E-02  0.10304056981E+01  0.10303169396E+01 0.  0.
     999903    2    3    3    0    0  0.36392332090E-01  0.61029739743E-01  0.11176741087E+00  0.13971679314E+00  0.44494911906E-01 0.  0.
         14    1    1    2    0    0  0.12792467318E-01  0.42475174709E-02 -0.11036828584E-02  0.13524301852E-01  0.00000000000E+00 0.  1.
     999901    1    3    3    0    0 -0.49184799408E-01 -0.65277257214E-01 -0.11066372801E+00  0.89068890501E+00  0.88000000000E+00 0. -1.
        -11    1    4    4    0    0  0.36494924262E-02  0.48578669582E-01  0.61877985275E-01  0.78755013276E-01  0.51100000000E-03 0. -1.
         11    1    4    4    0    0  0.32742839664E-01  0.12451070161E-01  0.49889425594E-01  0.60961779867E-01  0.51100000000E-03 0.  1.
</event>
<event>
 8    1  0.2123879E+004  0.1043930E+01  0.7957747E-01            NaN
         13   -1    0    0    0    0  0.00000000000E+00  0.00000000000E+00  0.74505805969E-08  0.10566000000E+00  0.10566000000E+00 0.  1.
     999900   -1    0    0    0    0 -0.00000000000E+00 -0.00000000000E+00 -0.74505805969E-08  0.93827000000E+00  0.93827000000E+00 0. -1.
     999902    2    1    2    0    0  0.11406157602E-01  0.76254307115E-02  0.16218726584E-03  0.10302087053E+01  0.10301173246E+01 0.  0.
     999903    2    3    3    0    0 -0.40955225933E-03 -0.12109423908E+00 -0.52730179449E-01  0.13919469479E+00  0.43939831152E-01 0.  0.
         14    1    1    2    0    0 -0.11406157602E-01 -0.76254307115E-02 -0.16218726584E-03  0.13721294746E-01  0.00000000000E+00 0.  1.
     999901    1    3    3    0    0  0.11815709862E-01  0.12871966979E+00  0.52892366715E-01  0.89101401047E+00  0.88000000000E+00 0.  1.
        -11    1    4    4    0    0  0.47330635069E-03 -0.17324207412E-01 -0.27314512429E-01  0.32352679821E-01  0.51100000000E-03 0. -1.
         11    1    4    4    0    0 -0.88285861002E-03 -0.10377003167E+00 -0.25415667020E-01  0.10684201497E+00  0.51100000000E-03 0.  1.
</event>
<event>
 8    1  0.2123879E+004  0.1043930E+01  0.7957747E-01            NaN
         13   -1    0    0    0    0  0.00000000000E+00  0.00000000000E+00  0.74505805969E-08  0.10566000000E+00  0.10566000000E+00 0. -1.
     999900   -1    0    0    0    0 -0.00000000000E+00 -0.00000000000E+00 -0.74505805969E-08  0.93827000000E+00  0.93827000000E+00 0. -1.
     999902    2    1    2    0    0  0.86424127177E-03  0.14997565695E-01 -0.67651812806E-02  0.10274545162E+01  0.10273224135E+01 0.  0.
     999903    2    3    3    0    0  0.13035186230E+00 -0.24004952634E-02  0.54183216300E-02  0.13772524596E+00  0.44062623403E-01 0.  0.
         14    1    1    2    0    0 -0.86424127177E-03 -0.14997565695E-01  0.67651812806E-02  0.16475483832E-01  0.00000000000E+00 0.  1.
     999901    1    3    3    0    0 -0.12948762103E+00  0.17398060958E-01 -0.12183502911E-01  0.88972927021E+00  0.88000000000E+00 0.  1.
        -11    1    4    4    0    0  0.86053935467E-01  0.19156509968E-01  0.92842401949E-05  0.88161856211E-01  0.51100000000E-03 0. -1.
         11    1    4    4    0    0  0.44297926837E-01 -0.21557005232E-01  0.54090373898E-02  0.49563389746E-01  0.51100000000E-03 0.  1.
</event>
<event>
 8    1  0.2123879E+004  0.1043930E+01  0.7957747E-01            NaN
         13   -1    0    0    0    0  0.00000000000E+00  0.00000000000E+00  0.74505805969E-08  0.10566000000E+00  0.10566000000E+00 0. -1.
     999900   -1    0    0    0    0 -0.00000000000E+00 -0.00000000000E+00 -0.74505805969E-08  0.93827000000E+00  0.93827000000E+00 0.  1.
     999902    2    1    2    0    0  0.11901324756E-01  0.18031139691E-02  0.73280525740E-02  0.10298376934E+01  0.10297412693E+01 0.  0.
     999903    2    3    3    0    0 -0.79866700342E-01 -0.69104735046E-01 -0.77052212599E-01  0.13822717157E+00  0.44894913565E-01 0.  0.
         14    1    1    2    0    0 -0.11901324756E-01 -0.18031139691E-02 -0.73280525740E-02  0.14092306605E-01  0.00000000000E+00 0.  1.
     999901    1    3    3    0    0  0.91768025098E-01  0.70907849015E-01  0.84380265173E-01  0.89161052183E+00  0.88000000000E+00 0. -1.
        -11    1    4    4    0    0 -0.38196016084E-01 -0.11943988640E-01 -0.11152027622E-01  0.41547844113E-01  0.51100000000E-03 0.  1.
         11    1    4    4    0    0 -0.41670684258E-01 -0.57160746406E-01 -0.65900184976E-01  0.96679327455E-01  0.51100000000E-03 0. -1.
</event>
<event>
 8    1  0.2123879E+004  0.1043930E+01  0.7957747E-01            NaN
         13   -1    0    0    0    0  0.00000000000E+00  0.00000000000E+00  0.74505805969E-08  0.10566000000E+00  0.10566000000E+00 0. -1.
     999900   -1    0    0    0    0 -0.00000000000E+00 -0.00000000000E+00 -0.74505805969E-08  0.93827000000E+00  0.93827000000E+00 0. -1.
     999902    2    1    2    0    0  0.10343091120E-01  0.40663904677E-02 -0.10495364189E-01  0.10286438057E+01  0.10285302190E+01 0.  0.
     999903    2    3    3    0    0  0.12435693219E+00 -0.45047246479E-01  0.63259009014E-02  0.13977134006E+00  0.44744938069E-01 0.  0.
         14    1    1    2    0    0 -0.10343091120E-01 -0.40663904677E-02  0.10495364189E-01  0.15286194255E-01  0.00000000000E+00 0. -1.
     999901    1    3    3    0    0 -0.11401384106E+00  0.49113636947E-01 -0.16821265090E-01  0.88887246568E+00  0.88000000000E+00 0.  1.
        -11    1    4    4    0    0  0.75772299769E-01 -0.45149897253E-01  0.17477971700E-01  0.89920494048E-01  0.51100000000E-03 0.  1.
         11    1    4    4    0    0  0.48584632416E-01  0.10265077319E-03 -0.11152070799E-01  0.49850846014E-01  0.51100000000E-03 0. -1.
</event>
<event>
 8    1  0.2123879E+004  0.1043930E+01  0.7957747E-01            NaN
         13   -1    0    0    0    0  0.00000000000E+00  0.00000000000E+00  0.74505805969E-08  0.10566000000E+00  0.10566000000E+00 0.  1.
     999900   -1    0    0    0    0 -0.00000000000E+00 -0.00000000000E+00 -0.74505805969E-08  0.93827000000E+00  0.93827000000E+00 0.  1.
     999902    2    1    2    0    0  0.97271694919E-03 -0.10128810083E-01 -0.95815723846E-02  0.10299533945E+01  0.10298585579E+01 0.  0.
     999903    2    3    3    0    0  0.99239581514E-01 -0.52438048484E-01  0.69696550805E-01  0.13993571538E+00  0.46110213374E-01 0.  0.
         14    1    1    2    0    0 -0.97271694919E-03  0.10128810083E-01  0.95815723846E-02  0.13976605501E-01  0.00000000000E+00 0. -1.
     999901    1    3    3    0    0 -0.98266864565E-01  0.42309238401E-01 -0.79278123189E-01  0.89001767912E+00  0.88000000000E+00 0.  1.
        -11    1    4    4    0    0  0.55780603931E-01 -0.38498485887E-02  0.27819787726E-01  0.62453973606E-01  0.51100000000E-03 0.  1.
         11    1    4    4    0    0  0.43458977584E-01 -0.48588199896E-01  0.41876763078E-01  0.77481741776E-01  0.51100000000E-03 0. -1.
</event>
<event>
 8    1  0.2123879E+004  0.1043930E+01  0.7957747E-01            NaN
         13   -1    0    0    0    0  0.00000000000E+00  0.00000000000E+00  0.74505805969E-08  0.10566000000E+00  0.10566000000E+00 0.  1.
     999900   -1    0    0    0    0 -0.00000000000E+00 -0.00000000000E+00 -0.74505805969E-08  0.93827000000E+00  0.93827000000E+00 0.  1.
     999902    2    1    2    0    0  0.29401408184E-04 -0.13137864320E-01  0.30288753120E-02  0.10304474769E+01  0.10303592695E+01 0.  0.
     999903    2    3    3    0    0  0.12688051566E+00 -0.16998257821E-02 -0.34925042862E-01  0.14046852557E+00  0.49092702061E-01 0.  0.
         14    1    1    2    0    0 -0.29401408184E-04  0.13137864320E-01 -0.30288753120E-02  0.13482523095E-01  0.00000000000E+00 0. -1.
     999901    1    3    3    0    0 -0.12685111425E+00 -0.11438038538E-01  0.37953918174E-01  0.88997895133E+00  0.88000000000E+00 0.  1.
        -11    1    4    4    0    0  0.93580626153E-01  0.19545008756E-01 -0.17051021125E-01  0.97109934615E-01  0.51100000000E-03 0. -1.
         11    1    4    4    0    0  0.33299889506E-01 -0.21244834538E-01 -0.17874021738E-01  0.43358590957E-01  0.51100000000E-03 0.  1.
</event>
<event>
 8    1  0.2124712E+004  0.1043930E+01  0.7957747E-01            NaN
         13   -1    0    0    0    0  0.00000000000E+00  0.00000000000E+00  0.74505805969E-08  0.10566000000E+00  0.10566000000E+00 0.  1.
     999900   -1    0    0    0    0 -0.00000000000E+00 -0.00000000000E+00 -0.74505805969E-08  0.93827000000E+00  0.93827000000E+00 0. -1.
     999902    2    1    2    0    0 -0.46850868866E-03 -0.13147585938E-01 -0.49115115013E-02  0.10298871562E+01  0.10297914124E+01 0.  0.
     999903    2    3    3    0    0  0.12578548974E+00 -0.14665866562E-01  0.37657553036E-01  0.13985653733E+00  0.45876820536E-01 0.  0.
         14    1    1    2    0    0  0.46850868866E-03  0.13147585938E-01  0.49115115013E-02  0.14042843787E-01  0.00000000000E+00 0.  1.
     999901    1    3    3    0    0 -0.12625399843E+00  0.15182806237E-02 -0.42569064538E-01  0.89003061888E+00  0.88000000000E+00 0.  1.
        -11    1    4    4    0    0  0.72624727350E-01 -0.26581872227E-01  0.36108097079E-01  0.85352227560E-01  0.51100000000E-03 0.  1.
         11    1    4    4    0    0  0.53160762388E-01  0.11916005666E-01  0.15494559569E-02  0.54504309770E-01  0.51100000000E-03 0. -1.
</event>
<event>
 8    1  0.2123879E+004  0.1043930E+01  0.7957747E-01            NaN
         13   -1    0    0    0    0  0.00000000000E+00  0.00000000000E+00  0.74505805969E-08  0.10566000000E+00  0.10566000000E+00 0.  1.
     999900   -1    0    0    0    0 -0.00000000000E+00 -0.00000000000E+00 -0.74505805969E-08  0.93827000000E+00  0.93827000000E+00 0. -1.
     999902    2    1    2    0    0 -0.49099351324E-02 -0.56973464675E-02  0.13478979619E-01  0.10284946474E+01  0.10283788162E+01 0.  0.
     999903    2    3    3    0    0 -0.10956007111E+00 -0.73532619755E-01  0.71656452883E-02  0.13967906836E+00  0.45259698595E-01 0.  0.
         14    1    1    2    0    0  0.49099351324E-02  0.56973464675E-02 -0.13478979619E-01  0.15435352647E-01  0.00000000000E+00 0. -1.
     999901    1    3    3    0    0  0.10465013598E+00  0.67835273288E-01  0.63133343310E-02  0.88881557899E+00  0.88000000000E+00 0. -1.
        -11    1    4    4    0    0 -0.76474524748E-01 -0.37508699045E-01 -0.14105960237E-01  0.86339415533E-01  0.51100000000E-03 0. -1.
         11    1    4    4    0    0 -0.33085546362E-01 -0.36023920711E-01  0.21271605526E-01  0.53339652831E-01  0.51100000000E-03 0.  1.
</event>
<event>
 8    1  0.2123879E+004  0.1043930E+01  0.7957747E-01            NaN
         13   -1    0    0    0    0  0.00000000000E+00  0.00000000000E+00  0.74505805969E-08  0.10566000000E+00  0.10566000000E+00 0.  1.
     999900   -1    0    0    0    0 -0.00000000000E+00 -0.00000000000E+00 -0.74505805969E-08  0.93827000000E+00  0.93827000000E+00 0.  1.
     999902    2    1    2    0    0  0.14127432089E-01  0.27081318335E-02 -0.20194730826E-02  0.10294042784E+01  0.10293017885E+01 0.  0.
     999903    2    3    3    0    0  0.77619558255E-02  0.93242991718E-01  0.93055330651E-01  0.13964234485E+00  0.45674790106E-01 0.  0.
         14    1    1    2    0    0 -0.14127432089E-01 -0.27081318335E-02  0.20194730826E-02  0.14525721566E-01  0.00000000000E+00 0. -1.
     999901    1    3    3    0    0  0.63654762640E-02 -0.90534859884E-01 -0.95074803734E-01  0.88976193358E+00  0.88000000000E+00 0.  1.
        -11    1    4    4    0    0  0.26569544972E-02  0.29411151104E-01  0.37823279461E-02  0.29776540131E-01  0.51100000000E-03 0. -1.
         11    1    4    4    0    0  0.51050013282E-02  0.63831840614E-01  0.89273002705E-01  0.10986580472E+00  0.51100000000E-03 0.  1.
</event>
<event>
 8    1  0.2123879E+004  0.1043930E+01  0.7957747E-01            NaN
         13   -1    0    0    0    0  0.00000000000E+00  0.00000000000E+00  0.74505805969E-08  0.10566000000E+00  0.10566000000E+00 0. -1.
     999900   -1    0    0    0    0 -0.00000000000E+00 -0.00000000000E+00 -0.74505805969E-08  0.93827000000E+00  0.93827000000E+00 0. -1.
     999902    2    1    2    0    0 -0.11660875335E-01  0.76570233925E-02  0.36064404522E-02  0.10295212376E+01  0.10294204031E+01 0.  0.
     999903    2    3    3    0    0 -0.71562663317E-01  0.99443564372E-01  0.53827173263E-01  0.14130104233E+00  0.45369402743E-01 0.  0.
         14    1    1    2    0    0  0.11660875335E-01 -0.76570233925E-02 -0.36064404522E-02  0.14408762388E-01  0.00000000000E+00 0. -1.
     999901    1    3    3    0    0  0.59901787982E-01 -0.91786540979E-01 -0.50220732810E-01  0.88822019529E+00  0.88000000000E+00 0. -1.
        -11    1    4    4    0    0 -0.18884193327E-01  0.41588914161E-01 -0.11151049830E-02  0.45691959017E-01  0.51100000000E-03 0. -1.
         11    1    4    4    0    0 -0.52678469990E-01  0.57854650211E-01  0.54942278246E-01  0.95609083310E-01  0.51100000000E-03 0.  1.
</event>
<event>
 8    1  0.2363663E+004  0.1043930E+01  0.7957747E-01            NaN
         13   -1    0    0    0    0  0.00000000000E+00  0.00000000000E+00  0.74505805969E-08  0.10566000000E+00  0.10566000000E+00 0. -1.
     999900   -1    0    0    0    0 -0.00000000000E+00 -0.00000000000E+00 -0.74505805969E-08  0.93827000000E+00  0.93827000000E+00 0.  1.
     999902    2    1    2    0    0 -0.15625107775E-01 -0.25680142598E-03 -0.42226600749E-02  0.10277423257E+01  0.10276148341E+01 0.  0.
     999903    2    3    3    0    0  0.55375897138E-01 -0.10614484349E+00 -0.45277370503E-01  0.13760811709E+00  0.50524606151E-01 0.  0.
         14    1    1    2    0    0  0.15625107775E-01  0.25680142598E-03  0.42226600749E-02  0.16187674264E-01  0.00000000000E+00 0. -1.
     999901    1    3    3    0    0 -0.71001004913E-01  0.10588804206E+00  0.41054710428E-01  0.89013420864E+00  0.88000000000E+00 0. -1.
        -11    1    4    4    0    0  0.21902463954E-01 -0.84023258561E-01 -0.16900392724E-01  0.88461914413E-01  0.51100000000E-03 0.  1.
         11    1    4    4    0    0  0.33473433184E-01 -0.22121584928E-01 -0.28376977779E-01  0.49146202679E-01  0.51100000000E-03 0. -1.
</event>
<event>
 8    1  0.2123879E+004  0.1043930E+01  0.7957747E-01            NaN
         13   -1    0    0    0    0  0.00000000000E+00  0.00000000000E+00  0.74505805969E-08  0.10566000000E+00  0.10566000000E+00 0.  1.
     999900   -1    0    0    0    0 -0.00000000000E+00 -0.00000000000E+00 -0.74505805969E-08  0.93827000000E+00  0.93827000000E+00 0. -1.
     999902    2    1    2    0    0 -0.11393177089E-02  0.54037892172E-02  0.14240285111E-01  0.10286563396E+01  0.10285429404E+01 0.  0.
     999903    2    3    3    0    0 -0.11895050718E+00 -0.19781610968E-01 -0.50180598578E-01  0.13811502610E+00  0.44912500157E-01 0.  0.
         14    1    1    2    0    0  0.11393177089E-02 -0.54037892172E-02 -0.14240285111E-01  0.15273660425E-01  0.00000000000E+00 0.  1.
     999901    1    3    3    0    0  0.11781118947E+00  0.25185400185E-01  0.64420883688E-01  0.89054131347E+00  0.88000000000E+00 0.  1.
        -11    1    4    4    0    0 -0.87121522105E-01  0.23339029447E-02 -0.47507987779E-01  0.99261657958E-01  0.51100000000E-03 0.  1.
         11    1    4    4    0    0 -0.31828985076E-01 -0.22115513913E-01 -0.26726107984E-02  0.38853368144E-01  0.51100000000E-03 0. -1.
</event>
<event>
 8    1  0.2123879E+004  0.1043930E+01  0.7957747E-01            NaN
         13   -1    0    0    0    0  0.00000000000E+00  0.00000000000E+00  0.74505805969E-08  0.10566000000E+00  0.10566000000E+00 0. -1.
     999900   -1    0    0    0    0 -0.00000000000E+00 -0.00000000000E+00 -0.74505805969E-08  0.93827000000E+00  0.93827000000E+00 0. -1.
     999902    2    1    2    0    0 -0.94652526783E-02  0.77636775923E-02  0.95650251841E-02  0.10283943827E+01  0.10282770303E+01 0.  0.
     999903    2    3    3    0    0 -0.18311448304E-01  0.12241745465E+00  0.47571490977E-01  0.14009925426E+00  0.45204114302E-01 0.  0.
         14    1    1    2    0    0  0.94652526783E-02 -0.77636775923E-02 -0.95650251841E-02  0.15535617297E-01  0.00000000000E+00 0.  1.
     999901    1    3    3    0    0  0.88461956262E-02 -0.11465377705E+00 -0.38006465793E-01  0.88829512844E+00  0.88000000000E+00 0.  1.
        -11    1    4    4    0    0 -0.33378071339E-01  0.77286322069E-01  0.29776567723E-01  0.89298243720E-01  0.51100000000E-03 0.  1.
         11    1    4    4    0    0  0.15066623034E-01  0.45131132578E-01  0.17794923255E-01  0.50801010542E-01  0.51100000000E-03 0. -1.
</event>
<event>
 8    1  0.2123879E+004  0.1043930E+01  0.7957747E-01            NaN
         13   -1    0    0    0    0  0.00000000000E+00  0.00000000000E+00  0.74505805969E-08  0.10566000000E+00  0.10566000000E+00 0. -1.
     999900   -1    0    0    0    0 -0.00000000000E+00 -0.00000000000E+00 -0.74505805969E-08  0.93827000000E+00  0.93827000000E+00 0. -1.
     999902    2    1    2    0    0  0.80984915900E-02 -0.37172839621E-02  0.89432190536E-02  0.10313052254E+01  0.10312279491E+01 0.  0.
     999903    2    3    3    0    0  0.11863179297E+00 -0.44495376007E-01  0.52746459542E-01  0.14237373910E+00  0.37878117697E-01 0.  0.
         14    1    1    2    0    0 -0.80984915900E-02  0.37172839621E-02 -0.89432190536E-02  0.12624774577E-01  0.00000000000E+00 0.  1.
     999901    1    3    3    0    0 -0.11053330138E+00  0.40778092045E-01 -0.43803240488E-01  0.88893148633E+00  0.88000000000E+00 0. -1.
        -11    1    4    4    0    0  0.47087301366E-01 -0.18784187122E-01  0.15601318594E-02  0.50722330074E-01  0.51100000000E-03 0. -1.
         11    1    4    4    0    0  0.71544491606E-01 -0.25711188886E-01  0.51186327683E-01  0.91651409022E-01  0.51100000000E-03 0.  1.
</event>
<event>
 8    1  0.2123879E+004  0.1043930E+01  0.7957747E-01            NaN
         13   -1    0    0    0    0  0.00000000000E+00  0.00000000000E+00  0.74505805969E-08  0.10566000000E+00  0.10566000000E+00 0. -1.
     999900   -1    0    0    0    0 -0.00000000000E+00 -0.00000000000E+00 -0.74505805969E-08  0.93827000000E+00  0.93827000000E+00 0.  1.
     999902    2    1    2    0    0 -0.93886758897E-04 -0.88245447428E-02 -0.10132473567E-01  0.10304931691E+01  0.10304055624E+01 0.  0.
     999903    2    3    3    0    0  0.46148216304E-01 -0.11811773217E+00 -0.45277779904E-01  0.14183208325E+00  0.44551161189E-01 0.  0.
         14    1    1    2    0    0  0.93886758897E-04  0.88245447428E-02  0.10132473567E-01  0.13436830922E-01  0.00000000000E+00 0. -1.
     999901    1    3    3    0    0 -0.46242103063E-01  0.10929318743E+00  0.35145306336E-01  0.88866108583E+00  0.88000000000E+00 0. -1.
        -11    1    4    4    0    0  0.25212760273E-01 -0.95024673962E-01 -0.50006828511E-01  0.11030102430E+00  0.51100000000E-03 0. -1.
         11    1    4    4    0    0  0.20935456030E-01 -0.23093058211E-01  0.47290486077E-02  0.31531058949E-01  0.51100000000E-03 0.  1.
</event>
<event>
 8    1  0.2123879E+004  0.1043930E+01  0.7957747E-01            NaN
         13   -1    0    0    0    0  0.00000000000E+00  0.00000000000E+00  0.74505805969E-08  0.10566000000E+00  0.10566000000E+00 0. -1.
     999900   -1    0    0    0    0 -0.00000000000E+00 -0.00000000000E+00 -0.74505805969E-08  0.93827000000E+00  0.93827000000E+00 0. -1.
     999902    2    1    2    0    0  0.19774258953E-02  0.12898169376E-01  0.38729154850E-02  0.10303185173E+01  0.10302286031E+01 0.  0.
     999903    2    3    3    0    0 -0.90398824812E-01 -0.38127486954E-01 -0.87529355808E-01  0.13931270112E+00  0.46054183056E-01 0.  0.
         14    1    1    2    0    0 -0.19774258953E-02 -0.12898169376E-01 -0.38729154850E-02  0.13611482681E-01  0.00000000000E+00 0.  1.
     999901    1    3    3    0    0  0.92376250707E-01  0.51025656330E-01  0.91402271293E-01  0.89100581620E+00  0.88000000000E+00 0.  1.
        -11    1    4    4    0    0 -0.48794147436E-01 -0.33485236523E-01 -0.75149313122E-01  0.95654640623E-01  0.51100000000E-03 0.  1.
         11    1    4    4    0    0 -0.41604677376E-01 -0.46422504307E-02 -0.12380042686E-01  0.43658060499E-01  0.51100000000E-03 0. -1.
</event>
<event>
 8    1  0.2123879E+004  0.1043930E+01  0.7957747E-01            NaN
         13   -1    0    0    0    0  0.00000000000E+00  0.00000000000E+00  0.74505805969E-08  0.10566000000E+00  0.10566000000E+00 0. -1.
     999900   -1    0    0    0    0 -0.00000000000E+00 -0.00000000000E+00 -0.74505805969E-08  0.93827000000E+00  0.93827000000E+00 0.  1.
     999902    2    1    2    0    0  0.10260384318E-01  0.42211632462E-02  0.98502576383E-02  0.10290935152E+01  0.10289865605E+01 0.  0.
     999903    2    3    3    0    0 -0.86224097427E-01  0.79222762583E-01  0.60600688363E-01  0.13920020624E+00  0.44647652787E-01 0.  0.
         14    1    1    2    0    0 -0.10260384318E-01 -0.42211632462E-02 -0.98502576383E-02  0.14836484794E-01  0.00000000000E+00 0.  1.
     999901    1    3    3    0    0  0.96484481744E-01 -0.75001599337E-01 -0.50750430725E-01  0.88989330896E+00  0.88000000000E+00 0.  1.
        -11    1    4    4    0    0 -0.54779153160E-01  0.49839683927E-01  0.13294095439E-01  0.75244559999E-01  0.51100000000E-03 0.  1.
         11    1    4    4    0    0 -0.31444944267E-01  0.29383078655E-01  0.47306592925E-01  0.63955646243E-01  0.51100000000E-03 0. -1.
</event>
<event>
 8    1  0.2123879E+004  0.1043930E+01  0.7957747E-01            NaN
         13   -1    0    0    0    0  0.00000000000E+00  0.00000000000E+00  0.74505805969E-08  0.10566000000E+00  0.10566000000E+00 0.  1.
     999900   -1    0    0    0    0 -0.00000000000E+00 -0.00000000000E+00 -0.74505805969E-08  0.93827000000E+00  0.93827000000E+00 0. -1.
     999902    2    1    2    0    0 -0.73608691676E-02 -0.61471959338E-02  0.87079272321E-02  0.10309762975E+01  0.10308949158E+01 0.  0.
     999903    2    3    3    0    0  0.47280567703E-01 -0.38766742943E-01 -0.11727445600E+00  0.13972925968E+00  0.45084981313E-01 0.  0.
         14    1    1    2    0    0  0.73608691676E-02  0.61471959338E-02 -0.87079272321E-02  0.12953702538E-01  0.00000000000E+00 0. -1.
     999901    1    3    3    0    0 -0.54641436871E-01  0.32619547009E-01  0.12598238323E+00  0.89124703778E+00  0.88000000000E+00 0.  1.
        -11    1    4    4    0    0 -0.81306208179E-02  0.30305521699E-03 -0.13390391065E-01  0.15676815086E-01  0.51100000000E-03 0. -1.
         11    1    4    4    0    0  0.55411188521E-01 -0.39069798160E-01 -0.10388406494E+00  0.12405244459E+00  0.51100000000E-03 0.  1.
</event>
<event>
 8    1  0.2123879E+004  0.1043930E+01  0.7957747E-01            NaN
         13   -1    0    0    0    0  0.00000000000E+00  0.00000000000E+00  0.74505805969E-08  0.10566000000E+00  0.10566000000E+00 0.  1.
     999900   -1    0    0    0    0 -0.00000000000E+00 -0.00000000000E+00 -0.74505805969E-08  0.93827000000E+00  0.93827000000E+00 0. -1.
     999902    2    1    2    0    0 -0.12507841334E-01  0.75825283049E-02 -0.19118975033E-02  0.10291788583E+01  0.10290731393E+01 0.  0.
     999903    2    3    3    0    0 -0.34148394816E-01 -0.12193447654E+00  0.33461232068E-01  0.13873277546E+00  0.45749311435E-01 0.  0.
         14    1    1    2    0    0  0.12507841334E-01 -0.75825283049E-02  0.19118975033E-02  0.14751141732E-01  0.00000000000E+00 0.  1.
     999901    1    3    3    0    0  0.21640553483E-01  0.12951700485E+00 -0.35373129572E-01  0.89044608281E+00  0.88000000000E+00 0.  1.
        -11    1    4    4    0    0  0.66390880008E-02 -0.22832147322E-01 -0.60021090688E-02  0.24528980311E-01  0.51100000000E-03 0. -1.
         11    1    4    4    0    0 -0.40787482817E-01 -0.99102329218E-01  0.39463341137E-01  0.11420379515E+00  0.51100000000E-03 0.  1.
</event>
<event>
 8    1  0.2123879E+004  0.1043930E+01  0.7957747E-01            NaN
         13   -1    0    0    0    0  0.00000000000E+00  0.00000000000E+00  0.74505805969E-08  0.10566000000E+00  0.10566000000E+00 0.  1.
     999900   -1    0    0    0    0 -0.00000000000E+00 -0.00000000000E+00 -0.74505805969E-08  0.93827000000E+00  0.93827000000E+00 0.  1.
     999902    2    1    2    0    0  0.77532907849E-02 -0.42695905392E-02 -0.12861341964E-01  0.10283172796E+01  0.10281987505E+01 0.  0.
     999903    2    3    3    0    0 -0.43765982064E-01 -0.32407764810E-01  0.11729132199E+00  0.13680973153E+00  0.44653376371E-01 0.  0.
         14    1    1    2    0    0 -0.77532907849E-02  0.42695905392E-02  0.12861341964E-01  0.15612720406E-01  0.00000000000E+00 0.  1.
     999901    1    3    3    0    0  0.51519272849E-01  0.28138174270E-01 -0.13015266395E+00  0.89150754807E+00  0.88000000000E+00 0.  1.
        -11    1    4    4    0    0 -0.17372865650E-01 -0.62068401397E-02  0.86727456649E-01  0.88669353123E-01  0.51100000000E-03 0.  1.
         11    1    4    4    0    0 -0.26393116414E-01 -0.26200924670E-01  0.30563865338E-01  0.48140378405E-01  0.51100000000E-03 0. -1.
</event>
<event>
 8    1  0.2123879E+004  0.1043930E+01  0.7957747E-01            NaN
         13   -1    0    0    0    0  0.00000000000E+00  0.00000000000E+00  0.74505805969E-08  0.10566000000E+00  0.10566000000E+00 0. -1.
     999900   -1    0    0    0    0 -0.00000000000E+00 -0.00000000000E+00 -0.74505805969E-08  0.93827000000E+00  0.93827000000E+00 0. -1.
     999902    2    1    2    0    0 -0.22957096032E-02  0.20204012913E-02  0.13360079110E-01  0.10302243801E+01  0.10301332095E+01 0.  0.
     999903    2    3    3    0    0 -0.55632301171E-01 -0.11979882049E+00 -0.10692094442E-01  0.13990801952E+00  0.44868950516E-01 0.  0.
         14    1    1    2    0    0  0.22957096032E-02 -0.20204012913E-02 -0.13360079110E-01  0.13705619935E-01  0.00000000000E+00 0.  1.
     999901    1    3    3    0    0  0.53336591568E-01  0.12181922178E+00  0.24052173553E-01  0.89031636054E+00  0.88000000000E+00 0.  1.
        -11    1    4    4    0    0 -0.53575744101E-01 -0.67771401800E-01  0.15976021084E-02  0.86406809404E-01  0.51100000000E-03 0. -1.
         11    1    4    4    0    0 -0.20565570706E-02 -0.52027418685E-01 -0.12289696551E-01  0.53501210120E-01  0.51100000000E-03 0.  1.
</event>
<event>
 8    1  0.2123879E+004  0.1043930E+01  0.7957747E-01            NaN
         13   -1    0    0    0    0  0.00000000000E+00  0.00000000000E+00  0.74505805969E-08  0.10566000000E+00  0.10566000000E+00 0. -1.
     999900   -1    0    0    0    0 -0.00000000000E+00 -0.00000000000E+00 -0.74505805969E-08  0.93827000000E+00  0.93827000000E+00 0. -1.
     999902    2    1    2    0    0 -0.93208650780E-03 -0.10634469992E-01  0.94177736358E-02  0.10296942985E+01  0.10295958883E+01 0.  0.
     999903    2    3    3    0    0 -0.57001338315E-01  0.14988106438E-01  0.11950141081E+00  0.14069560074E+00  0.45175977882E-01 0.  0.
         14    1    1    2    0    0  0.93208650780E-03  0.10634469992E-01 -0.94177736358E-02  0.14235701512E-01  0.00000000000E+00 0.  1.
     999901    1    3    3    0    0  0.56069251808E-01 -0.25622576430E-01 -0.11008363718E+00  0.88899869775E+00  0.88000000000E+00 0. -1.
        -11    1    4    4    0    0 -0.62680603476E-01  0.20869519858E-01  0.10589175335E+00  0.12481073455E+00  0.51100000000E-03 0.  1.
         11    1    4    4    0    0  0.56792651611E-02 -0.58814134192E-02  0.13609657465E-01  0.15884866191E-01  0.51100000000E-03 0. -1.
</event>
<event>
 8    1  0.2123879E+004  0.1043930E+01  0.7957747E-01            NaN
         13   -1    0    0    0    0  0.00000000000E+00  0.00000000000E+00  0.74505805969E-08  0.10566000000E+00  0.10566000000E+00 0. -1.
     999900   -1    0    0    0    0 -0.00000000000E+00 -0.00000000000E+00 -0.74505805969E-08  0.93827000000E+00  0.93827000000E+00 0. -1.
     999902    2    1    2    0    0  0.13347260173E-02 -0.15526757274E-01  0.46662174443E-02  0.10276623858E+01  0.10275336218E+01 0.  0.
     999903    2    3    3    0    0 -0.12352542327E-01 -0.65972052122E-02  0.12973200193E+00  0.13866940013E+00  0.46932949930E-01 0.  0.
         14    1    1    2    0    0 -0.13347260173E-02  0.15526757274E-01 -0.46662174443E-02  0.16267614153E-01  0.00000000000E+00 0. -1.
     999901    1    3    3    0    0  0.13687268344E-01 -0.89295520616E-02 -0.12506578448E+00  0.88899298572E+00  0.88000000000E+00 0. -1.
        -11    1    4    4    0    0 -0.28289423314E-01 -0.46585765992E-02  0.10739164302E+00  0.11115403690E+00  0.51100000000E-03 0.  1.
         11    1    4    4    0    0  0.15936880987E-01 -0.19386286130E-02  0.22340358904E-01  0.27515363226E-01  0.51100000000E-03 0. -1.
</event>
<event>
 8    1  0.2123879E+004  0.1043930E+01  0.7957747E-01            NaN
         13   -1    0    0    0    0  0.00000000000E+00  0.00000000000E+00  0.74505805969E-08  0.10566000000E+00  0.10566000000E+00 0.  1.
     999900   -1    0    0    0    0 -0.00000000000E+00 -0.00000000000E+00 -0.74505805969E-08  0.93827000000E+00  0.93827000000E+00 0. -1.
     999902    2    1    2    0    0  0.10524832886E-01 -0.28781058950E-02 -0.80985234127E-02  0.10303417079E+01  0.10302521018E+01 0.  0.
     999903    2    3    3    0    0  0.12513363484E+00  0.28007407770E-01  0.20298121434E-01  0.14191868823E+00  0.57324156139E-01 0.  0.
         14    1    1    2    0    0 -0.10524832886E-01  0.28781058950E-02  0.80985234127E-02  0.13588292103E-01  0.00000000000E+00 0. -1.
     999901    1    3    3    0    0 -0.11460880195E+00 -0.30885513665E-01 -0.28396644846E-01  0.88842301967E+00  0.88000000000E+00 0. -1.
        -11    1    4    4    0    0  0.77370099184E-01  0.42684872932E-01  0.24706896754E-01  0.91754141559E-01  0.51100000000E-03 0.  1.
         11    1    4    4    0    0  0.47763535653E-01 -0.14677465162E-01 -0.44087753207E-02  0.50164546669E-01  0.51100000000E-03 0. -1.
</event>
<event>
 8    1  0.2123879E+004  0.1043930E+01  0.7957747E-01            NaN
         13   -1    0    0    0    0  0.00000000000E+00  0.00000000000E+00  0.74505805969E-08  0.10566000000E+00  0.10566000000E+00 0. -1.
     999900   -1    0    0    0    0 -0.00000000000E+00 -0.00000000000E+00 -0.74505805969E-08  0.93827000000E+00  0.93827000000E+00 0. -1.
     999902    2    1    2    0    0 -0.89326823692E-02 -0.42480269452E-02 -0.88697368380E-02  0.10306442641E+01  0.10305586292E+01 0.  0.
     999903    2    3    3    0    0 -0.10653140836E+00  0.23525270185E-01 -0.78392467941E-01  0.14208910120E+00  0.46276931022E-01 0.  0.
         14    1    1    2    0    0  0.89326823692E-02  0.42480269452E-02  0.88697368380E-02  0.13285735915E-01  0.00000000000E+00 0. -1.
     999901    1    3    3    0    0  0.97598725994E-01 -0.27773297130E-01  0.69522731103E-01  0.88855516288E+00  0.88000000000E+00 0.  1.
        -11    1    4    4    0    0 -0.26063131340E-01  0.21179464661E-01 -0.66140506096E-02  0.34232489320E-01  0.51100000000E-03 0. -1.
         11    1    4    4    0    0 -0.80468277023E-01  0.23458055235E-02 -0.71778417331E-01  0.10785661188E+00  0.51100000000E-03 0.  1.
</event>
<event>
 8    1  0.2338693E+004  0.1043930E+01  0.7957747E-01            NaN
         13   -1    0    0    0    0  0.00000000000E+00  0.00000000000E+00  0.74505805969E-08  0.10566000000E+00  0.10566000000E+00 0.  1.
     999900   -1    0    0    0    0 -0.00000000000E+00 -0.00000000000E+00 -0.74505805969E-08  0.93827000000E+00  0.93827000000E+00 0. -1.
     999902    2    1    2    0    0 -0.86277102903E-02  0.69341403373E-02  0.65000177015E-02  0.10310937265E+01  0.10310138229E+01 0.  0.
     999903    2    3    3    0    0  0.90264149170E-01  0.77496126123E-02  0.97416548925E-01  0.14089932049E+00  0.46421561669E-01 0.  0.
         14    1    1    2    0    0  0.86277102903E-02 -0.69341403373E-02 -0.65000177015E-02  0.12836273493E-01  0.00000000000E+00 0. -1.
     999901    1    3    3    0    0 -0.98891859460E-01 -0.81547227495E-03 -0.90916531223E-01  0.89019440602E+00  0.88000000000E+00 0. -1.
        -11    1    4    4    0    0  0.45543061111E-01  0.27016361601E-01  0.54482421192E-01  0.75977954365E-01  0.51100000000E-03 0. -1.
         11    1    4    4    0    0  0.44721088059E-01 -0.19266748989E-01  0.42934127732E-01  0.64921366120E-01  0.51100000000E-03 0.  1.
</event>
<event>
 8    1  0.2123879E+004  0.1043930E+01  0.7957747E-01            NaN
         13   -1    0    0    0    0  0.00000000000E+00  0.00000000000E+00  0.74505805969E-08  0.10566000000E+00  0.10566000000E+00 0. -1.
     999900   -1    0    0    0    0 -0.00000000000E+00 -0.00000000000E+00 -0.74505805969E-08  0.93827000000E+00  0.93827000000E+00 0. -1.
     999902    2    1    2    0    0  0.34072554107E-02 -0.12994516528E-01  0.10412640014E-02  0.10304559108E+01  0.10303678144E+01 0.  0.
     999903    2    3    3    0    0 -0.11216283083E+00  0.64972681765E-01 -0.22745492926E-01  0.13916407382E+00  0.45247452964E-01 0.  0.
         14    1    1    2    0    0 -0.34072554107E-02  0.12994516528E-01 -0.10412640014E-02  0.13474089207E-01  0.00000000000E+00 0.  1.
     999901    1    3    3    0    0  0.11557008624E+00 -0.77967198294E-01  0.23786756928E-01  0.89129183697E+00  0.88000000000E+00 0. -1.
        -11    1    4    4    0    0 -0.11947205270E-01  0.10136345214E-01 -0.19312400904E-01  0.24873905156E-01  0.51100000000E-03 0.  1.
         11    1    4    4    0    0 -0.10021562556E+00  0.54836336552E-01 -0.34330920228E-02  0.11429016867E+00  0.51100000000E-03 0. -1.
</event>
<event>
 8    1  0.2123879E+004  0.1043930E+01  0.7957747E-01            NaN
         13   -1    0    0    0    0  0.00000000000E+00  0.00000000000E+00  0.74505805969E-08  0.10566000000E+00  0.10566000000E+00 0. -1.
     999900   -1    0    0    0    0 -0.00000000000E+00 -0.00000000000E+00 -0.74505805969E-08  0.93827000000E+00  0.93827000000E+00 0. -1.
     999902    2    1    2    0    0 -0.11515001247E-01  0.61131418455E-02  0.16024509518E-02  0.10307947952E+01  0.10307111022E+01 0.  0.
     999903    2    3    3    0    0 -0.12374004249E+00  0.13444709303E-01 -0.51183144558E-01  0.14206844198E+00  0.45512301580E-01 0.  0.
         14    1    1    2    0    0  0.11515001247E-01 -0.61131418455E-02 -0.16024509518E-02  0.13135204833E-01  0.00000000000E+00 0. -1.
     999901    1    3    3    0    0  0.11222504124E+00 -0.73315674579E-02  0.52785595510E-01  0.88872635319E+00  0.88000000000E+00 0. -1.
        -11    1    4    4    0    0 -0.14954615818E-01  0.16599900255E-01 -0.16716420300E-01  0.27908727154E-01  0.51100000000E-03 0.  1.
         11    1    4    4    0    0 -0.10878542667E+00 -0.31551909513E-02 -0.34466724258E-01  0.11415971482E+00  0.51100000000E-03 0. -1.
</event>
<event>
 8    1  0.2123879E+004  0.1043930E+01  0.7957747E-01            NaN
         13   -1    0    0    0    0  0.00000000000E+00  0.00000000000E+00  0.74505805969E-08  0.10566000000E+00  0.10566000000E+00 0.  1.
     999900   -1    0    0    0    0 -0.00000000000E+00 -0.00000000000E+00 -0.74505805969E-08  0.93827000000E+00  0.93827000000E+00 0.  1.
     999902    2    1    2    0    0 -0.97815125937E-02 -0.14765002633E-01  0.18798714110E-03  0.10262178959E+01  0.10260650327E+01 0.  0.
     999903    2    3    3    0    0 -0.12753715976E+00  0.80319754810E-02  0.24902447427E-01  0.13773778968E+00  0.44959171136E-01 0.  0.
         14    1    1    2    0    0  0.97815125937E-02  0.14765002633E-01 -0.18798714110E-03  0.17712104069E-01  0.00000000000E+00 0.  1.
     999901    1    3    3    0    0  0.11775564717E+00 -0.22796978114E-01 -0.24714460286E-01  0.88848010625E+00  0.88000000000E+00 0.  1.
        -11    1    4    4    0    0 -0.73013210720E-01  0.17940826333E-01  0.32291684038E-01  0.81827966907E-01  0.51100000000E-03 0. -1.
         11    1    4    4    0    0 -0.54523949040E-01 -0.99088508519E-02 -0.73892366118E-02  0.55909822776E-01  0.51100000000E-03 0.  1.
</event>
<event>
 8    1  0.2123879E+004  0.1043930E+01  0.7957747E-01            NaN
         13   -1    0    0    0    0  0.00000000000E+00  0.00000000000E+00  0.74505805969E-08  0.10566000000E+00  0.10566000000E+00 0. -1.
     999900   -1    0    0    0    0 -0.00000000000E+00 -0.00000000000E+00 -0.74505805969E-08  0.93827000000E+00  0.93827000000E+00 0.  1.
     999902    2    1    2    0    0 -0.44618198118E-02 -0.12774074883E-01  0.50042119527E-03  0.10303898653E+01  0.10303008975E+01 0.  0.
     999903    2    3    3    0    0 -0.91946297597E-03  0.11917440127E+00  0.61303726806E-01  0.13847059174E+00  0.34822040810E-01 0.  0.
         14    1    1    2    0    0  0.44618198118E-02  0.12774074883E-01 -0.50042119527E-03  0.13540134657E-01  0.00000000000E+00 0.  1.
     999901    1    3    3    0    0 -0.35423568359E-02 -0.13194847615E+00 -0.60803305611E-01  0.89191927360E+00  0.88000000000E+00 0. -1.
        -11    1    4    4    0    0 -0.12459982930E-01  0.23931434624E-01  0.56993510727E-02  0.27580943810E-01  0.51100000000E-03 0. -1.
         11    1    4    4    0    0  0.11540519954E-01  0.95242966646E-01  0.55604375733E-01  0.11088964793E+00  0.51100000000E-03 0.  1.
</event>
<event>
 8    1  0.2123879E+004  0.1043930E+01  0.7957747E-01            NaN
         13   -1    0    0    0    0  0.00000000000E+00  0.00000000000E+00  0.74505805969E-08  0.10566000000E+00  0.10566000000E+00 0. -1.
     999900   -1    0    0    0    0 -0.00000000000E+00 -0.00000000000E+00 -0.74505805969E-08  0.93827000000E+00  0.93827000000E+00 0. -1.
     999902    2    1    2    0    0 -0.87462294638E-03  0.74166106657E-02 -0.11619873845E-01  0.10301172325E+01  0.10300246211E+01 0.  0.
     999903    2    3    3    0    0 -0.80660932988E-02 -0.11073098039E+00 -0.69353025672E-01  0.14031743062E+00  0.50524521639E-01 0.  0.
         14    1    1    2    0    0  0.87462294638E-03 -0.74166106657E-02  0.11619873845E-01  0.13812767545E-01  0.00000000000E+00 0. -1.
     999901    1    3    3    0    0  0.71914703524E-02  0.11814759106E+00  0.57733151826E-01  0.88979980183E+00  0.88000000000E+00 0.  1.
        -11    1    4    4    0    0  0.11281316510E-01 -0.42927736263E-02 -0.14961312883E-01  0.19230132911E-01  0.51100000000E-03 0. -1.
         11    1    4    4    0    0 -0.19347409808E-01 -0.10643820677E+00 -0.54391712789E-01  0.12108729771E+00  0.51100000000E-03 0.  1.
</event>
<event>
 8    1  0.2123879E+004  0.1043930E+01  0.7957747E-01            NaN
         13   -1    0    0    0    0  0.00000000000E+00  0.00000000000E+00  0.74505805969E-08  0.10566000000E+00  0.10566000000E+00 0.  1.
     999900   -1    0    0    0    0 -0.00000000000E+00 -0.00000000000E+00 -0.74505805969E-08  0.93827000000E+00  0.93827000000E+00 0.  1.
     999902    2    1    2    0    0 -0.73609549222E-02  0.12213838821E-01 -0.67409452281E-03  0.10296535887E+01  0.10295546109E+01 0.  0.
     999903    2    3    3    0    0  0.11112015278E+00 -0.46444257570E-01  0.50054137841E-01  0.13833327663E+00  0.46107714021E-01 0.  0.
         14    1    1    2    0    0  0.73609549222E-02 -0.12213838821E-01  0.67409452281E-03  0.14276411297E-01  0.00000000000E+00 0.  1.
     999901    1    3    3    0    0 -0.11848110771E+00  0.58658096391E-01 -0.50728232364E-01  0.89132031207E+00  0.88000000000E+00 0. -1.
        -11    1    4    4    0    0  0.40860733534E-01 -0.29581958111E-01  0.41975011426E-01  0.65626629472E-01  0.51100000000E-03 0. -1.
         11    1    4    4    0    0  0.70259419249E-01 -0.16862299459E-01  0.80791264150E-02  0.72706647158E-01  0.51100000000E-03 0.  1.
</event>
<event>
 8    1  0.2123879E+004  0.1043930E+01  0.7957747E-01            NaN
         13   -1    0    0    0    0  0.00000000000E+00  0.00000000000E+00  0.74505805969E-08  0.10566000000E+00  0.10566000000E+00 0. -1.
     999900   -1    0    0    0    0 -0.00000000000E+00 -0.00000000000E+00 -0.74505805969E-08  0.93827000000E+00  0.93827000000E+00 0.  1.
     999902    2    1    2    0    0  0.22718910395E-02 -0.85983464358E-02  0.89187293504E-02  0.10313348905E+01  0.10312579791E+01 0.  0.
     999903    2    3    3    0    0  0.50288779519E-01 -0.12303647951E+00 -0.22320275059E-01  0.14207813158E+00  0.44956247153E-01 0.  0.
         14    1    1    2    0    0 -0.22718910395E-02  0.85983464358E-02 -0.89187293504E-02  0.12595109509E-01  0.00000000000E+00 0. -1.
     999901    1    3    3    0    0 -0.48016888480E-01  0.11443813307E+00  0.31239004410E-01  0.88925675892E+00  0.88000000000E+00 0. -1.
        -11    1    4    4    0    0  0.18469233764E-01 -0.35596328743E-01 -0.27906445484E-01  0.48859410929E-01  0.51100000000E-03 0. -1.
         11    1    4    4    0    0  0.31819545755E-01 -0.87440150765E-01  0.55861704251E-02  0.93218720646E-01  0.51100000000E-03 0.  1.
</event>
<event>
 8    1  0.2123879E+004  0.1043930E+01  0.7957747E-01            NaN
         13   -1    0    0    0    0  0.00000000000E+00  0.00000000000E+00  0.74505805969E-08  0.10566000000E+00  0.10566000000E+00 0.  1.
     999900   -1    0    0    0    0 -0.00000000000E+00 -0.00000000000E+00 -0.74505805969E-08  0.93827000000E+00  0.93827000000E+00 0. -1.
     999902    2    1    2    0    0  0.66858457017E-02  0.12883755011E-01 -0.11428713508E-02  0.10293698547E+01  0.10292668750E+01 0.  0.
     999903    2    3    3    0    0  0.44503452549E-01  0.12060758943E+00 -0.39292311360E-01  0.14117506996E+00  0.43125012806E-01 0.  0.
         14    1    1    2    0    0 -0.66858457017E-02 -0.12883755011E-01  0.11428713508E-02  0.14560145289E-01  0.00000000000E+00 0.  1.
     999901    1    3    3    0    0 -0.37817606847E-01 -0.10772383442E+00  0.38149440010E-01  0.88819478475E+00  0.88000000000E+00 0.  1.
        -11    1    4    4    0    0  0.36538030640E-01  0.11674730044E+00 -0.25789093478E-01  0.12502119143E+00  0.51100000000E-03 0. -1.
         11    1    4    4    0    0  0.79654219087E-02  0.38602889829E-02 -0.13503217882E-01  0.16153878525E-01  0.51100000000E-03 0.  1.
</event>
<event>
 8    1  0.2123879E+004  0.1043930E+01  0.7957747E-01            NaN
         13   -1    0    0    0    0  0.00000000000E+00  0.00000000000E+00  0.74505805969E-08  0.10566000000E+00  0.10566000000E+00 0.  1.
     999900   -1    0    0    0    0 -0.00000000000E+00 -0.00000000000E+00 -0.74505805969E-08  0.93827000000E+00  0.93827000000E+00 0. -1.
     999902    2    1    2    0    0 -0.33998762079E-02  0.66210051840E-02  0.10959574956E-01  0.10306820133E+01  0.10305968676E+01 0.  0.
     999903    2    3    3    0    0  0.35977189458E-01 -0.67392915728E-01 -0.10676562803E+00  0.13889289183E+00  0.45345041855E-01 0.  0.
         14    1    1    2    0    0  0.33998762079E-02 -0.66210051840E-02 -0.10959574956E-01  0.13247986681E-01  0.00000000000E+00 0. -1.
     999901    1    3    3    0    0 -0.39377065666E-01  0.74013920912E-01  0.11772520299E+00  0.89178912149E+00  0.88000000000E+00 0.  1.
        -11    1    4    4    0    0  0.10591208064E-01 -0.46522509754E-02 -0.47621139193E-01  0.49008684399E-01  0.51100000000E-03 0.  1.
         11    1    4    4    0    0  0.25385981394E-01 -0.62740664752E-01 -0.59144488835E-01  0.89884207431E-01  0.51100000000E-03 0. -1.
</event>
<event>
 8    1  0.2123879E+004  0.1043930E+01  0.7957747E-01            NaN
         13   -1    0    0    0    0  0.00000000000E+00  0.00000000000E+00  0.74505805969E-08  0.10566000000E+00  0.10566000000E+00 0.  1.
     999900   -1    0    0    0    0 -0.00000000000E+00 -0.00000000000E+00 -0.74505805969E-08  0.93827000000E+00  0.93827000000E+00 0.  1.
     999902    2    1    2    0    0 -0.27548068091E-02 -0.51053202132E-02 -0.12675288203E-01  0.10299902659E+01  0.10298959325E+01 0.  0.
     999903    2    3    3    0    0 -0.92416950492E-01 -0.27466037035E-01 -0.94023315226E-01  0.14142017687E+00  0.43174143774E-01 0.  0.
         14    1    1    2    0    0  0.27548068091E-02  0.51053202132E-02  0.12675288203E-01  0.13939734074E-01  0.00000000000E+00 0.  1.
     999901    1    3    3    0    0  0.89662143683E-01  0.22360716822E-01  0.81348027023E-01  0.88857008906E+00  0.88000000000E+00 0. -1.
        -11    1    4    4    0    0 -0.43383075277E-01 -0.34794022284E-01 -0.56135965651E-01  0.79020395897E-01  0.51100000000E-03 0. -1.
         11    1    4    4    0    0 -0.49033875215E-01  0.73279852484E-02 -0.37887349575E-01  0.62399780971E-01  0.51100000000E-03 0.  1.
</event>
<event>
 8    1  0.2123879E+004  0.1043930E+01  0.7957747E-01            NaN
         13   -1    0    0    0    0  0.00000000000E+00  0.00000000000E+00  0.74505805969E-08  0.10566000000E+00  0.10566000000E+00 0.  1.
     999900   -1    0    0    0    0 -0.00000000000E+00 -0.00000000000E+00 -0.74505805969E-08  0.93827000000E+00  0.93827000000E+00 0. -1.
     999902    2    1    2    0    0 -0.10587752582E-02  0.10833978336E-01  0.91096403855E-02  0.10297355772E+01  0.10296377408E+01 0.  0.
     999903    2    3    3    0    0  0.18585668748E-01  0.51685460217E-01  0.12240543015E+00  0.14131524662E+00  0.44385760271E-01 0.  0.
         14    1    1    2    0    0  0.10587752582E-02 -0.10833978336E-01 -0.91096403855E-02  0.14194422834E-01  0.00000000000E+00 0. -1.
     999901    1    3    3    0    0 -0.19644444007E-01 -0.40851481880E-01 -0.11329578977E+00  0.88842033055E+00  0.88000000000E+00 0. -1.
        -11    1    4    4    0    0  0.15313466071E-01  0.55750146677E-01  0.80658142341E-01  0.99240002744E-01  0.51100000000E-03 0. -1.
         11    1    4    4    0    0  0.32722026772E-02 -0.40646864601E-02  0.41747287813E-01  0.42075243874E-01  0.51100000000E-03 0.  1.
</event>
<event>
 8    1  0.2123879E+004  0.1043930E+01  0.7957747E-01            NaN
         13   -1    0    0    0    0  0.00000000000E+00  0.00000000000E+00  0.74505805969E-08  0.10566000000E+00  0.10566000000E+00 0. -1.
     999900   -1    0    0    0    0 -0.00000000000E+00 -0.00000000000E+00 -0.74505805969E-08  0.93827000000E+00  0.93827000000E+00 0. -1.
     999902    2    1    2    0    0  0.32807372423E-02  0.45559298537E-03 -0.14034723718E-01  0.10295097271E+01  0.10294087302E+01 0.  0.
     999903    2    3    3    0    0 -0.23350657292E-01  0.10911817852E+00 -0.72523609071E-01  0.14050031295E+00  0.45040359536E-01 0.  0.
         14    1    1    2    0    0 -0.32807372423E-02 -0.45559298537E-03  0.14034723718E-01  0.14420272940E-01  0.00000000000E+00 0. -1.
     999901    1    3    3    0    0  0.26631394534E-01 -0.10866258553E+00  0.58488885353E-01  0.88900941411E+00  0.88000000000E+00 0.  1.
        -11    1    4    4    0    0  0.65185680326E-02  0.40945790729E-01 -0.85101165497E-02  0.42328863820E-01  0.51100000000E-03 0. -1.
         11    1    4    4    0    0 -0.29869225325E-01  0.68172387789E-01 -0.64013492521E-01  0.98171449129E-01  0.51100000000E-03 0.  1.
</event>
<event>
 8    1  0.2123879E+004  0.1043930E+01  0.7957747E-01            NaN
         13   -1    0    0    0    0  0.00000000000E+00  0.00000000000E+00  0.74505805969E-08  0.10566000000E+00  0.10566000000E+00 0. -1.
     999900   -1    0    0    0    0 -0.00000000000E+00 -0.00000000000E+00 -0.74505805969E-08  0.93827000000E+00  0.93827000000E+00 0.  1.
     999902    2    1    2    0    0  0.54944733111E-02  0.60021266018E-02  0.11609255761E-01  0.10297529206E+01  0.10296553248E+01 0.  0.
     999903    2    3    3    0    0  0.10472587273E+00 -0.26822130254E-01 -0.75227951976E-01  0.13932324730E+00  0.45439931655E-01 0.  0.
         14    1    1    2    0    0 -0.54944733111E-02 -0.60021266018E-02 -0.11609255761E-01  0.14177079390E-01  0.00000000000E+00 0.  1.
     999901    1    3    3    0    0 -0.99231399417E-01  0.32824256856E-01  0.86837207737E-01  0.89042967331E+00  0.88000000000E+00 0.  1.
        -11    1    4    4    0    0  0.53860297264E-01 -0.23702821993E-01 -0.15593047988E-01  0.60878236328E-01  0.51100000000E-03 0. -1.
         11    1    4    4    0    0  0.50865575464E-01 -0.31193082613E-02 -0.59634903988E-01  0.78445010969E-01  0.51100000000E-03 0.  1.
</event>
<event>
 8    1  0.2123879E+004  0.1043930E+01  0.7957747E-01            NaN
         13   -1    0    0    0    0  0.00000000000E+00  0.00000000000E+00  0.74505805969E-08  0.10566000000E+00  0.10566000000E+00 0. -1.
     999900   -1    0    0    0    0 -0.00000000000E+00 -0.00000000000E+00 -0.74505805969E-08  0.93827000000E+00  0.93827000000E+00 0. -1.
     999902    2    1    2    0    0 -0.87795677091E-02 -0.10438990399E-01  0.10318439879E-02  0.10302508907E+01  0.10301600748E+01 0.  0.
     999903    2    3    3    0    0  0.12593747997E+00 -0.30809324358E-01  0.25325790818E-01  0.13943450708E+00  0.44621998565E-01 0.  0.
         14    1    1    2    0    0  0.87795677091E-02  0.10438990399E-01 -0.10318439879E-02  0.13679109318E-01  0.00000000000E+00 0.  1.
     999901    1    3    3    0    0 -0.13471704768E+00  0.20370333959E-01 -0.24293946830E-01  0.89081638360E+00  0.88000000000E+00 0. -1.
        -11    1    4    4    0    0  0.47165912452E-01  0.77044484559E-02 -0.12539352822E-02  0.47810200775E-01  0.51100000000E-03 0.  1.
         11    1    4    4    0    0  0.78771567517E-01 -0.38513772814E-01  0.26579726100E-01  0.91624306306E-01  0.51100000000E-03 0. -1.
</event>
<event>
 8    1  0.2123879E+004  0.1043930E+01  0.7957747E-01            NaN
         13   -1    0    0    0    0  0.00000000000E+00  0.00000000000E+00  0.74505805969E-08  0.10566000000E+00  0.10566000000E+00 0. -1.
     999900   -1    0    0    0    0 -0.00000000000E+00 -0.00000000000E+00 -0.74505805969E-08  0.93827000000E+00  0.93827000000E+00 0. -1.
     999902    2    1    2    0    0 -0.90532563171E-02 -0.13080008552E-02 -0.10385857942E-01  0.10300902615E+01  0.10299972857E+01 0.  0.
     999903    2    3    3    0    0  0.29388985236E-01 -0.78479551028E-01 -0.10404567363E+00  0.14093031237E+00  0.44867564667E-01 0.  0.
         14    1    1    2    0    0  0.90532563171E-02  0.13080008552E-02  0.10385857942E-01  0.13839738486E-01  0.00000000000E+00 0. -1.
     999901    1    3    3    0    0 -0.38442241553E-01  0.77171550173E-01  0.93659815691E-01  0.88915994915E+00  0.88000000000E+00 0.  1.
        -11    1    4    4    0    0  0.56465543407E-02 -0.13312785486E-01 -0.52655662336E-01  0.54607634360E-01  0.51100000000E-03 0.  1.
         11    1    4    4    0    0  0.23742430896E-01 -0.65166765543E-01 -0.51390011297E-01  0.86322678007E-01  0.51100000000E-03 0. -1.
</event>
<event>
 8    1  0.2123879E+004  0.1043930E+01  0.7957747E-01            NaN
         13   -1    0    0    0    0  0.00000000000E+00  0.00000000000E+00  0.74505805969E-08  0.10566000000E+00  0.10566000000E+00 0.  1.
     999900   -1    0    0    0    0 -0.00000000000E+00 -0.00000000000E+00 -0.74505805969E-08  0.93827000000E+00  0.93827000000E+00 0.  1.
     999902    2    1    2    0    0  0.12119072190E-01  0.70458860126E-02 -0.58167805149E-02  0.10287526697E+01  0.10286407069E+01 0.  0.
     999903    2    3    3    0    0  0.12606998055E-01  0.11940834525E+00 -0.56690948813E-01  0.14015054199E+00  0.44844413553E-01 0.  0.
         14    1    1    2    0    0 -0.12119072190E-01 -0.70458860126E-02  0.58167805149E-02  0.15177330332E-01  0.00000000000E+00 0.  1.
     999901    1    3    3    0    0 -0.48792586502E-03 -0.11236245924E+00  0.50874168298E-01  0.88860212768E+00  0.88000000000E+00 0. -1.
        -11    1    4    4    0    0  0.18823923144E-01  0.57899332105E-01 -0.48387920398E-01  0.77770975962E-01  0.51100000000E-03 0.  1.
         11    1    4    4    0    0 -0.62169250892E-02  0.61509013146E-01 -0.83030284152E-02  0.62379566026E-01  0.51100000000E-03 0. -1.
</event>
<event>
 8    1  0.2123879E+004  0.1043930E+01  0.7957747E-01            NaN
         13   -1    0    0    0    0  0.00000000000E+00  0.00000000000E+00  0.74505805969E-08  0.10566000000E+00  0.10566000000E+00 0. -1.
     999900   -1    0    0    0    0 -0.00000000000E+00 -0.00000000000E+00 -0.74505805969E-08  0.93827000000E+00  0.93827000000E+00 0.  1.
     999902    2    1    2    0    0  0.11462529006E-01  0.45593713998E-02 -0.66511461900E-02  0.10299151798E+01  0.10298198204E+01 0.  0.
     999903    2    3    3    0    0  0.31358442368E-01  0.12924222124E+00 -0.13153059717E-01  0.14087978386E+00  0.44578098439E-01 0.  0.
         14    1    1    2    0    0 -0.11462529006E-01 -0.45593713998E-02  0.66511461900E-02  0.14014820170E-01  0.00000000000E+00 0.  1.
     999901    1    3    3    0    0 -0.19895913362E-01 -0.12468284984E+00  0.65019135266E-02  0.88903539597E+00  0.88000000000E+00 0. -1.
        -11    1    4    4    0    0 -0.19098109355E-02  0.50802702208E-01 -0.21637420041E-01  0.55253968151E-01  0.51100000000E-03 0.  1.
         11    1    4    4    0    0  0.33268253303E-01  0.78439519034E-01  0.84843603248E-02  0.85625815705E-01  0.51100000000E-03 0. -1.
</event>
<event>
 8    1  0.2123879E+004  0.1043930E+01  0.7957747E-01            NaN
         13   -1    0    0    0    0  0.00000000000E+00  0.00000000000E+00  0.74505805969E-08  0.10566000000E+00  0.10566000000E+00 0. -1.
     999900   -1    0    0    0    0 -0.00000000000E+00 -0.00000000000E+00 -0.74505805969E-08  0.93827000000E+00  0.93827000000E+00 0.  1.
     999902    2    1    2    0    0 -0.14469970660E-01 -0.18214795742E-02 -0.22560456785E-03  0.10293440912E+01  0.10292407441E+01 0.  0.
     999903    2    3    3    0    0  0.71105759353E-01  0.10884176695E+00 -0.16881843235E-01  0.13813873326E+00  0.43528769217E-01 0.  0.
         14    1    1    2    0    0  0.14469970660E-01  0.18214795742E-02  0.22560456785E-03  0.14585908821E-01  0.00000000000E+00 0. -1.
     999901    1    3    3    0    0 -0.85575730013E-01 -0.11066324652E+00  0.16656238667E-01  0.89120535792E+00  0.88000000000E+00 0. -1.
        -11    1    4    4    0    0  0.68876325364E-01  0.79295143733E-01 -0.23824940658E-01  0.10770123924E+00  0.51100000000E-03 0. -1.
         11    1    4    4    0    0  0.22294339897E-02  0.29546623216E-01  0.69430974231E-02  0.30437494020E-01  0.51100000000E-03 0.  1.
</event>
<event>
 8    1  0.2123879E+004  0.1043930E+01  0.7957747E-01            NaN
         13   -1    0    0    0    0  0.00000000000E+00  0.00000000000E+00  0.74505805969E-08  0.10566000000E+00  0.10566000000E+00 0.  1.
     999900   -1    0    0    0    0 -0.00000000000E+00 -0.00000000000E+00 -0.74505805969E-08  0.93827000000E+00  0.93827000000E+00 0. -1.
     999902    2    1    2    0    0 -0.97415536361E-02 -0.43337411667E-02 -0.83635934907E-02  0.10303790268E+01  0.10302899155E+01 0.  0.
     999903    2    3    3    0    0 -0.12734057165E+00  0.21142886077E-01 -0.20267215840E-01  0.14211088943E+00  0.55875773235E-01 0.  0.
         14    1    1    2    0    0  0.97415536361E-02  0.43337411667E-02  0.83635934907E-02  0.13550973243E-01  0.00000000000E+00 0.  1.
     999901    1    3    3    0    0  0.11759901802E+00 -0.25476627243E-01  0.11903622349E-01  0.88826813733E+00  0.88000000000E+00 0. -1.
        -11    1    4    4    0    0 -0.86568369518E-01 -0.94513317090E-02  0.44898292712E-03  0.87085434941E-01  0.51100000000E-03 0. -1.
         11    1    4    4    0    0 -0.40772202136E-01  0.30594217786E-01 -0.20716198767E-01  0.55025454485E-01  0.51100000000E-03 0.  1.
</event>
<event>
 8    1  0.2123879E+004  0.1043930E+01  0.7957747E-01            NaN
         13   -1    0    0    0    0  0.00000000000E+00  0.00000000000E+00  0.74505805969E-08  0.10566000000E+00  0.10566000000E+00 0. -1.
     999900   -1    0    0    0    0 -0.00000000000E+00 -0.00000000000E+00 -0.74505805969E-08  0.93827000000E+00  0.93827000000E+00 0.  1.
     999902    2    1    2    0    0  0.16686784573E-01 -0.14272035306E-01 -0.71524343498E-02  0.10208367740E+01  0.10205755347E+01 0.  0.
     999903    2    3    3    0    0 -0.53144124179E-02 -0.12469518409E+00 -0.88736786320E-02  0.13366131943E+00  0.47005044675E-01 0.  0.
         14    1    1    2    0    0 -0.16686784573E-01  0.14272035306E-01  0.71524343498E-02  0.23093226026E-01  0.00000000000E+00 0. -1.
     999901    1    3    3    0    0  0.22001196991E-01  0.11042314879E+00  0.17212442822E-02  0.88717545454E+00  0.88000000000E+00 0.  1.
        -11    1    4    4    0    0  0.20392929575E-01 -0.47253748555E-01  0.92083739262E-03  0.51477154075E-01  0.51100000000E-03 0.  1.
         11    1    4    4    0    0 -0.25707341993E-01 -0.77441435538E-01 -0.97945160246E-02  0.82184165358E-01  0.51100000000E-03 0. -1.
</event>
<event>
 8    1  0.2123879E+004  0.1043930E+01  0.7957747E-01            NaN
         13   -1    0    0    0    0  0.00000000000E+00  0.00000000000E+00  0.74505805969E-08  0.10566000000E+00  0.10566000000E+00 0.  1.
     999900   -1    0    0    0    0 -0.00000000000E+00 -0.00000000000E+00 -0.74505805969E-08  0.93827000000E+00  0.93827000000E+00 0.  1.
     999902    2    1    2    0    0  0.99708953802E-02 -0.79823983758E-02 -0.53568651961E-02  0.10300796049E+01  0.10299864849E+01 0.  0.
     999903    2    3    3    0    0 -0.95791788167E-01 -0.66586520668E-01  0.61314744477E-01  0.13931291724E+00  0.45152625676E-01 0.  0.
         14    1    1    2    0    0 -0.99708953802E-02  0.79823983758E-02  0.53568651961E-02  0.13850395057E-01  0.00000000000E+00 0. -1.
     999901    1    3    3    0    0  0.10576268355E+00  0.58604122292E-01 -0.66671609673E-01  0.89076668770E+00  0.88000000000E+00 0.  1.
        -11    1    4    4    0    0 -0.32951402174E-01 -0.26031030937E-01  0.47238744791E-01  0.63207354060E-01  0.51100000000E-03 0. -1.
         11    1    4    4    0    0 -0.62840385993E-01 -0.40555489731E-01  0.14075999686E-01  0.76105563182E-01  0.51100000000E-03 0.  1.
</event>
<event>
 8    1  0.2123879E+004  0.1043930E+01  0.7957747E-01            NaN
         13   -1    0    0    0    0  0.00000000000E+00  0.00000000000E+00  0.74505805969E-08  0.10566000000E+00  0.10566000000E+00 0.  1.
     999900   -1    0    0    0    0 -0.00000000000E+00 -0.00000000000E+00 -0.74505805969E-08  0.93827000000E+00  0.93827000000E+00 0. -1.
     999902    2    1    2    0    0 -0.39663931851E-03  0.11174307217E-01 -0.10501257359E-01  0.10285905453E+01  0.10284761597E+01 0.  0.
     999903    2    3    3    0    0  0.33897771600E-01 -0.12071832003E+00  0.31361884115E-01  0.13711744174E+00  0.45778306470E-01 0.  0.
         14    1    1    2    0    0  0.39663931851E-03 -0.11174307217E-01  0.10501257359E-01  0.15339454705E-01  0.00000000000E+00 0.  1.
     999901    1    3    3    0    0 -0.34294410919E-01  0.13189262725E+00 -0.41863141474E-01  0.89147310355E+00  0.88000000000E+00 0. -1.
        -11    1    4    4    0    0  0.30775775461E-01 -0.45224848189E-01 -0.14879927726E-02  0.54725775394E-01  0.51100000000E-03 0. -1.
         11    1    4    4    0    0  0.31219961391E-02 -0.75493471845E-01  0.32849876887E-01  0.82391666348E-01  0.51100000000E-03 0.  1.
</event>
<event>
 8    1  0.2123879E+004  0.1043930E+01  0.7957747E-01            NaN
         13   -1    0    0    0    0  0.00000000000E+00  0.00000000000E+00  0.74505805969E-08  0.10566000000E+00  0.10566000000E+00 0. -1.
     999900   -1    0    0    0    0 -0.00000000000E+00 -0.00000000000E+00 -0.74505805969E-08  0.93827000000E+00  0.93827000000E+00 0. -1.
     999902    2    1    2    0    0 -0.81668223073E-02  0.10569200446E-01 -0.82613094046E-02  0.10282247710E+01  0.10281048222E+01 0.  0.
     999903    2    3    3    0    0 -0.99610794189E-01  0.53716985213E-01 -0.70029861833E-01  0.14028384651E+00  0.44357087645E-01 0.  0.
         14    1    1    2    0    0  0.81668223073E-02 -0.10569200446E-01  0.82613094046E-02  0.15705228994E-01  0.00000000000E+00 0. -1.
     999901    1    3    3    0    0  0.91443971882E-01 -0.43147784767E-01  0.61768552428E-01  0.88794092449E+00  0.88000000000E+00 0.  1.
        -11    1    4    4    0    0 -0.65227601916E-01  0.19967465023E-01 -0.60474889079E-01  0.91163660750E-01  0.51100000000E-03 0. -1.
         11    1    4    4    0    0 -0.34383192273E-01  0.33749520190E-01 -0.95549727538E-02  0.49120185761E-01  0.51100000000E-03 0.  1.
</event>
<event>
 8    1  0.2123879E+004  0.1043930E+01  0.7957747E-01            NaN
         13   -1    0    0    0    0  0.00000000000E+00  0.00000000000E+00  0.74505805969E-08  0.10566000000E+00  0.10566000000E+00 0.  1.
     999900   -1    0    0    0    0 -0.00000000000E+00 -0.00000000000E+00 -0.74505805969E-08  0.93827000000E+00  0.93827000000E+00 0.  1.
     999902    2    1    2    0    0 -0.98217428865E-02  0.10138962141E-01 -0.18919631337E-03  0.10298126000E+01  0.10297158298E+01 0.  0.
     999903    2    3    3    0    0  0.94662992511E-01 -0.31910613922E-01 -0.84859979842E-01  0.13860310257E+00  0.45058122817E-01 0.  0.
         14    1    1    2    0    0  0.98217428865E-02 -0.10138962141E-01  0.18919631337E-03  0.14117399968E-01  0.00000000000E+00 0.  1.
     999901    1    3    3    0    0 -0.10448473540E+00  0.42049576063E-01  0.84670783529E-01  0.89120949746E+00  0.88000000000E+00 0. -1.
        -11    1    4    4    0    0  0.10004804040E-01 -0.13481188941E-01 -0.34542630642E-01  0.38409543239E-01  0.51100000000E-03 0.  1.
         11    1    4    4    0    0  0.84658188472E-01 -0.18429424982E-01 -0.50317349200E-01  0.10019355933E+00  0.51100000000E-03 0. -1.
</event>
<event>
 8    1  0.2123879E+004  0.1043930E+01  0.7957747E-01            NaN
         13   -1    0    0    0    0  0.00000000000E+00  0.00000000000E+00  0.74505805969E-08  0.10566000000E+00  0.10566000000E+00 0. -1.
     999900   -1    0    0    0    0 -0.00000000000E+00 -0.00000000000E+00 -0.74505805969E-08  0.93827000000E+00  0.93827000000E+00 0. -1.
     999902    2    1    2    0    0 -0.24944965556E-02  0.63787123353E-02 -0.49123062581E-02  0.10355014036E+01  0.10354671002E+01 0.  0.
     999903    2    3    3    0    0  0.33276793209E-01  0.12934378633E+00  0.32911073578E-01  0.14542803437E+00  0.47212438913E-01 0.  0.
         14    1    1    2    0    0  0.24944965556E-02 -0.63787123353E-02  0.49123062581E-02  0.84285963775E-02  0.00000000000E+00 0. -1.
     999901    1    3    3    0    0 -0.35771289764E-01 -0.12296507399E+00 -0.37823379836E-01  0.89007336925E+00  0.88000000000E+00 0.  1.
        -11    1    4    4    0    0  0.23832256419E-01  0.63898193007E-01  0.39768689685E-01  0.78947864542E-01  0.51100000000E-03 0. -1.
         11    1    4    4    0    0  0.94445367903E-02  0.65445593322E-01 -0.68576161068E-02  0.66480169826E-01  0.51100000000E-03 0.  1.
</event>
<event>
 8    1  0.2123879E+004  0.1043930E+01  0.7957747E-01            NaN
         13   -1    0    0    0    0  0.00000000000E+00  0.00000000000E+00  0.74505805969E-08  0.10566000000E+00  0.10566000000E+00 0.  1.
     999900   -1    0    0    0    0 -0.00000000000E+00 -0.00000000000E+00 -0.74505805969E-08  0.93827000000E+00  0.93827000000E+00 0. -1.
     999902    2    1    2    0    0  0.10852848801E-01 -0.10181902802E-02 -0.75892204560E-02  0.10306477824E+01  0.10305621932E+01 0.  0.
     999903    2    3    3    0    0 -0.81191515787E-01 -0.10419660619E+00 -0.36799345022E-02  0.13984295913E+00  0.45754959545E-01 0.  0.
         14    1    1    2    0    0 -0.10852848801E-01  0.10181902802E-02  0.75892204560E-02  0.13282217649E-01  0.00000000000E+00 0. -1.
     999901    1    3    3    0    0  0.92044364589E-01  0.10317841591E+00 -0.39092859537E-02  0.89080482322E+00  0.88000000000E+00 0. -1.
        -11    1    4    4    0    0 -0.48983048031E-01 -0.51246912786E-01  0.19735406261E-01  0.73588942415E-01  0.51100000000E-03 0.  1.
         11    1    4    4    0    0 -0.32208467757E-01 -0.52949693401E-01 -0.23415340764E-01  0.66254016713E-01  0.51100000000E-03 0. -1.
</event>
<event>
 8    1  0.2123879E+004  0.1043930E+01  0.7957747E-01            NaN
         13   -1    0    0    0    0  0.00000000000E+00  0.00000000000E+00  0.74505805969E-08  0.10566000000E+00  0.10566000000E+00 0.  1.
     999900   -1    0    0    0    0 -0.00000000000E+00 -0.00000000000E+00 -0.74505805969E-08  0.93827000000E+00  0.93827000000E+00 0.  1.
     999902    2    1    2    0    0  0.10981208486E-02 -0.67817691106E-02 -0.12007157788E-01  0.10300963418E+01  0.10300034482E+01 0.  0.
     999903    2    3    3    0    0  0.12664039636E+00 -0.38748625245E-01  0.12083346971E-01  0.14028563424E+00  0.44663250558E-01 0.  0.
         14    1    1    2    0    0 -0.10981208486E-02  0.67817691106E-02  0.12007157788E-01  0.13833658222E-01  0.00000000000E+00 0.  1.
     999901    1    3    3    0    0 -0.12554227551E+00  0.31966856135E-01 -0.24090504759E-01  0.88981070754E+00  0.88000000000E+00 0.  1.
        -11    1    4    4    0    0  0.83784076166E-01 -0.38498095899E-02  0.13729994339E-01  0.84990389565E-01  0.51100000000E-03 0.  1.
         11    1    4    4    0    0  0.42856320196E-01 -0.34898815655E-01 -0.16466473675E-02  0.55295244673E-01  0.51100000000E-03 0. -1.
</event>
<event>
 8    1  0.2123879E+004  0.1043930E+01  0.7957747E-01            NaN
         13   -1    0    0    0    0  0.00000000000E+00  0.00000000000E+00  0.74505805969E-08  0.10566000000E+00  0.10566000000E+00 0.  1.
     999900   -1    0    0    0    0 -0.00000000000E+00 -0.00000000000E+00 -0.74505805969E-08  0.93827000000E+00  0.93827000000E+00 0.  1.
     999902    2    1    2    0    0  0.20102744538E-02  0.13066078826E-01  0.40263167657E-02  0.10301106351E+01  0.10300179347E+01 0.  0.
     999903    2    3    3    0    0 -0.26422535527E-01 -0.12755608749E+00 -0.11581986866E-01  0.13835582717E+00  0.45160675941E-01 0.  0.
         14    1    1    2    0    0 -0.20102744538E-02 -0.13066078826E-01 -0.40263167657E-02  0.13819364890E-01  0.00000000000E+00 0. -1.
     999901    1    3    3    0    0  0.28432809980E-01  0.14062216632E+00  0.15608303632E-01  0.89175480794E+00  0.88000000000E+00 0. -1.
        -11    1    4    4    0    0 -0.33425936904E-01 -0.78892521717E-01  0.65935099741E-02  0.85936364453E-01  0.51100000000E-03 0.  1.
         11    1    4    4    0    0  0.70034013771E-02 -0.48663565777E-01 -0.18175496840E-01  0.52419462715E-01  0.51100000000E-03 0. -1.
</event>
<event>
 8    1  0.2123879E+004  0.1043930E+01  0.7957747E-01            NaN
         13   -1    0    0    0    0  0.00000000000E+00  0.00000000000E+00  0.74505805969E-08  0.10566000000E+00  0.10566000000E+00 0. -1.
     999900   -1    0    0    0    0 -0.00000000000E+00 -0.00000000000E+00 -0.74505805969E-08  0.93827000000E+00  0.93827000000E+00 0.  1.
     999902    2    1    2    0    0 -0.67817782776E-03 -0.14246633462E-01  0.18845494891E-02  0.10295432694E+01  0.10294427452E+01 0.  0.
     999903    2    3    3    0    0 -0.45683287349E-01  0.86717148201E-01 -0.86531326074E-01  0.13823158872E+00  0.44871763868E-01 0.  0.
         14    1    1    2    0    0  0.67817782776E-03  0.14246633462E-01 -0.18845494891E-02  0.14386730586E-01  0.00000000000E+00 0. -1.
     999901    1    3    3    0    0  0.45005109521E-01 -0.10096378166E+00  0.88415875563E-01  0.89131168069E+00  0.88000000000E+00 0. -1.
        -11    1    4    4    0    0 -0.41336097260E-02  0.24373157915E-01 -0.47970086561E-01  0.53967841181E-01  0.51100000000E-03 0.  1.
         11    1    4    4    0    0 -0.41549677623E-01  0.62343990286E-01 -0.38561239513E-01  0.84263747538E-01  0.51100000000E-03 0. -1.
</event>
<event>
 8    1  0.2123879E+004  0.1043930E+01  0.7957747E-01            NaN
         13   -1    0    0    0    0  0.00000000000E+00  0.00000000000E+00  0.74505805969E-08  0.10566000000E+00  0.10566000000E+00 0. -1.
     999900   -1    0    0    0    0 -0.00000000000E+00 -0.00000000000E+00 -0.74505805969E-08  0.93827000000E+00  0.93827000000E+00 0. -1.
     999902    2    1    2    0    0  0.10786693428E-01 -0.93216357966E-02  0.14894114152E-02  0.10295959847E+01  0.10294962009E+01 0.  0.
     999903    2    3    3    0    0  0.90549411225E-01 -0.86346858425E-01 -0.39961739158E-01  0.14166965104E+00  0.53088356508E-01 0.  0.
         14    1    1    2    0    0 -0.10786693428E-01  0.93216357966E-02 -0.14894114152E-02  0.14334015327E-01  0.00000000000E+00 0.  1.
     999901    1    3    3    0    0 -0.79762717797E-01  0.77025222628E-01  0.41451150573E-01  0.88792633363E+00  0.88000000000E+00 0. -1.
        -11    1    4    4    0    0  0.10841830331E-01 -0.43012936660E-01 -0.58656133930E-02  0.44747341223E-01  0.51100000000E-03 0.  1.
         11    1    4    4    0    0  0.79707580894E-01 -0.43333921765E-01 -0.34096125765E-01  0.96922309819E-01  0.51100000000E-03 0. -1.
</event>
<event>
 8    1  0.2123879E+004  0.1043930E+01  0.7957747E-01            NaN
         13   -1    0    0    0    0  0.00000000000E+00  0.00000000000E+00  0.74505805969E-08  0.10566000000E+00  0.10566000000E+00 0.  1.
     999900   -1    0    0    0    0 -0.00000000000E+00 -0.00000000000E+00 -0.74505805969E-08  0.93827000000E+00  0.93827000000E+00 0. -1.
     999902    2    1    2    0    0 -0.17443887970E-01  0.56426489320E-03 -0.22261628812E-01  0.10156424101E+01  0.10152484019E+01 0.  0.
     999903    2    3    3    0    0 -0.75626792874E-01 -0.80994284425E-01 -0.49915014014E-01  0.12952630201E+00  0.44789154689E-01 0.  0.
         14    1    1    2    0    0  0.17443887970E-01 -0.56426489320E-03  0.22261628812E-01  0.28287589854E-01  0.00000000000E+00 0.  1.
     999901    1    3    3    0    0  0.58182904904E-01  0.81558549318E-01  0.27653385202E-01  0.88611610814E+00  0.88000000000E+00 0.  1.
        -11    1    4    4    0    0 -0.52670615183E-01 -0.26988450254E-01 -0.35793796835E-01  0.69166662228E-01  0.51100000000E-03 0. -1.
         11    1    4    4    0    0 -0.22956177691E-01 -0.54005834171E-01 -0.14121217179E-01  0.60359639780E-01  0.51100000000E-03 0.  1.
</event>
<event>
 8    1  0.2123879E+004  0.1043930E+01  0.7957747E-01            NaN
         13   -1    0    0    0    0  0.00000000000E+00  0.00000000000E+00  0.74505805969E-08  0.10566000000E+00  0.10566000000E+00 0.  1.
     999900   -1    0    0    0    0 -0.00000000000E+00 -0.00000000000E+00 -0.74505805969E-08  0.93827000000E+00  0.93827000000E+00 0.  1.
     999902    2    1    2    0    0 -0.85651337039E-02  0.94312665963E-02 -0.32885077522E-02  0.10307723183E+01  0.10306883368E+01 0.  0.
     999903    2    3    3    0    0 -0.33797794982E-01  0.12353111896E+00 -0.42500075051E-01  0.14218185552E+00  0.44801733913E-01 0.  0.
         14    1    1    2    0    0  0.85651337039E-02 -0.94312665963E-02  0.32885077522E-02  0.13157681719E-01  0.00000000000E+00 0.  1.
     999901    1    3    3    0    0  0.25232661278E-01 -0.11409985237E+00  0.39211567298E-01  0.88859046276E+00  0.88000000000E+00 0. -1.
        -11    1    4    4    0    0 -0.29307504568E-01  0.77233489497E-01 -0.55864163729E-02  0.82797408732E-01  0.51100000000E-03 0. -1.
         11    1    4    4    0    0 -0.44902904135E-02  0.46297629465E-01 -0.36913658678E-01  0.59384446786E-01  0.51100000000E-03 0.  1.
</event>
<event>
 8    1  0.2123879E+004  0.1043930E+01  0.7957747E-01            NaN
         13   -1    0    0    0    0  0.00000000000E+00  0.00000000000E+00  0.74505805969E-08  0.10566000000E+00  0.10566000000E+00 0.  1.
     999900   -1    0    0    0    0 -0.00000000000E+00 -0.00000000000E+00 -0.74505805969E-08  0.93827000000E+00  0.93827000000E+00 0.  1.
     999902    2    1    2    0    0 -0.10928054769E-01 -0.49035656227E-02  0.86732642975E-02  0.10291417327E+01  0.10290354771E+01 0.  0.
     999903    2    3    3    0    0  0.87440823000E-02 -0.12813364772E+00  0.32715498974E-01  0.14001256593E+00  0.45150017638E-01 0.  0.
         14    1    1    2    0    0  0.10928054769E-01  0.49035656227E-02 -0.86732642975E-02  0.14788267324E-01  0.00000000000E+00 0. -1.
     999901    1    3    3    0    0 -0.19672137069E-01  0.12323008209E+00 -0.24042234677E-01  0.88912916675E+00  0.88000000000E+00 0. -1.
        -11    1    4    4    0    0 -0.11312741076E-01 -0.98071104832E-01  0.32283667349E-01  0.10386730001E+00  0.51100000000E-03 0.  1.
         11    1    4    4    0    0  0.20056823376E-01 -0.30062542885E-01  0.43183162521E-03  0.36145265917E-01  0.51100000000E-03 0. -1.
</event>
<event>
 8    1  0.2123879E+004  0.1043930E+01  0.7957747E-01            NaN
         13   -1    0    0    0    0  0.00000000000E+00  0.00000000000E+00  0.74505805969E-08  0.10566000000E+00  0.10566000000E+00 0. -1.
     999900   -1    0    0    0    0 -0.00000000000E+00 -0.00000000000E+00 -0.74505805969E-08  0.93827000000E+00  0.93827000000E+00 0.  1.
     999902    2    1    2    0    0  0.13625697956E-03 -0.54634681983E-02  0.12441628669E-01  0.10303409539E+01  0.10302513378E+01 0.  0.
     999903    2    3    3    0    0 -0.44521584529E-01  0.83399158216E-01  0.95496650664E-01  0.14085288433E+00  0.42217693635E-01 0.  0.
         14    1    1    2    0    0 -0.13625697956E-03  0.54634681983E-02 -0.12441628669E-01  0.13589046127E-01  0.00000000000E+00 0.  1.
     999901    1    3    3    0    0  0.44657841508E-01 -0.88862626414E-01 -0.83055021996E-01  0.88948806954E+00  0.88000000000E+00 0.  1.
        -11    1    4    4    0    0 -0.34326198912E-02  0.70199464972E-02  0.33086953988E-01  0.34001031945E-01  0.51100000000E-03 0.  1.
         11    1    4    4    0    0 -0.41088964638E-01  0.76379211719E-01  0.62409696676E-01  0.10685185238E+00  0.51100000000E-03 0. -1.
</event>
<event>
 8    1  0.2123879E+004  0.1043930E+01  0.7957747E-01            NaN
         13   -1    0    0    0    0  0.00000000000E+00  0.00000000000E+00  0.74505805969E-08  0.10566000000E+00  0.10566000000E+00 0. -1.
     999900   -1    0    0    0    0 -0.00000000000E+00 -0.00000000000E+00 -0.74505805969E-08  0.93827000000E+00  0.93827000000E+00 0. -1.
     999902    2    1    2    0    0  0.12515037593E-01  0.66002571962E-02  0.14075693800E-02  0.10297113217E+01  0.10296131483E+01 0.  0.
     999903    2    3    3    0    0  0.18170468627E-01 -0.59526686354E-01 -0.11606324846E+00  0.13942813664E+00  0.45781386226E-01 0.  0.
         14    1    1    2    0    0 -0.12515037593E-01 -0.66002571962E-02 -0.14075693800E-02  0.14218678299E-01  0.00000000000E+00 0.  1.
     999901    1    3    3    0    0 -0.56554310342E-02  0.66126943550E-01  0.11747081784E+00  0.89028318506E+00  0.88000000000E+00 0.  1.
        -11    1    4    4    0    0  0.17495045214E-01 -0.52916557948E-01 -0.56046235326E-01  0.79042269244E-01  0.51100000000E-03 0.  1.
         11    1    4    4    0    0  0.67542341338E-03 -0.66101284058E-02 -0.60017013134E-01  0.60385867393E-01  0.51100000000E-03 0. -1.
</event>
<event>
 8    1  0.2123879E+004  0.1043930E+01  0.7957747E-01            NaN
         13   -1    0    0    0    0  0.00000000000E+00  0.00000000000E+00  0.74505805969E-08  0.10566000000E+00  0.10566000000E+00 0.  1.
     999900   -1    0    0    0    0 -0.00000000000E+00 -0.00000000000E+00 -0.74505805969E-08  0.93827000000E+00  0.93827000000E+00 0. -1.
     999902    2    1    2    0    0  0.95940680691E-02 -0.93536007236E-02 -0.38674281931E-02  0.10299839257E+01  0.10298895058E+01 0.  0.
     999903    2    3    3    0    0 -0.95150672286E-01 -0.47290280670E-03  0.90076633016E-01  0.13876239649E+00  0.45687293527E-01 0.  0.
         14    1    1    2    0    0 -0.95940680691E-02  0.93536007236E-02  0.38674281931E-02  0.13946074338E-01  0.00000000000E+00 0.  1.
     999901    1    3    3    0    0  0.10474474036E+00 -0.88806979169E-02 -0.93944061209E-01  0.89122152917E+00  0.88000000000E+00 0. -1.
        -11    1    4    4    0    0 -0.81650757894E-01  0.16923041425E-01  0.74079293566E-01  0.11154029968E+00  0.51100000000E-03 0. -1.
         11    1    4    4    0    0 -0.13499914393E-01 -0.17395944231E-01  0.15997339451E-01  0.27222096811E-01  0.51100000000E-03 0.  1.
</event>
<event>
 8    1  0.2123879E+004  0.1043930E+01  0.7957747E-01            NaN
         13   -1    0    0    0    0  0.00000000000E+00  0.00000000000E+00  0.74505805969E-08  0.10566000000E+00  0.10566000000E+00 0.  1.
     999900   -1    0    0    0    0 -0.00000000000E+00 -0.00000000000E+00 -0.74505805969E-08  0.93827000000E+00  0.93827000000E+00 0. -1.
     999902    2    1    2    0    0  0.12634046611E-01 -0.51632706792E-02 -0.11314254360E-02  0.10302347957E+01  0.10301437645E+01 0.  0.
     999903    2    3    3    0    0  0.69930956684E-01 -0.71935754668E-01  0.88999936452E-01  0.14126620067E+00  0.44385349610E-01 0.  0.
         14    1    1    2    0    0 -0.12634046611E-01  0.51632706792E-02  0.11314254360E-02  0.13695204321E-01  0.00000000000E+00 0.  1.
     999901    1    3    3    0    0 -0.57296910073E-01  0.66772483989E-01 -0.90131361889E-01  0.88896859501E+00  0.88000000000E+00 0. -1.
        -11    1    4    4    0    0  0.69806286365E-01 -0.57498799222E-01  0.59038802726E-01  0.10800403176E+00  0.51100000000E-03 0. -1.
         11    1    4    4    0    0  0.12467031894E-03 -0.14436955446E-01  0.29961133727E-01  0.33262168907E-01  0.51100000000E-03 0.  1.
</event>
<event>
 8    1  0.2123879E+004  0.1043930E+01  0.7957747E-01            NaN
         13   -1    0    0    0    0  0.00000000000E+00  0.00000000000E+00  0.74505805969E-08  0.10566000000E+00  0.10566000000E+00 0. -1.
     999900   -1    0    0    0    0 -0.00000000000E+00 -0.00000000000E+00 -0.74505805969E-08  0.93827000000E+00  0.93827000000E+00 0. -1.
     999902    2    1    2    0    0 -0.78095332579E-02 -0.11923053763E-01  0.20343430129E-02  0.10295325498E+01  0.10294318746E+01 0.  0.
     999903    2    3    3    0    0  0.44793704108E-01 -0.12500809847E+00  0.10327559301E-01  0.14069954785E+00  0.45345382050E-01 0.  0.
         14    1    1    2    0    0  0.78095332579E-02  0.11923053763E-01 -0.20343430129E-02  0.14397450199E-01  0.00000000000E+00 0. -1.
     999901    1    3    3    0    0 -0.52603237366E-01  0.11308504471E+00 -0.82932162883E-02  0.88883300195E+00  0.88000000000E+00 0. -1.
        -11    1    4    4    0    0  0.20566961754E-01 -0.78411713747E-01  0.27244774045E-01  0.85521550514E-01  0.51100000000E-03 0.  1.
         11    1    4    4    0    0  0.24226742354E-01 -0.46596384724E-01 -0.16917214744E-01  0.55177997337E-01  0.51100000000E-03 0. -1.
</event>
<event>
 8    1  0.2123879E+004  0.1043930E+01  0.7957747E-01            NaN
         13   -1    0    0    0    0  0.00000000000E+00  0.00000000000E+00  0.74505805969E-08  0.10566000000E+00  0.10566000000E+00 0.  1.
     999900   -1    0    0    0    0 -0.00000000000E+00 -0.00000000000E+00 -0.74505805969E-08  0.93827000000E+00  0.93827000000E+00 0. -1.
     999902    2    1    2    0    0  0.57174508101E-02 -0.90033282846E-02 -0.59897924297E-02  0.10316977975E+01  0.10316252802E+01 0.  0.
     999903    2    3    3    0    0  0.29811484635E-01  0.52124448743E-01  0.11873205631E+00  0.14047803386E+00  0.45067660576E-01 0.  0.
         14    1    1    2    0    0 -0.57174508101E-02  0.90033282846E-02  0.59897924297E-02  0.12232202472E-01  0.00000000000E+00 0.  1.
     999901    1    3    3    0    0 -0.24094033825E-01 -0.61127777027E-01 -0.12472184874E+00  0.89121976366E+00  0.88000000000E+00 0. -1.
        -11    1    4    4    0    0  0.22889636930E-01  0.35543906923E-01  0.11443679766E+00  0.12199732201E+00  0.51100000000E-03 0.  1.
         11    1    4    4    0    0  0.69218477048E-02  0.16580541820E-01  0.42952586485E-02  0.18480711851E-01  0.51100000000E-03 0. -1.
</event>
<event>
 8    1  0.2123879E+004  0.1043930E+01  0.7957747E-01            NaN
         13   -1    0    0    0    0  0.00000000000E+00  0.00000000000E+00  0.74505805969E-08  0.10566000000E+00  0.10566000000E+00 0. -1.
     999900   -1    0    0    0    0 -0.00000000000E+00 -0.00000000000E+00 -0.74505805969E-08  0.93827000000E+00  0.93827000000E+00 0. -1.
     999902    2    1    2    0    0 -0.10030825519E-01  0.47556550957E-02  0.87209501226E-02  0.10298130355E+01  0.10297162713E+01 0.  0.
     999903    2    3    3    0    0 -0.83191144612E-01 -0.85912062027E-01  0.59362514199E-01  0.14069120175E+00  0.44367298930E-01 0.  0.
         14    1    1    2    0    0  0.10030825519E-01 -0.47556550957E-02 -0.87209501226E-02  0.14116964512E-01  0.00000000000E+00 0.  1.
     999901    1    3    3    0    0  0.73160319092E-01  0.90667717123E-01 -0.50641564077E-01  0.88912183374E+00  0.88000000000E+00 0. -1.
        -11    1    4    4    0    0 -0.46792952213E-01 -0.30818741649E-01  0.71034887502E-02  0.56480933837E-01  0.51100000000E-03 0.  1.
         11    1    4    4    0    0 -0.36398192398E-01 -0.55093320378E-01  0.52259025449E-01  0.84210267913E-01  0.51100000000E-03 0. -1.
</event>
<event>
 8    1  0.2123879E+004  0.1043930E+01  0.7957747E-01            NaN
         13   -1    0    0    0    0  0.00000000000E+00  0.00000000000E+00  0.74505805969E-08  0.10566000000E+00  0.10566000000E+00 0.  1.
     999900   -1    0    0    0    0 -0.00000000000E+00 -0.00000000000E+00 -0.74505805969E-08  0.93827000000E+00  0.93827000000E+00 0. -1.
     999902    2    1    2    0    0  0.39175932160E-02 -0.93274377612E-02  0.41773805063E-02  0.10329847207E+01  0.10329267322E+01 0.  0.
     999903    2    3    3    0    0  0.82325985089E-01 -0.10565751715E+00 -0.26345787378E-01  0.14373839715E+00  0.45006083484E-01 0.  0.
         14    1    1    2    0    0 -0.39175932160E-02  0.93274377612E-02 -0.41773805063E-02  0.10945279334E-01  0.00000000000E+00 0. -1.
     999901    1    3    3    0    0 -0.78408391873E-01  0.96330079392E-01  0.30523167884E-01  0.88924632352E+00  0.88000000000E+00 0.  1.
        -11    1    4    4    0    0  0.87696189715E-02 -0.44015294931E-01 -0.30919713462E-02  0.44989707852E-01  0.51100000000E-03 0.  1.
         11    1    4    4    0    0  0.73556366118E-01 -0.61642222221E-01 -0.23253816032E-01  0.98748689297E-01  0.51100000000E-03 0. -1.
</event>
<event>
 8    1  0.2123879E+004  0.1043930E+01  0.7957747E-01            NaN
         13   -1    0    0    0    0  0.00000000000E+00  0.00000000000E+00  0.74505805969E-08  0.10566000000E+00  0.10566000000E+00 0.  1.
     999900   -1    0    0    0    0 -0.00000000000E+00 -0.00000000000E+00 -0.74505805969E-08  0.93827000000E+00  0.93827000000E+00 0.  1.
     999902    2    1    2    0    0 -0.22220111773E-02  0.47969162949E-02 -0.12995854854E-01  0.10299000327E+01  0.10298044656E+01 0.  0.
     999903    2    3    3    0    0 -0.41329943301E-01  0.12276214875E+00 -0.11036722473E-01  0.14116550279E+00  0.55019819656E-01 0.  0.
         14    1    1    2    0    0  0.22220111773E-02 -0.47969162949E-02  0.12995854854E-01  0.14029967320E-01  0.00000000000E+00 0.  1.
     999901    1    3    3    0    0  0.39107932124E-01 -0.11796523246E+00 -0.19591323808E-02  0.88873452989E+00  0.88000000000E+00 0.  1.
        -11    1    4    4    0    0  0.37107711250E-02  0.26895322101E-01 -0.21628465513E-01  0.34715699830E-01  0.51100000000E-03 0.  1.
         11    1    4    4    0    0 -0.45040714426E-01  0.95866826650E-01  0.10591743040E-01  0.10644980296E+00  0.51100000000E-03 0. -1.
</event>
<event>
 7    1  0.2123879E+004  0.1043930E+01  0.7957747E-01            NaN
         13   -1    0    0    0    0  0.00000000000E+00  0.00000000000E+00  0.74505805969E-08  0.10566000000E+00  0.10566000000E+00 0.  1.
     999900   -1    0    0    0    0 -0.00000000000E+00 -0.00000000000E+00 -0.74505805969E-08  0.93827000000E+00  0.93827000000E+00 0. -1.
     999903    2    1    2    0    0  0.16438153976E-01  0.40168766999E-01 -0.15888736340E-03  0.61711565641E-01  0.43869685892E-01 0.  0.
         14    1    1    2    0    0 -0.20876996783E-01  0.50649368714E-01 -0.76639488865E-01  0.94206256689E-01  0.00000000000E+00 0. -1.
     999901    1    1    2    0    0  0.44388428063E-02 -0.90818135713E-01  0.76798376229E-01  0.88801217767E+00  0.88000000000E+00 0.  1.
        -11    1    3    3    0    0 -0.74839270902E-02  0.35304621067E-01 -0.60442442284E-02  0.36595347282E-01  0.51100000000E-03 0. -1.
         11    1    3    3    0    0  0.23922081067E-01  0.48641459319E-02  0.58853568650E-02  0.25116218359E-01  0.51100000000E-03 0.  1.
</event>
<event>
 8    1  0.2123879E+004  0.1043930E+01  0.7957747E-01            NaN
         13   -1    0    0    0    0  0.00000000000E+00  0.00000000000E+00  0.74505805969E-08  0.10566000000E+00  0.10566000000E+00 0. -1.
     999900   -1    0    0    0    0 -0.00000000000E+00 -0.00000000000E+00 -0.74505805969E-08  0.93827000000E+00  0.93827000000E+00 0.  1.
     999902    2    1    2    0    0 -0.70947530563E-02  0.94994164294E-02 -0.78124967633E-02  0.10297310726E+01  0.10296331737E+01 0.  0.
     999903    2    3    3    0    0 -0.10064490473E+00  0.35487684690E-01  0.78475843941E-01  0.14019597004E+00  0.45909468739E-01 0.  0.
         14    1    1    2    0    0  0.70947530563E-02 -0.94994164294E-02  0.78124967633E-02  0.14198927393E-01  0.00000000000E+00 0. -1.
     999901    1    3    3    0    0  0.93550151671E-01 -0.25988268260E-01 -0.86288340705E-01  0.88953510257E+00  0.88000000000E+00 0. -1.
        -11    1    4    4    0    0 -0.48524211696E-01 -0.31759199838E-02  0.19140190545E-01  0.52261779568E-01  0.51100000000E-03 0.  1.
         11    1    4    4    0    0 -0.52120693031E-01  0.38663604673E-01  0.59335653396E-01  0.87934190468E-01  0.51100000000E-03 0. -1.
</event>
<event>
 8    1  0.2123879E+004  0.1043930E+01  0.7957747E-01            NaN
         13   -1    0    0    0    0  0.00000000000E+00  0.00000000000E+00  0.74505805969E-08  0.10566000000E+00  0.10566000000E+00 0. -1.
     999900   -1    0    0    0    0 -0.00000000000E+00 -0.00000000000E+00 -0.74505805969E-08  0.93827000000E+00  0.93827000000E+00 0.  1.
     999902    2    1    2    0    0  0.45621068179E-03 -0.10157046696E-01  0.10508430362E-01  0.10293080701E+01  0.10292042083E+01 0.  0.
     999903    2    3    3    0    0  0.12402078041E+00 -0.45268537185E-01  0.76312499228E-02  0.13997725547E+00  0.45880296868E-01 0.  0.
         14    1    1    2    0    0 -0.45621068179E-03  0.10157046696E-01 -0.10508430362E-01  0.14621929915E-01  0.00000000000E+00 0.  1.
     999901    1    3    3    0    0 -0.12356456973E+00  0.35111490489E-01  0.28771804397E-02  0.88933081462E+00  0.88000000000E+00 0.  1.
        -11    1    4    4    0    0  0.27360771290E-01 -0.98327887098E-02  0.21406056354E-01  0.36107837225E-01  0.51100000000E-03 0.  1.
         11    1    4    4    0    0  0.96660009121E-01 -0.35435748476E-01 -0.13774806431E-01  0.10386941824E+00  0.51100000000E-03 0. -1.
</event>
<event>
 8    1  0.2123879E+004  0.1043930E+01  0.7957747E-01            NaN
         13   -1    0    0    0    0  0.00000000000E+00  0.00000000000E+00  0.74505805969E-08  0.10566000000E+00  0.10566000000E+00 0. -1.
     999900   -1    0    0    0    0 -0.00000000000E+00 -0.00000000000E+00 -0.74505805969E-08  0.93827000000E+00  0.93827000000E+00 0. -1.
     999902    2    1    2    0    0  0.48505613336E-02 -0.12516923126E-01  0.40395090090E-02  0.10299114786E+01  0.10298160684E+01 0.  0.
     999903    2    3    3    0    0  0.75225848329E-01  0.82394691255E-01 -0.69588949180E-01  0.13896701038E+00  0.44959923505E-01 0.  0.
         14    1    1    2    0    0 -0.48505613336E-02  0.12516923126E-01 -0.40395090090E-02  0.14018521421E-01  0.00000000000E+00 0.  1.
     999901    1    3    3    0    0 -0.70375286995E-01 -0.94911614380E-01  0.73628458189E-01  0.89094446820E+00  0.88000000000E+00 0.  1.
        -11    1    4    4    0    0  0.11045233683E-01 -0.43950993460E-02 -0.10712755351E-01  0.16010569434E-01  0.51100000000E-03 0.  1.
         11    1    4    4    0    0  0.64180614646E-01  0.86789790601E-01 -0.58876193829E-01  0.12295644094E+00  0.51100000000E-03 0. -1.
</event>
<event>
 8    1  0.2123879E+004  0.1043930E+01  0.7957747E-01            NaN
         13   -1    0    0    0    0  0.00000000000E+00  0.00000000000E+00  0.74505805969E-08  0.10566000000E+00  0.10566000000E+00 0.  1.
     999900   -1    0    0    0    0 -0.00000000000E+00 -0.00000000000E+00 -0.74505805969E-08  0.93827000000E+00  0.93827000000E+00 0. -1.
     999902    2    1    2    0    0 -0.14964153662E-02  0.30670050194E-02 -0.13517722835E-01  0.10299881705E+01  0.10298938085E+01 0.  0.
     999903    2    3    3    0    0  0.57584947894E-01  0.11584539647E+00 -0.31979660106E-01  0.14063423861E+00  0.44934489010E-01 0.  0.
         14    1    1    2    0    0  0.14964153662E-02 -0.30670050194E-02  0.13517722835E-01  0.13941829485E-01  0.00000000000E+00 0.  1.
     999901    1    3    3    0    0 -0.59081363260E-01 -0.11277839145E+00  0.18461937271E-01  0.88935393190E+00  0.88000000000E+00 0. -1.
        -11    1    4    4    0    0  0.40538650615E-01  0.67518812239E-01 -0.40699409260E-01  0.88650297433E-01  0.51100000000E-03 0. -1.
         11    1    4    4    0    0  0.17046297279E-01  0.48326584230E-01  0.87197491535E-02  0.51983941179E-01  0.51100000000E-03 0.  1.
</event>
<event>
 8    1  0.2123879E+004  0.1043930E+01  0.7957747E-01            NaN
         13   -1    0    0    0    0  0.00000000000E+00  0.00000000000E+00  0.74505805969E-08  0.10566000000E+00  0.10566000000E+00 0. -1.
     999900   -1    0    0    0    0 -0.00000000000E+00 -0.00000000000E+00 -0.74505805969E-08  0.93827000000E+00  0.93827000000E+00 0.  1.
     999902    2    1    2    0    0  0.15488618651E-02 -0.13813814202E-01 -0.46575926034E-02  0.10292700681E+01  0.10291656618E+01 0.  0.
     999903    2    3    3    0    0 -0.28985133344E-01  0.57556355587E-01 -0.11458312256E+00  0.13903995840E+00  0.45276329702E-01 0.  0.
         14    1    1    2    0    0 -0.15488618651E-02  0.13813814202E-01  0.46575926034E-02  0.14659931949E-01  0.00000000000E+00 0. -1.
     999901    1    3    3    0    0  0.30533995210E-01 -0.71370169789E-01  0.10992552996E+00  0.89023010965E+00  0.88000000000E+00 0. -1.
        -11    1    4    4    0    0  0.40348581693E-02  0.42097325208E-01 -0.61956327520E-01  0.75015415155E-01  0.51100000000E-03 0.  1.
         11    1    4    4    0    0 -0.33019991514E-01  0.15459030378E-01 -0.52626795042E-01  0.64024543241E-01  0.51100000000E-03 0. -1.
</event>
<event>
 8    1  0.2123879E+004  0.1043930E+01  0.7957747E-01            NaN
         13   -1    0    0    0    0  0.00000000000E+00  0.00000000000E+00  0.74505805969E-08  0.10566000000E+00  0.10566000000E+00 0. -1.
     999900   -1    0    0    0    0 -0.00000000000E+00 -0.00000000000E+00 -0.74505805969E-08  0.93827000000E+00  0.93827000000E+00 0. -1.
     999902    2    1    2    0    0  0.84621788198E-02 -0.10670358011E-01  0.67128872536E-02  0.10287468559E+01  0.10286348067E+01 0.  0.
     999903    2    3    3    0    0 -0.11743475283E+00 -0.26809041016E-01 -0.49595248218E-01  0.13785903992E+00  0.45119623089E-01 0.  0.
         14    1    1    2    0    0 -0.84621788198E-02  0.10670358011E-01 -0.67128872536E-02  0.15183144132E-01  0.00000000000E+00 0.  1.
     999901    1    3    3    0    0  0.12589693165E+00  0.16138683005E-01  0.56308135472E-01  0.89088781595E+00  0.88000000000E+00 0. -1.
        -11    1    4    4    0    0 -0.76656851056E-01 -0.16199438908E-02 -0.46831528468E-01  0.89846258751E-01  0.51100000000E-03 0. -1.
         11    1    4    4    0    0 -0.40777901779E-01 -0.25189097125E-01 -0.27637197503E-02  0.48012781166E-01  0.51100000000E-03 0.  1.
</event>
<event>
 8    1  0.2123879E+004  0.1043930E+01  0.7957747E-01            NaN
         13   -1    0    0    0    0  0.00000000000E+00  0.00000000000E+00  0.74505805969E-08  0.10566000000E+00  0.10566000000E+00 0.  1.
     999900   -1    0    0    0    0 -0.00000000000E+00 -0.00000000000E+00 -0.74505805969E-08  0.93827000000E+00  0.93827000000E+00 0.  1.
     999902    2    1    2    0    0  0.10770802389E-01 -0.90734813380E-02 -0.76779028076E-03  0.10298258251E+01  0.10297292374E+01 0.  0.
     999903    2    3    3    0    0  0.33941996246E-01 -0.12119986326E+00 -0.45822434390E-01  0.14126566917E+00  0.44886833590E-01 0.  0.
         14    1    1    2    0    0 -0.10770802389E-01  0.90734813380E-02  0.76779028076E-03  0.14104174900E-01  0.00000000000E+00 0. -1.
     999901    1    3    3    0    0 -0.23171193857E-01  0.11212638192E+00  0.45054644109E-01  0.88856015593E+00  0.88000000000E+00 0. -1.
        -11    1    4    4    0    0  0.20043292570E-03 -0.72096391880E-01 -0.36989466729E-01  0.81033398457E-01  0.51100000000E-03 0.  1.
         11    1    4    4    0    0  0.33741563320E-01 -0.49103471379E-01 -0.88329676609E-02  0.60232270715E-01  0.51100000000E-03 0. -1.
</event>
<event>
 8    1  0.2123879E+004  0.1043930E+01  0.7957747E-01            NaN
         13   -1    0    0    0    0  0.00000000000E+00  0.00000000000E+00  0.74505805969E-08  0.10566000000E+00  0.10566000000E+00 0.  1.
     999900   -1    0    0    0    0 -0.00000000000E+00 -0.00000000000E+00 -0.74505805969E-08  0.93827000000E+00  0.93827000000E+00 0.  1.
     999902    2    1    2    0    0  0.50345796139E-02 -0.60385371594E-02 -0.90621245813E-02  0.10319327910E+01  0.10318630491E+01 0.  0.
     999903    2    3    3    0    0 -0.12173940291E+00  0.49941980356E-01 -0.23623665899E-01  0.14096842608E+00  0.44713934517E-01 0.  0.
         14    1    1    2    0    0 -0.50345796139E-02  0.60385371594E-02  0.90621245813E-02  0.11997209044E-01  0.00000000000E+00 0.  1.
     999901    1    3    3    0    0  0.12677398252E+00 -0.55980517516E-01  0.14561541317E-01  0.89096436487E+00  0.88000000000E+00 0.  1.
        -11    1    4    4    0    0 -0.41778327053E-01  0.39166411552E-01 -0.14310135127E-02  0.57286519583E-01  0.51100000000E-03 0. -1.
         11    1    4    4    0    0 -0.79961075855E-01  0.10775568804E-01 -0.22192652386E-01  0.83681906502E-01  0.51100000000E-03 0.  1.
</event>
<event>
 8    1  0.2123879E+004  0.1043930E+01  0.7957747E-01            NaN
         13   -1    0    0    0    0  0.00000000000E+00  0.00000000000E+00  0.74505805969E-08  0.10566000000E+00  0.10566000000E+00 0.  1.
     999900   -1    0    0    0    0 -0.00000000000E+00 -0.00000000000E+00 -0.74505805969E-08  0.93827000000E+00  0.93827000000E+00 0.  1.
     999902    2    1    2    0    0 -0.12729442550E-01 -0.20808550691E-02  0.73358316244E-02  0.10290914323E+01  0.10289844474E+01 0.  0.
     999903    2    3    3    0    0 -0.20208381497E-01 -0.55392321503E-01 -0.11716963356E+00  0.13869845287E+00  0.45076045032E-01 0.  0.
         14    1    1    2    0    0  0.12729442550E-01  0.20808550691E-02 -0.73358316244E-02  0.14838567689E-01  0.00000000000E+00 0. -1.
     999901    1    3    3    0    0  0.74789389472E-02  0.53311466434E-01  0.12450546518E+00  0.89039297944E+00  0.88000000000E+00 0. -1.
        -11    1    4    4    0    0 -0.29949065391E-02 -0.56800851134E-01 -0.92157239273E-01  0.10829831036E+00  0.51100000000E-03 0.  1.
         11    1    4    4    0    0 -0.17213474958E-01  0.14085296311E-02 -0.25012394284E-01  0.30400142511E-01  0.51100000000E-03 0. -1.
</event>
<event>
 8    1  0.2123879E+004  0.1043930E+01  0.7957747E-01            NaN
         13   -1    0    0    0    0  0.00000000000E+00  0.00000000000E+00  0.74505805969E-08  0.10566000000E+00  0.10566000000E+00 0.  1.
     999900   -1    0    0    0    0 -0.00000000000E+00 -0.00000000000E+00 -0.74505805969E-08  0.93827000000E+00  0.93827000000E+00 0.  1.
     999902    2    1    2    0    0 -0.63608822606E-02 -0.73976322016E-02 -0.99577315933E-02  0.10299893327E+01  0.10298949866E+01 0.  0.
     999903    2    3    3    0    0  0.12634636859E-01 -0.12930478464E+00  0.29316170142E-01  0.14051498070E+00  0.44784602177E-01 0.  0.
         14    1    1    2    0    0  0.63608822606E-02  0.73976322016E-02  0.99577315933E-02  0.13940667265E-01  0.00000000000E+00 0.  1.
     999901    1    3    3    0    0 -0.18995519120E-01  0.12190715243E+00 -0.39273901735E-01  0.88947435203E+00  0.88000000000E+00 0.  1.
        -11    1    4    4    0    0  0.21662055642E-01 -0.41459027425E-01  0.22591835165E-01  0.51949473018E-01  0.51100000000E-03 0.  1.
         11    1    4    4    0    0 -0.90274187835E-02 -0.87845757211E-01  0.67243349768E-02  0.88565507687E-01  0.51100000000E-03 0. -1.
</event>
<event>
 8    1  0.2123879E+004  0.1043930E+01  0.7957747E-01            NaN
         13   -1    0    0    0    0  0.00000000000E+00  0.00000000000E+00  0.74505805969E-08  0.10566000000E+00  0.10566000000E+00 0. -1.
     999900   -1    0    0    0    0 -0.00000000000E+00 -0.00000000000E+00 -0.74505805969E-08  0.93827000000E+00  0.93827000000E+00 0.  1.
     999902    2    1    2    0    0 -0.45884731213E-02 -0.11479254161E-01 -0.54739691400E-02  0.10304099519E+01  0.10303212496E+01 0.  0.
     999903    2    3    3    0    0  0.10790811187E+00 -0.67648252467E-01  0.40703349573E-01  0.14027356756E+00  0.42420094539E-01 0.  0.
         14    1    1    2    0    0  0.45884731213E-02  0.11479254161E-01  0.54739691400E-02  0.13520048070E-01  0.00000000000E+00 0. -1.
     999901    1    3    3    0    0 -0.11249658500E+00  0.56168998306E-01 -0.46177318713E-01  0.89013638436E+00  0.88000000000E+00 0. -1.
        -11    1    4    4    0    0  0.69801837223E-01 -0.59640220733E-01  0.42751302130E-01  0.10127777329E+00  0.51100000000E-03 0.  1.
         11    1    4    4    0    0  0.38106274652E-01 -0.80080317345E-02 -0.20479525568E-02  0.38995794270E-01  0.51100000000E-03 0. -1.
</event>
<event>
 8    1  0.2123879E+004  0.1043930E+01  0.7957747E-01            NaN
         13   -1    0    0    0    0  0.00000000000E+00  0.00000000000E+00  0.74505805969E-08  0.10566000000E+00  0.10566000000E+00 0. -1.
     999900   -1    0    0    0    0 -0.00000000000E+00 -0.00000000000E+00 -0.74505805969E-08  0.93827000000E+00  0.93827000000E+00 0.  1.
     999902    2    1    2    0    0  0.42571949554E-02  0.57162089893E-02  0.11696390457E-01  0.10302331280E+01  0.10301420745E+01 0.  0.
     999903    2    3    3    0    0  0.88460214755E-02 -0.12830501272E+00 -0.28970300052E-01  0.13914585674E+00  0.44518117425E-01 0.  0.
         14    1    1    2    0    0 -0.42571949554E-02 -0.57162089893E-02 -0.11696390457E-01  0.13696872045E-01  0.00000000000E+00 0.  1.
     999901    1    3    3    0    0 -0.45888265201E-02  0.13402122171E+00  0.40666690509E-01  0.89108727121E+00  0.88000000000E+00 0. -1.
        -11    1    4    4    0    0 -0.76043506069E-02 -0.51295884476E-01 -0.30913195559E-01  0.60373675497E-01  0.51100000000E-03 0.  1.
         11    1    4    4    0    0  0.16450372082E-01 -0.77009128244E-01  0.19428955069E-02  0.78772181247E-01  0.51100000000E-03 0. -1.
</event>
<event>
 8    1  0.2123879E+004  0.1043930E+01  0.7957747E-01            NaN
         13   -1    0    0    0    0  0.00000000000E+00  0.00000000000E+00  0.74505805969E-08  0.10566000000E+00  0.10566000000E+00 0.  1.
     999900   -1    0    0    0    0 -0.00000000000E+00 -0.00000000000E+00 -0.74505805969E-08  0.93827000000E+00  0.93827000000E+00 0. -1.
     999902    2    1    2    0    0 -0.10988113502E-02 -0.57345853326E-02 -0.11562455438E-01  0.10309768833E+01  0.10308955091E+01 0.  0.
     999903    2    3    3    0    0 -0.83858022220E-01 -0.86807964736E-01  0.56241160325E-01  0.14079751370E+00  0.45750203463E-01 0.  0.
         14    1    1    2    0    0  0.10988113502E-02  0.57345853326E-02  0.11562455438E-01  0.12953116655E-01  0.00000000000E+00 0.  1.
     999901    1    3    3    0    0  0.82759210870E-01  0.81073379404E-01 -0.67803615763E-01  0.89017936965E+00  0.88000000000E+00 0. -1.
        -11    1    4    4    0    0 -0.22223551429E-01 -0.27064209596E-01  0.40471683570E-01  0.53521733634E-01  0.51100000000E-03 0. -1.
         11    1    4    4    0    0 -0.61634470791E-01 -0.59743755140E-01  0.15769476755E-01  0.87275780065E-01  0.51100000000E-03 0.  1.
</event>
<event>
 8    1  0.2123879E+004  0.1043930E+01  0.7957747E-01            NaN
         13   -1    0    0    0    0  0.00000000000E+00  0.00000000000E+00  0.74505805969E-08  0.10566000000E+00  0.10566000000E+00 0. -1.
     999900   -1    0    0    0    0 -0.00000000000E+00 -0.00000000000E+00 -0.74505805969E-08  0.93827000000E+00  0.93827000000E+00 0. -1.
     999902    2    1    2    0    0 -0.53121950930E-02 -0.12466757653E-01 -0.25644700546E-02  0.10301381194E+01  0.10300457898E+01 0.  0.
     999903    2    3    3    0    0 -0.76274464468E-01  0.79755132683E-01  0.72179588399E-01  0.13933668532E+00  0.45012706821E-01 0.  0.
         14    1    1    2    0    0  0.53121950930E-02  0.12466757653E-01  0.25644700546E-02  0.13791880574E-01  0.00000000000E+00 0.  1.
     999901    1    3    3    0    0  0.70962269375E-01 -0.92221890337E-01 -0.74744058453E-01  0.89080143411E+00  0.88000000000E+00 0. -1.
        -11    1    4    4    0    0 -0.73840588710E-01  0.70878519119E-01  0.47205667025E-01  0.11271571822E+00  0.51100000000E-03 0. -1.
         11    1    4    4    0    0 -0.24338757582E-02  0.88766135640E-02  0.24973921373E-01  0.26620967100E-01  0.51100000000E-03 0.  1.
</event>
<event>
 8    1  0.2123879E+004  0.1043930E+01  0.7957747E-01            NaN
         13   -1    0    0    0    0  0.00000000000E+00  0.00000000000E+00  0.74505805969E-08  0.10566000000E+00  0.10566000000E+00 0. -1.
     999900   -1    0    0    0    0 -0.00000000000E+00 -0.00000000000E+00 -0.74505805969E-08  0.93827000000E+00  0.93827000000E+00 0.  1.
     999902    2    1    2    0    0 -0.64467199042E-02  0.11383713710E-01  0.46417768302E-02  0.10300485293E+01  0.10299549881E+01 0.  0.
     999903    2    3    3    0    0  0.90078098517E-01 -0.55639466515E-01 -0.76476634571E-01  0.13853894223E+00  0.46201177599E-01 0.  0.
         14    1    1    2    0    0  0.64467199042E-02 -0.11383713710E-01 -0.46417768302E-02  0.13881470653E-01  0.00000000000E+00 0.  1.
     999901    1    3    3    0    0 -0.96524818421E-01  0.67023180225E-01  0.81118411401E-01  0.89150958712E+00  0.88000000000E+00 0.  1.
        -11    1    4    4    0    0  0.16403459738E-01 -0.22543615414E-01 -0.42686491840E-01  0.50987113998E-01  0.51100000000E-03 0. -1.
         11    1    4    4    0    0  0.73674638779E-01 -0.33095851101E-01 -0.33790142731E-01  0.87551828228E-01  0.51100000000E-03 0.  1.
</event>
<event>
 7    1  0.2123879E+004  0.1043930E+01  0.7957747E-01            NaN
         13   -1    0    0    0    0  0.00000000000E+00  0.00000000000E+00  0.74505805969E-08  0.10566000000E+00  0.10566000000E+00 0. -1.
     999900   -1    0    0    0    0 -0.00000000000E+00 -0.00000000000E+00 -0.74505805969E-08  0.93827000000E+00  0.93827000000E+00 0.  1.
     999903    2    1    2    0    0 -0.32276261683E-03  0.10174919982E+00 -0.15079344813E-01  0.11205797748E+00  0.44458968018E-01 0.  0.
         14    1    1    2    0    0 -0.45841744562E-02  0.92468849003E-02  0.43224482121E-01  0.44439570097E-01  0.00000000000E+00 0. -1.
     999901    1    1    2    0    0  0.49069370730E-02 -0.11099608472E+00 -0.28145137308E-01  0.88743245242E+00  0.88000000000E+00 0.  1.
        -11    1    3    3    0    0 -0.17855278858E-01  0.18271246524E-01 -0.62209045396E-02  0.26298482977E-01  0.51100000000E-03 0.  1.
         11    1    3    3    0    0  0.17532516241E-01  0.83477953299E-01 -0.88584402736E-02  0.85759494505E-01  0.51100000000E-03 0. -1.
</event>
<event>
 8    1  0.2123879E+004  0.1043930E+01  0.7957747E-01            NaN
         13   -1    0    0    0    0  0.00000000000E+00  0.00000000000E+00  0.74505805969E-08  0.10566000000E+00  0.10566000000E+00 0. -1.
     999900   -1    0    0    0    0 -0.00000000000E+00 -0.00000000000E+00 -0.74505805969E-08  0.93827000000E+00  0.93827000000E+00 0.  1.
     999902    2    1    2    0    0 -0.18489311181E-02  0.54745622610E-02 -0.12896974519E-01  0.10297977203E+01  0.10297007446E+01 0.  0.
     999903    2    3    3    0    0 -0.77140534440E-01 -0.10577822590E+00  0.14692631739E-01  0.13917591796E+00  0.44881706563E-01 0.  0.
         14    1    1    2    0    0  0.18489311181E-02 -0.54745622610E-02  0.12896974519E-01  0.14132279716E-01  0.00000000000E+00 0. -1.
     999901    1    3    3    0    0  0.75291603322E-01  0.11125278816E+00 -0.27589606258E-01  0.89062180233E+00  0.88000000000E+00 0. -1.
        -11    1    4    4    0    0 -0.45123149279E-01 -0.71204644705E-01  0.30229990757E-01  0.89556202971E-01  0.51100000000E-03 0.  1.
         11    1    4    4    0    0 -0.32017385161E-01 -0.34573581194E-01 -0.15537359018E-01  0.49619714987E-01  0.51100000000E-03 0. -1.
</event>
<event>
 8    1  0.2123879E+004  0.1043930E+01  0.7957747E-01            NaN
         13   -1    0    0    0    0  0.00000000000E+00  0.00000000000E+00  0.74505805969E-08  0.10566000000E+00  0.10566000000E+00 0. -1.
     999900   -1    0    0    0    0 -0.00000000000E+00 -0.00000000000E+00 -0.74505805969E-08  0.93827000000E+00  0.93827000000E+00 0. -1.
     999902    2    1    2    0    0  0.13459607247E-01 -0.91676557197E-02 -0.24066670993E-02  0.10274679532E+01  0.10273360676E+01 0.  0.
     999903    2    3    3    0    0 -0.81574305018E-01 -0.41575687491E-01  0.91257467725E-01  0.13681948429E+00  0.44818978527E-01 0.  0.
         14    1    1    2    0    0 -0.13459607247E-01  0.91676557197E-02  0.24066670993E-02  0.16462046810E-01  0.00000000000E+00 0. -1.
     999901    1    3    3    0    0  0.95033912265E-01  0.32408031771E-01 -0.93664134824E-01  0.89064846890E+00  0.88000000000E+00 0.  1.
        -11    1    4    4    0    0 -0.81896139953E-01 -0.40531106979E-01  0.95638571978E-01  0.13227526580E+00  0.51100000000E-03 0.  1.
         11    1    4    4    0    0  0.32183493540E-03 -0.10445805119E-02 -0.43811042536E-02  0.45442184865E-02  0.51100000000E-03 0. -1.
</event>
<event>
 8    1  0.2123879E+004  0.1043930E+01  0.7957747E-01            NaN
         13   -1    0    0    0    0  0.00000000000E+00  0.00000000000E+00  0.74505805969E-08  0.10566000000E+00  0.10566000000E+00 0. -1.
     999900   -1    0    0    0    0 -0.00000000000E+00 -0.00000000000E+00 -0.74505805969E-08  0.93827000000E+00  0.93827000000E+00 0. -1.
     999902    2    1    2    0    0 -0.91707761540E-02  0.57786883744E-02  0.96131192414E-02  0.10294417829E+01  0.10293398252E+01 0.  0.
     999903    2    3    3    0    0 -0.76078839643E-01  0.10326816670E+00 -0.34258410742E-01  0.14045044516E+00  0.45829954655E-01 0.  0.
         14    1    1    2    0    0  0.91707761540E-02 -0.57786883744E-02 -0.96131192414E-02  0.14488217149E-01  0.00000000000E+00 0.  1.
     999901    1    3    3    0    0  0.66908063489E-01 -0.97489478329E-01  0.43871529983E-01  0.88899133769E+00  0.88000000000E+00 0.  1.
        -11    1    4    4    0    0 -0.62678029520E-01  0.47439990686E-01 -0.23386919267E-01  0.82014006210E-01  0.51100000000E-03 0.  1.
         11    1    4    4    0    0 -0.13400810123E-01  0.55828176018E-01 -0.10871491475E-01  0.58436438952E-01  0.51100000000E-03 0. -1.
</event>
<event>
 8    1  0.2123879E+004  0.1043930E+01  0.7957747E-01            NaN
         13   -1    0    0    0    0  0.00000000000E+00  0.00000000000E+00  0.74505805969E-08  0.10566000000E+00  0.10566000000E+00 0.  1.
     999900   -1    0    0    0    0 -0.00000000000E+00 -0.00000000000E+00 -0.74505805969E-08  0.93827000000E+00  0.93827000000E+00 0.  1.
     999902    2    1    2    0    0 -0.90292580948E-02 -0.10050933362E-01  0.16954351657E-02  0.10303129789E+01  0.10302229910E+01 0.  0.
     999903    2    3    3    0    0  0.11973823181E+00 -0.55720122737E-01  0.81188379567E-02  0.13974686602E+00  0.44958812230E-01 0.  0.
         14    1    1    2    0    0  0.90292580948E-02  0.10050933362E-01 -0.16954351657E-02  0.13617021099E-01  0.00000000000E+00 0. -1.
     999901    1    3    3    0    0 -0.12876748990E+00  0.45669189374E-01 -0.64234027910E-02  0.89056611288E+00  0.88000000000E+00 0. -1.
        -11    1    4    4    0    0  0.52571772122E-01 -0.47606150326E-01 -0.38933022162E-02  0.71032075122E-01  0.51100000000E-03 0.  1.
         11    1    4    4    0    0  0.67166459688E-01 -0.81139724104E-02  0.12012140173E-01  0.68714790896E-01  0.51100000000E-03 0. -1.
</event>
<event>
 8    1  0.2123879E+004  0.1043930E+01  0.7957747E-01            NaN
         13   -1    0    0    0    0  0.00000000000E+00  0.00000000000E+00  0.74505805969E-08  0.10566000000E+00  0.10566000000E+00 0. -1.
     999900   -1    0    0    0    0 -0.00000000000E+00 -0.00000000000E+00 -0.74505805969E-08  0.93827000000E+00  0.93827000000E+00 0. -1.
     999902    2    1    2    0    0 -0.12838657767E-01 -0.13317739654E-02  0.91078576890E-02  0.10281326006E+01  0.10280112289E+01 0.  0.
     999903    2    3    3    0    0 -0.15091545340E-01 -0.46328835853E-01  0.12292680040E+00  0.13965943683E+00  0.44940452451E-01 0.  0.
         14    1    1    2    0    0  0.12838657767E-01  0.13317739654E-02 -0.91078576890E-02  0.15797399369E-01  0.00000000000E+00 0. -1.
     999901    1    3    3    0    0  0.22528875736E-02  0.44997061888E-01 -0.11381894271E+00  0.88847316380E+00  0.88000000000E+00 0. -1.
        -11    1    4    4    0    0 -0.19619335890E-01 -0.41739473800E-02  0.63943265832E-01  0.67017479389E-01  0.51100000000E-03 0.  1.
         11    1    4    4    0    0  0.45277905495E-02 -0.42154888473E-01  0.58983534566E-01  0.72641957437E-01  0.51100000000E-03 0. -1.
</event>
<event>
 8    1  0.2123879E+004  0.1043930E+01  0.7957747E-01            NaN
         13   -1    0    0    0    0  0.00000000000E+00  0.00000000000E+00  0.74505805969E-08  0.10566000000E+00  0.10566000000E+00 0.  1.
     999900   -1    0    0    0    0 -0.00000000000E+00 -0.00000000000E+00 -0.74505805969E-08  0.93827000000E+00  0.93827000000E+00 0.  1.
     999902    2    1    2    0    0 -0.12348338462E-01 -0.62757638512E-02 -0.13791089487E-02  0.10300099204E+01  0.10299158546E+01 0.  0.
     999903    2    3    3    0    0 -0.11674984286E+00  0.14291077203E-01 -0.63715890792E-01  0.14141071747E+00  0.45853195951E-01 0.  0.
         14    1    1    2    0    0  0.12348338462E-01  0.62757638512E-02  0.13791089487E-02  0.13920079604E-01  0.00000000000E+00 0.  1.
     999901    1    3    3    0    0  0.10440150440E+00 -0.20566841055E-01  0.62336781844E-01  0.88859920293E+00  0.88000000000E+00 0. -1.
        -11    1    4    4    0    0 -0.60674691087E-01  0.10610921943E-01 -0.77235925704E-02  0.62079987163E-01  0.51100000000E-03 0. -1.
         11    1    4    4    0    0 -0.56075151778E-01  0.36801552600E-02 -0.55992298222E-01  0.79330730306E-01  0.51100000000E-03 0.  1.
</event>
<event>
 8    1  0.2123879E+004  0.1043930E+01  0.7957747E-01            NaN
         13   -1    0    0    0    0  0.00000000000E+00  0.00000000000E+00  0.74505805969E-08  0.10566000000E+00  0.10566000000E+00 0. -1.
     999900   -1    0    0    0    0 -0.00000000000E+00 -0.00000000000E+00 -0.74505805969E-08  0.93827000000E+00  0.93827000000E+00 0.  1.
     999902    2    1    2    0    0  0.32168372165E-02 -0.81974853109E-02  0.76177068678E-02  0.10322862779E+01  0.10322206078E+01 0.  0.
     999903    2    3    3    0    0 -0.13017048305E+00 -0.16823476644E-01 -0.29919390235E-01  0.14140153864E+00  0.43264780079E-01 0.  0.
         14    1    1    2    0    0 -0.32168372165E-02  0.81974853109E-02 -0.76177068678E-02  0.11643722129E-01  0.00000000000E+00 0. -1.
     999901    1    3    3    0    0  0.13338732026E+00  0.86259913327E-02  0.37537097102E-01  0.89088473923E+00  0.88000000000E+00 0. -1.
        -11    1    4    4    0    0 -0.61493304234E-01  0.58168152042E-02 -0.30927555095E-01  0.69079928995E-01  0.51100000000E-03 0.  1.
         11    1    4    4    0    0 -0.68677178812E-01 -0.22640291848E-01  0.10081648600E-02  0.72321609646E-01  0.51100000000E-03 0. -1.
</event>
<event>
 8    1  0.2123879E+004  0.1043930E+01  0.7957747E-01            NaN
         13   -1    0    0    0    0  0.00000000000E+00  0.00000000000E+00  0.74505805969E-08  0.10566000000E+00  0.10566000000E+00 0. -1.
     999900   -1    0    0    0    0 -0.00000000000E+00 -0.00000000000E+00 -0.74505805969E-08  0.93827000000E+00  0.93827000000E+00 0. -1.
     999902    2    1    2    0    0  0.50520105015E-02  0.42904335438E-02  0.12081491770E-01  0.10301498304E+01  0.10300576586E+01 0.  0.
     999903    2    3    3    0    0  0.13334717977E+00  0.70906579159E-02 -0.23321639670E-02  0.14072572170E+00  0.44345709804E-01 0.  0.
         14    1    1    2    0    0 -0.50520105015E-02 -0.42904335438E-02 -0.12081491770E-01  0.13780169574E-01  0.00000000000E+00 0.  1.
     999901    1    3    3    0    0 -0.12829516926E+00 -0.28002243721E-02  0.14413655737E-01  0.88942410873E+00  0.88000000000E+00 0.  1.
        -11    1    4    4    0    0  0.37608717573E-01 -0.12885041782E-01 -0.14175825187E-01  0.42209656241E-01  0.51100000000E-03 0.  1.
         11    1    4    4    0    0  0.95738462192E-01  0.19975699698E-01  0.11843661220E-01  0.98516065459E-01  0.51100000000E-03 0. -1.
</event>
<event>
 8    1  0.2123879E+004  0.1043930E+01  0.7957747E-01            NaN
         13   -1    0    0    0    0  0.00000000000E+00  0.00000000000E+00  0.74505805969E-08  0.10566000000E+00  0.10566000000E+00 0.  1.
     999900   -1    0    0    0    0 -0.00000000000E+00 -0.00000000000E+00 -0.74505805969E-08  0.93827000000E+00  0.93827000000E+00 0.  1.
     999902    2    1    2    0    0  0.12979814933E-01  0.27144144118E-02  0.17251910079E-02  0.10305576432E+01  0.10304708808E+01 0.  0.
     999903    2    3    3    0    0  0.10247788865E+00 -0.36366684961E-01  0.79220292514E-01  0.14177041995E+00  0.44707312482E-01 0.  0.
         14    1    1    2    0    0 -0.12979814933E-01 -0.27144144118E-02 -0.17251910079E-02  0.13372356759E-01  0.00000000000E+00 0. -1.
     999901    1    3    3    0    0 -0.89498073718E-01  0.39081099373E-01 -0.77495101506E-01  0.88878722329E+00  0.88000000000E+00 0.  1.
        -11    1    4    4    0    0  0.79402935276E-01 -0.65680803661E-02  0.57625938248E-01  0.98330949808E-01  0.51100000000E-03 0. -1.
         11    1    4    4    0    0  0.23074953375E-01 -0.29798604595E-01  0.21594354266E-01  0.43439470142E-01  0.51100000000E-03 0.  1.
</event>
<event>
 7    1  0.2123879E+004  0.1043930E+01  0.7957747E-01            NaN
         13   -1    0    0    0    0  0.00000000000E+00  0.00000000000E+00  0.74505805969E-08  0.10566000000E+00  0.10566000000E+00 0. -1.
     999900   -1    0    0    0    0 -0.00000000000E+00 -0.00000000000E+00 -0.74505805969E-08  0.93827000000E+00  0.93827000000E+00 0. -1.
     999903    2    1    2    0    0  0.56369579029E-01  0.81950737918E-01 -0.15871911908E-01  0.11037307931E+00  0.45131432097E-01 0.  0.
         14    1    1    2    0    0  0.11012049454E-01 -0.45946400618E-01 -0.15398484042E-01  0.49693563705E-01  0.00000000000E+00 0.  1.
     999901    1    1    2    0    0 -0.67381628482E-01 -0.36004337300E-01  0.31270395950E-01  0.88386335699E+00  0.88000000000E+00 0.  1.
        -11    1    3    3    0    0  0.51108058283E-01  0.35045553156E-01 -0.10697655790E-01  0.62888197445E-01  0.51100000000E-03 0. -1.
         11    1    3    3    0    0  0.52615207451E-02  0.46905184763E-01 -0.51742561180E-02  0.47484881863E-01  0.51100000000E-03 0.  1.
</event>
<event>
 8    1  0.2123879E+004  0.1043930E+01  0.7957747E-01            NaN
         13   -1    0    0    0    0  0.00000000000E+00  0.00000000000E+00  0.74505805969E-08  0.10566000000E+00  0.10566000000E+00 0. -1.
     999900   -1    0    0    0    0 -0.00000000000E+00 -0.00000000000E+00 -0.74505805969E-08  0.93827000000E+00  0.93827000000E+00 0.  1.
     999902    2    1    2    0    0  0.29089893800E-02 -0.80255309170E-02 -0.10092948850E-01  0.10307111127E+01  0.10306263430E+01 0.  0.
     999903    2    3    3    0    0  0.11427940079E+00  0.66203917856E-01 -0.15860838346E-01  0.14057255708E+00  0.45456984357E-01 0.  0.
         14    1    1    2    0    0 -0.29089893800E-02  0.80255309170E-02  0.10092948850E-01  0.13218887329E-01  0.00000000000E+00 0. -1.
     999901    1    3    3    0    0 -0.11137041141E+00 -0.74229448773E-01  0.57678894954E-02  0.89013855559E+00  0.88000000000E+00 0. -1.
        -11    1    4    4    0    0  0.75292076445E-01  0.29384510974E-01 -0.28092535867E-01  0.85567505241E-01  0.51100000000E-03 0. -1.
         11    1    4    4    0    0  0.38987324343E-01  0.36819406882E-01  0.12231697522E-01  0.55005051839E-01  0.51100000000E-03 0.  1.
</event>
<event>
 8    1  0.2123879E+004  0.1043930E+01  0.7957747E-01            NaN
         13   -1    0    0    0    0  0.00000000000E+00  0.00000000000E+00  0.74505805969E-08  0.10566000000E+00  0.10566000000E+00 0.  1.
     999900   -1    0    0    0    0 -0.00000000000E+00 -0.00000000000E+00 -0.74505805969E-08  0.93827000000E+00  0.93827000000E+00 0. -1.
     999902    2    1    2    0    0 -0.91758006356E-02 -0.82451853816E-02  0.39567652243E-02  0.10309749087E+01  0.10308935095E+01 0.  0.
     999903    2    3    3    0    0  0.99877344697E-01  0.14435230293E-02 -0.87035112710E-01  0.13953451170E+00  0.43785858076E-01 0.  0.
         14    1    1    2    0    0  0.91758006356E-02  0.82451853816E-02 -0.39567652243E-02  0.12955091290E-01  0.00000000000E+00 0. -1.
     999901    1    3    3    0    0 -0.10905314533E+00 -0.96887084109E-02  0.90991877935E-01  0.89144039701E+00  0.88000000000E+00 0.  1.
        -11    1    4    4    0    0  0.61494730566E-01 -0.17777473345E-01 -0.38340103726E-01  0.74618128632E-01  0.51100000000E-03 0. -1.
         11    1    4    4    0    0  0.38382614131E-01  0.19220996374E-01 -0.48695008984E-01  0.64916383064E-01  0.51100000000E-03 0.  1.
</event>
<event>
 8    1  0.2123879E+004  0.1043930E+01  0.7957747E-01            NaN
         13   -1    0    0    0    0  0.00000000000E+00  0.00000000000E+00  0.74505805969E-08  0.10566000000E+00  0.10566000000E+00 0. -1.
     999900   -1    0    0    0    0 -0.00000000000E+00 -0.00000000000E+00 -0.74505805969E-08  0.93827000000E+00  0.93827000000E+00 0. -1.
     999902    2    1    2    0    0 -0.47461041058E-02 -0.60764053952E-02  0.13200063045E-01  0.10286430817E+01  0.10285294841E+01 0.  0.
     999903    2    3    3    0    0 -0.79565838429E-02 -0.13171646632E+00  0.12531879692E-02  0.13963326178E+00  0.45643647864E-01 0.  0.
         14    1    1    2    0    0  0.47461041058E-02  0.60764053952E-02 -0.13200063045E-01  0.15286918300E-01  0.00000000000E+00 0.  1.
     999901    1    3    3    0    0  0.32104797371E-02  0.12564006092E+00  0.11946875076E-01  0.88900981992E+00  0.88000000000E+00 0.  1.
        -11    1    4    4    0    0  0.40872831584E-02 -0.11056044305E+00 -0.13033218245E-01  0.11140216942E+00  0.51100000000E-03 0.  1.
         11    1    4    4    0    0 -0.12043867001E-01 -0.21156023264E-01  0.14286406214E-01  0.28231092366E-01  0.51100000000E-03 0. -1.
</event>
<event>
 8    1  0.2123879E+004  0.1043930E+01  0.7957747E-01            NaN
         13   -1    0    0    0    0  0.00000000000E+00  0.00000000000E+00  0.74505805969E-08  0.10566000000E+00  0.10566000000E+00 0.  1.
     999900   -1    0    0    0    0 -0.00000000000E+00 -0.00000000000E+00 -0.74505805969E-08  0.93827000000E+00  0.93827000000E+00 0. -1.
     999902    2    1    2    0    0  0.63956454980E-02 -0.11168934130E-01  0.43987424589E-02  0.10303285918E+01  0.10302388115E+01 0.  0.
     999903    2    3    3    0    0 -0.24781887742E-01  0.10249170058E+00 -0.77244014709E-01  0.13872536259E+00  0.46469320744E-01 0.  0.
         14    1    1    2    0    0 -0.63956454980E-02  0.11168934130E-01 -0.43987424589E-02  0.13601408241E-01  0.00000000000E+00 0. -1.
     999901    1    3    3    0    0  0.31177533240E-01 -0.11366063471E+00  0.81642757168E-01  0.89160322917E+00  0.88000000000E+00 0. -1.
        -11    1    4    4    0    0 -0.21688313253E-02  0.50423068334E-01 -0.61996950844E-01  0.79944184807E-01  0.51100000000E-03 0.  1.
         11    1    4    4    0    0 -0.22613056417E-01  0.52068632245E-01 -0.15247063866E-01  0.58781177786E-01  0.51100000000E-03 0. -1.
</event>
<event>
 8    1  0.2123879E+004  0.1043930E+01  0.7957747E-01            NaN
         13   -1    0    0    0    0  0.00000000000E+00  0.00000000000E+00  0.74505805969E-08  0.10566000000E+00  0.10566000000E+00 0. -1.
     999900   -1    0    0    0    0 -0.00000000000E+00 -0.00000000000E+00 -0.74505805969E-08  0.93827000000E+00  0.93827000000E+00 0.  1.
     999902    2    1    2    0    0  0.57333186523E-03  0.13684099048E-01  0.50525256336E-02  0.10293316682E+01  0.10292281437E+01 0.  0.
     999903    2    3    3    0    0  0.86711510474E-02  0.48295689933E-01 -0.12280108429E+00  0.13938218510E+00  0.44041170432E-01 0.  0.
         14    1    1    2    0    0 -0.57333186523E-03 -0.13684099048E-01 -0.50525256336E-02  0.14598331804E-01  0.00000000000E+00 0.  1.
     999901    1    3    3    0    0 -0.80978191822E-02 -0.34611590885E-01  0.12785360992E+00  0.88994948310E+00  0.88000000000E+00 0. -1.
        -11    1    4    4    0    0  0.22420234910E-01  0.31742536799E-01 -0.49203886952E-01  0.62701987114E-01  0.51100000000E-03 0.  1.
         11    1    4    4    0    0 -0.13749083863E-01  0.16553153134E-01 -0.73597197336E-01  0.76680197982E-01  0.51100000000E-03 0. -1.
</event>
<event>
 8    1  0.2123879E+004  0.1043930E+01  0.7957747E-01            NaN
         13   -1    0    0    0    0  0.00000000000E+00  0.00000000000E+00  0.74505805969E-08  0.10566000000E+00  0.10566000000E+00 0.  1.
     999900   -1    0    0    0    0 -0.00000000000E+00 -0.00000000000E+00 -0.74505805969E-08  0.93827000000E+00  0.93827000000E+00 0. -1.
     999902    2    1    2    0    0 -0.88957437878E-02  0.29361251433E-02 -0.95765784299E-02  0.10305335101E+01  0.10304464321E+01 0.  0.
     999903    2    3    3    0    0 -0.86321841785E-01 -0.75059038513E-01  0.67741394745E-01  0.14033346783E+00  0.44936243716E-01 0.  0.
         14    1    1    2    0    0  0.88957437878E-02 -0.29361251433E-02  0.95765784299E-02  0.13396489944E-01  0.00000000000E+00 0.  1.
     999901    1    3    3    0    0  0.77426097997E-01  0.77995163656E-01 -0.77317973175E-01  0.89020004223E+00  0.88000000000E+00 0. -1.
        -11    1    4    4    0    0 -0.41874292749E-02  0.46627986078E-02  0.10780579345E-01  0.12480315172E-01  0.51100000000E-03 0. -1.
         11    1    4    4    0    0 -0.82134412510E-01 -0.79721837121E-01  0.56960815401E-01  0.12785315266E+00  0.51100000000E-03 0.  1.
</event>
<event>
 8    1  0.2123879E+004  0.1043930E+01  0.7957747E-01            NaN
         13   -1    0    0    0    0  0.00000000000E+00  0.00000000000E+00  0.74505805969E-08  0.10566000000E+00  0.10566000000E+00 0. -1.
     999900   -1    0    0    0    0 -0.00000000000E+00 -0.00000000000E+00 -0.74505805969E-08  0.93827000000E+00  0.93827000000E+00 0. -1.
     999902    2    1    2    0    0  0.13588505956E-01  0.33579026174E-02 -0.69728633817E-02  0.10282921028E+01  0.10281731882E+01 0.  0.
     999903    2    3    3    0    0 -0.68981824236E-01 -0.10425006679E+00  0.33732582315E-01  0.13697046177E+00  0.44681671738E-01 0.  0.
         14    1    1    2    0    0 -0.13588505956E-01 -0.33579026174E-02  0.69728633817E-02  0.15637897168E-01  0.00000000000E+00 0. -1.
     999901    1    3    3    0    0  0.82570330192E-01  0.10760796940E+00 -0.40705445697E-01  0.89132164106E+00  0.88000000000E+00 0.  1.
        -11    1    4    4    0    0 -0.17984807251E-01 -0.24818566110E-01  0.29404101714E-01  0.42476779942E-01  0.51100000000E-03 0. -1.
         11    1    4    4    0    0 -0.50997016985E-01 -0.79431500676E-01  0.43284806011E-02  0.94493681833E-01  0.51100000000E-03 0.  1.
</event>
<event>
 8    1  0.2123879E+004  0.1043930E+01  0.7957747E-01            NaN
         13   -1    0    0    0    0  0.00000000000E+00  0.00000000000E+00  0.74505805969E-08  0.10566000000E+00  0.10566000000E+00 0. -1.
     999900   -1    0    0    0    0 -0.00000000000E+00 -0.00000000000E+00 -0.74505805969E-08  0.93827000000E+00  0.93827000000E+00 0. -1.
     999902    2    1    2    0    0 -0.95978605385E-02 -0.77181270284E-02  0.97377419502E-03  0.10315753795E+01  0.10315013945E+01 0.  0.
     999903    2    3    3    0    0  0.23152775226E-01  0.84094629455E-01  0.10040969555E+00  0.14062662179E+00  0.45670363380E-01 0.  0.
         14    1    1    2    0    0  0.95978605385E-02  0.77181270284E-02 -0.97377419502E-03  0.12354620509E-01  0.00000000000E+00 0.  1.
     999901    1    3    3    0    0 -0.32750635765E-01 -0.91812756483E-01 -0.99435921355E-01  0.89094875770E+00  0.88000000000E+00 0. -1.
        -11    1    4    4    0    0  0.14700981171E-01  0.79673656599E-02  0.39053560022E-01  0.42485755664E-01  0.51100000000E-03 0.  1.
         11    1    4    4    0    0  0.84517940557E-02  0.76127263795E-01  0.61356135528E-01  0.98140866124E-01  0.51100000000E-03 0. -1.
</event>
<event>
 7    1  0.2123879E+004  0.1043930E+01  0.7957747E-01            NaN
         13   -1    0    0    0    0  0.00000000000E+00  0.00000000000E+00  0.74505805969E-08  0.10566000000E+00  0.10566000000E+00 0. -1.
     999900   -1    0    0    0    0 -0.00000000000E+00 -0.00000000000E+00 -0.74505805969E-08  0.93827000000E+00  0.93827000000E+00 0. -1.
     999903    2    1    2    0    0  0.48265388232E-01 -0.73762632668E-01  0.85950501795E-02  0.10074886861E+00  0.48020682620E-01 0.  0.
         14    1    1    2    0    0  0.29547629845E-01 -0.29881685424E-01 -0.32878695542E-01  0.53357156726E-01  0.00000000000E+00 0.  1.
     999901    1    1    2    0    0 -0.77813018077E-01  0.10364431809E+00  0.24283645363E-01  0.88982397466E+00  0.88000000000E+00 0. -1.
        -11    1    3    3    0    0  0.90468235443E-02 -0.43409123067E-01 -0.13643132208E-01  0.46396046805E-01  0.51100000000E-03 0. -1.
         11    1    3    3    0    0  0.39218564688E-01 -0.30353509601E-01  0.22238182387E-01  0.54352821805E-01  0.51100000000E-03 0.  1.
</event>
<event>
 8    1  0.2123879E+004  0.1043930E+01  0.7957747E-01            NaN
         13   -1    0    0    0    0  0.00000000000E+00  0.00000000000E+00  0.74505805969E-08  0.10566000000E+00  0.10566000000E+00 0.  1.
     999900   -1    0    0    0    0 -0.00000000000E+00 -0.00000000000E+00 -0.74505805969E-08  0.93827000000E+00  0.93827000000E+00 0. -1.
     999902    2    1    2    0    0 -0.13858665080E-01 -0.26925550952E-02  0.25207418982E-02  0.10295889195E+01  0.10294890366E+01 0.  0.
     999903    2    3    3    0    0 -0.42459459205E-01  0.55593438332E-01  0.11301029244E+00  0.14030651033E+00  0.44957252827E-01 0.  0.
         14    1    1    2    0    0  0.13858665080E-01  0.26925550952E-02 -0.25207418982E-02  0.14341080519E-01  0.00000000000E+00 0. -1.
     999901    1    3    3    0    0  0.28600794125E-01 -0.58285993428E-01 -0.11048955054E+00  0.88928240916E+00  0.88000000000E+00 0. -1.
        -11    1    4    4    0    0 -0.48531199266E-01  0.50937821189E-01  0.80541698305E-01  0.10694468297E+00  0.51100000000E-03 0. -1.
         11    1    4    4    0    0  0.60717400610E-02  0.46556171432E-02  0.32468594131E-01  0.33361827351E-01  0.51100000000E-03 0.  1.
</event>
<event>
 8    1  0.2123879E+004  0.1043930E+01  0.7957747E-01            NaN
         13   -1    0    0    0    0  0.00000000000E+00  0.00000000000E+00  0.74505805969E-08  0.10566000000E+00  0.10566000000E+00 0.  1.
     999900   -1    0    0    0    0 -0.00000000000E+00 -0.00000000000E+00 -0.74505805969E-08  0.93827000000E+00  0.93827000000E+00 0.  1.
     999902    2    1    2    0    0 -0.32265979762E-02 -0.11397532260E-01 -0.73487289370E-02  0.10299901832E+01  0.10298958486E+01 0.  0.
     999903    2    3    3    0    0  0.84832412913E-01  0.57513375752E-02 -0.10179257819E+00  0.14040145022E+00  0.46056726823E-01 0.  0.
         14    1    1    2    0    0  0.32265979762E-02  0.11397532260E-01  0.73487289370E-02  0.13939816825E-01  0.00000000000E+00 0.  1.
     999901    1    3    3    0    0 -0.88059010889E-01 -0.17148869835E-01  0.94443849252E-01  0.88958873295E+00  0.88000000000E+00 0.  1.
        -11    1    4    4    0    0  0.14228021903E-01 -0.17118969711E-01 -0.19655570965E-01  0.29700140104E-01  0.51100000000E-03 0. -1.
         11    1    4    4    0    0  0.70604391010E-01  0.22870307286E-01 -0.82137007224E-01  0.11070131012E+00  0.51100000000E-03 0.  1.
</event>
<event>
 8    1  0.2123879E+004  0.1043930E+01  0.7957747E-01            NaN
         13   -1    0    0    0    0  0.00000000000E+00  0.00000000000E+00  0.74505805969E-08  0.10566000000E+00  0.10566000000E+00 0.  1.
     999900   -1    0    0    0    0 -0.00000000000E+00 -0.00000000000E+00 -0.74505805969E-08  0.93827000000E+00  0.93827000000E+00 0. -1.
     999902    2    1    2    0    0 -0.10593394100E-01 -0.85219411819E-02  0.37406958579E-03  0.10303291394E+01  0.10302393664E+01 0.  0.
     999903    2    3    3    0    0 -0.13066955147E+00 -0.21102416299E-01 -0.25442634876E-01  0.14171051812E+00  0.43757280774E-01 0.  0.
         14    1    1    2    0    0  0.10593394100E-01  0.85219411819E-02 -0.37406958579E-03  0.13600860565E-01  0.00000000000E+00 0. -1.
     999901    1    3    3    0    0  0.12007615737E+00  0.12580475117E-01  0.25816704462E-01  0.88861862132E+00  0.88000000000E+00 0.  1.
        -11    1    4    4    0    0 -0.21753465847E-01 -0.71319865936E-02  0.11796413489E-01  0.25758396715E-01  0.51100000000E-03 0. -1.
         11    1    4    4    0    0 -0.10891608562E+00 -0.13970429705E-01 -0.37239048366E-01  0.11595212140E+00  0.51100000000E-03 0.  1.
</event>
<event>
 8    1  0.2123879E+004  0.1043930E+01  0.7957747E-01            NaN
         13   -1    0    0    0    0  0.00000000000E+00  0.00000000000E+00  0.74505805969E-08  0.10566000000E+00  0.10566000000E+00 0. -1.
     999900   -1    0    0    0    0 -0.00000000000E+00 -0.00000000000E+00 -0.74505805969E-08  0.93827000000E+00  0.93827000000E+00 0.  1.
     999902    2    1    2    0    0 -0.45743135520E-02 -0.17546306753E-02  0.13409809205E-01  0.10296532337E+01  0.10295542509E+01 0.  0.
     999903    2    3    3    0    0 -0.30835920812E-01 -0.11806393311E+00 -0.50137533009E-01  0.13934104656E+00  0.44857649594E-01 0.  0.
         14    1    1    2    0    0  0.45743135520E-02  0.17546306753E-02 -0.13409809205E-01  0.14276766307E-01  0.00000000000E+00 0.  1.
     999901    1    3    3    0    0  0.26261607260E-01  0.11630930244E+00  0.63547342214E-01  0.89031218713E+00  0.88000000000E+00 0. -1.
        -11    1    4    4    0    0 -0.29002415488E-01 -0.10969257990E+00 -0.29868039013E-01  0.11732844099E+00  0.51100000000E-03 0. -1.
         11    1    4    4    0    0 -0.18335053243E-02 -0.83713532114E-02 -0.20269493996E-01  0.22012605575E-01  0.51100000000E-03 0.  1.
</event>
<event>
 7    1  0.2123879E+004  0.1043930E+01  0.7957747E-01            NaN
         13   -1    0    0    0    0  0.00000000000E+00  0.00000000000E+00  0.74505805969E-08  0.10566000000E+00  0.10566000000E+00 0.  1.
     999900   -1    0    0    0    0 -0.00000000000E+00 -0.00000000000E+00 -0.74505805969E-08  0.93827000000E+00  0.93827000000E+00 0.  1.
     999903    2    1    2    0    0 -0.31562895304E-01  0.31310459111E-01  0.65031247982E-02  0.58418112549E-01  0.37333952804E-01 0.  0.
         14    1    1    2    0    0 -0.44254516827E-01 -0.57294060924E-01  0.67231784368E-01  0.98798707006E-01  0.00000000000E+00 0.  1.
     999901    1    1    2    0    0  0.75817412131E-01  0.25983601812E-01 -0.73734909166E-01  0.88671318045E+00  0.88000000000E+00 0.  1.
        -11    1    3    3    0    0 -0.28478187498E-01  0.20274380857E-01  0.20337749734E-01  0.40446790572E-01  0.51100000000E-03 0. -1.
         11    1    3    3    0    0 -0.30847078056E-02  0.11036078255E-01 -0.13834624936E-01  0.17971321977E-01  0.51100000000E-03 0.  1.
</event>
<event>
 8    1  0.2123879E+004  0.1043930E+01  0.7957747E-01            NaN
         13   -1    0    0    0    0  0.00000000000E+00  0.00000000000E+00  0.74505805969E-08  0.10566000000E+00  0.10566000000E+00 0.  1.
     999900   -1    0    0    0    0 -0.00000000000E+00 -0.00000000000E+00 -0.74505805969E-08  0.93827000000E+00  0.93827000000E+00 0. -1.
     999902    2    1    2    0    0  0.65584807320E-02  0.11798346721E-01  0.49379886310E-02  0.10295564692E+01  0.10294561307E+01 0.  0.
     999903    2    3    3    0    0 -0.91569000096E-02 -0.12982912739E+00 -0.87535739850E-02  0.13798887589E+00  0.44998374142E-01 0.  0.
         14    1    1    2    0    0 -0.65584807320E-02 -0.11798346721E-01 -0.49379886310E-02  0.14373530762E-01  0.00000000000E+00 0. -1.
     999901    1    3    3    0    0  0.15715380742E-01  0.14162747411E+00  0.13691562616E-01  0.89156759334E+00  0.88000000000E+00 0.  1.
        -11    1    4    4    0    0 -0.68561822774E-02 -0.32415749990E-01 -0.21818715026E-01  0.39674998793E-01  0.51100000000E-03 0. -1.
         11    1    4    4    0    0 -0.23007177322E-02 -0.97413377402E-01  0.13065141041E-01  0.98313877100E-01  0.51100000000E-03 0.  1.
</event>
<event>
 8    1  0.2123879E+004  0.1043930E+01  0.7957747E-01            NaN
         13   -1    0    0    0    0  0.00000000000E+00  0.00000000000E+00  0.74505805969E-08  0.10566000000E+00  0.10566000000E+00 0.  1.
     999900   -1    0    0    0    0 -0.00000000000E+00 -0.00000000000E+00 -0.74505805969E-08  0.93827000000E+00  0.93827000000E+00 0.  1.
     999902    2    1    2    0    0  0.24360744301E-02 -0.36922734664E-02  0.13613633936E-01  0.10296157284E+01  0.10295162213E+01 0.  0.
     999903    2    3    3    0    0 -0.25941035267E-01 -0.73929679766E-01  0.10820600463E+00  0.14131044858E+00  0.46060488249E-01 0.  0.
         14    1    1    2    0    0 -0.24360744301E-02  0.36922734664E-02 -0.13613633936E-01  0.14314271582E-01  0.00000000000E+00 0. -1.
     999901    1    3    3    0    0  0.28377109697E-01  0.70237406300E-01 -0.94592370697E-01  0.88830527984E+00  0.88000000000E+00 0.  1.
        -11    1    4    4    0    0 -0.76577695610E-02 -0.59322846246E-01  0.47936573845E-01  0.76655187394E-01  0.51100000000E-03 0. -1.
         11    1    4    4    0    0 -0.18283265706E-01 -0.14606833520E-01  0.60269430787E-01  0.64655261184E-01  0.51100000000E-03 0.  1.
</event>
<event>
 8    1  0.2123879E+004  0.1043930E+01  0.7957747E-01            NaN
         13   -1    0    0    0    0  0.00000000000E+00  0.00000000000E+00  0.74505805969E-08  0.10566000000E+00  0.10566000000E+00 0.  1.
     999900   -1    0    0    0    0 -0.00000000000E+00 -0.00000000000E+00 -0.74505805969E-08  0.93827000000E+00  0.93827000000E+00 0.  1.
     999902    2    1    2    0    0 -0.16622090125E-02 -0.10450045300E-01  0.85695225874E-02  0.10303137192E+01  0.10302237412E+01 0.  0.
     999903    2    3    3    0    0  0.12124183816E+00 -0.50811700911E-01 -0.21012895216E-01  0.14036451419E+00  0.44488681789E-01 0.  0.
         14    1    1    2    0    0  0.16622090125E-02  0.10450045300E-01 -0.85695225874E-02  0.13616280804E-01  0.00000000000E+00 0. -1.
     999901    1    3    3    0    0 -0.12290404717E+00  0.40361655611E-01  0.29582417803E-01  0.88994920501E+00  0.88000000000E+00 0. -1.
        -11    1    4    4    0    0  0.16949161215E-01  0.47190371782E-03  0.10496461299E-01  0.19948272602E-01  0.51100000000E-03 0.  1.
         11    1    4    4    0    0  0.10429267695E+00 -0.51283604628E-01 -0.31509356515E-01  0.12041624158E+00  0.51100000000E-03 0. -1.
</event>
<event>
 8    1  0.2536560E+004  0.1043930E+01  0.7957747E-01            NaN
         13   -1    0    0    0    0  0.00000000000E+00  0.00000000000E+00  0.74505805969E-08  0.10566000000E+00  0.10566000000E+00 0. -1.
     999900   -1    0    0    0    0 -0.00000000000E+00 -0.00000000000E+00 -0.74505805969E-08  0.93827000000E+00  0.93827000000E+00 0. -1.
     999902    2    1    2    0    0  0.90906448159E-02  0.46072183815E-02  0.97487403812E-02  0.10298266591E+01  0.10297300829E+01 0.  0.
     999903    2    3    3    0    0  0.40081011167E-01 -0.10285128111E+00 -0.71636194035E-01  0.13902295491E+00  0.44841545625E-01 0.  0.
         14    1    1    2    0    0 -0.90906448159E-02 -0.46072183815E-02 -0.97487403812E-02  0.14103340860E-01  0.00000000000E+00 0.  1.
     999901    1    3    3    0    0 -0.30990366351E-01  0.10745849949E+00  0.81384934416E-01  0.89080370423E+00  0.88000000000E+00 0.  1.
        -11    1    4    4    0    0  0.16167725252E-01 -0.55396507585E-01 -0.11633645085E-01  0.58870801008E-01  0.51100000000E-03 0.  1.
         11    1    4    4    0    0  0.23913285914E-01 -0.47454773526E-01 -0.60002548950E-01  0.80152153902E-01  0.51100000000E-03 0. -1.
</event>
<event>
 8    1  0.2123879E+004  0.1043930E+01  0.7957747E-01            NaN
         13   -1    0    0    0    0  0.00000000000E+00  0.00000000000E+00  0.74505805969E-08  0.10566000000E+00  0.10566000000E+00 0. -1.
     999900   -1    0    0    0    0 -0.00000000000E+00 -0.00000000000E+00 -0.74505805969E-08  0.93827000000E+00  0.93827000000E+00 0.  1.
     999902    2    1    2    0    0 -0.58032071007E-02 -0.43136472688E-02  0.16147785317E-01  0.10262371841E+01  0.10260846565E+01 0.  0.
     999903    2    3    3    0    0  0.85104013744E-01  0.75105248232E-01 -0.57227558149E-01  0.13497099217E+00  0.45372721420E-01 0.  0.
         14    1    1    2    0    0  0.58032071007E-02  0.43136472688E-02 -0.16147785317E-01  0.17692815944E-01  0.00000000000E+00 0.  1.
     999901    1    3    3    0    0 -0.90907220845E-01 -0.79418895501E-01  0.73375343466E-01  0.89126619188E+00  0.88000000000E+00 0. -1.
        -11    1    4    4    0    0  0.29311251482E-01  0.55919891866E-01 -0.26875100557E-01  0.68620083945E-01  0.51100000000E-03 0. -1.
         11    1    4    4    0    0  0.55792762262E-01  0.19185356366E-01 -0.30352457592E-01  0.66350908227E-01  0.51100000000E-03 0.  1.
</event>
<event>
 8    1  0.2123879E+004  0.1043930E+01  0.7957747E-01            NaN
         13   -1    0    0    0    0  0.00000000000E+00  0.00000000000E+00  0.74505805969E-08  0.10566000000E+00  0.10566000000E+00 0.  1.
     999900   -1    0    0    0    0 -0.00000000000E+00 -0.00000000000E+00 -0.74505805969E-08  0.93827000000E+00  0.93827000000E+00 0. -1.
     999902    2    1    2    0    0  0.69927853267E-03  0.13801770130E-01  0.13309212642E-02  0.10300465854E+01  0.10299530178E+01 0.  0.
     999903    2    3    3    0    0  0.73979433714E-01 -0.70529724950E-02 -0.10922591959E+00  0.13986249406E+00  0.45918565988E-01 0.  0.
         14    1    1    2    0    0 -0.69927853267E-03 -0.13801770130E-01 -0.13309212642E-02  0.13883414587E-01  0.00000000000E+00 0. -1.
     999901    1    3    3    0    0 -0.73280155181E-01  0.20854742625E-01  0.11055684085E+00  0.89018409135E+00  0.88000000000E+00 0.  1.
        -11    1    4    4    0    0  0.45057937993E-01 -0.25716355970E-01 -0.54805228903E-01  0.75468026188E-01  0.51100000000E-03 0. -1.
         11    1    4    4    0    0  0.28921495720E-01  0.18663383475E-01 -0.54420690684E-01  0.64394467876E-01  0.51100000000E-03 0.  1.
</event>
<event>
 8    1  0.2123879E+004  0.1043930E+01  0.7957747E-01            NaN
         13   -1    0    0    0    0  0.00000000000E+00  0.00000000000E+00  0.74505805969E-08  0.10566000000E+00  0.10566000000E+00 0.  1.
     999900   -1    0    0    0    0 -0.00000000000E+00 -0.00000000000E+00 -0.74505805969E-08  0.93827000000E+00  0.93827000000E+00 0.  1.
     999902    2    1    2    0    0 -0.33570422322E-02  0.45033273088E-02  0.13514396255E-01  0.10292948165E+01  0.10291907650E+01 0.  0.
     999903    2    3    3    0    0  0.23685540388E-01  0.32326845459E-01  0.12743416642E+00  0.14110386663E+00  0.45440121518E-01 0.  0.
         14    1    1    2    0    0  0.33570422322E-02 -0.45033273088E-02 -0.13514396255E-01  0.14635183482E-01  0.00000000000E+00 0. -1.
     999901    1    3    3    0    0 -0.27042582620E-01 -0.27823518150E-01 -0.11391977017E+00  0.88819094989E+00  0.88000000000E+00 0.  1.
        -11    1    4    4    0    0  0.20129727392E-01  0.52246335490E-03  0.88197824574E-01  0.90468758549E-01  0.51100000000E-03 0. -1.
         11    1    4    4    0    0  0.35558129956E-02  0.31804382104E-01  0.39236341850E-01  0.50635108076E-01  0.51100000000E-03 0.  1.
</event>
<event>
 7    1  0.2123879E+004  0.1043930E+01  0.7957747E-01            NaN
         13   -1    0    0    0    0  0.00000000000E+00  0.00000000000E+00  0.74505805969E-08  0.10566000000E+00  0.10566000000E+00 0. -1.
     999900   -1    0    0    0    0 -0.00000000000E+00 -0.00000000000E+00 -0.74505805969E-08  0.93827000000E+00  0.93827000000E+00 0. -1.
     999903    2    1    2    0    0 -0.32927924597E-01  0.78697275421E-01  0.17099667847E-01  0.98816643763E-01  0.46848917459E-01 0.  0.
         14    1    1    2    0    0  0.55291146620E-01  0.59141595568E-02 -0.24443242378E-01  0.60741750680E-01  0.00000000000E+00 0. -1.
     999901    1    1    2    0    0 -0.22363222023E-01 -0.84611434978E-01  0.73435745305E-02  0.88437160556E+00  0.88000000000E+00 0.  1.
        -11    1    3    3    0    0 -0.36833628093E-01  0.59278086198E-01 -0.39560034384E-02  0.69903639004E-01  0.51100000000E-03 0. -1.
         11    1    3    3    0    0  0.39057034964E-02  0.19419189224E-01  0.21055671286E-01  0.28913004759E-01  0.51100000000E-03 0.  1.
</event>
<event>
 8    1  0.2123879E+004  0.1043930E+01  0.7957747E-01            NaN
         13   -1    0    0    0    0  0.00000000000E+00  0.00000000000E+00  0.74505805969E-08  0.10566000000E+00  0.10566000000E+00 0.  1.
     999900   -1    0    0    0    0 -0.00000000000E+00 -0.00000000000E+00 -0.74505805969E-08  0.93827000000E+00  0.93827000000E+00 0.  1.
     999902    2    1    2    0    0  0.58716445941E-03  0.27376627786E-02  0.13516770042E-01  0.10301262820E+01  0.10300337927E+01 0.  0.
     999903    2    3    3    0    0  0.11234032947E+00 -0.27833835711E-01 -0.63140000599E-01  0.13922805718E+00  0.44751761912E-01 0.  0.
         14    1    1    2    0    0 -0.58716445941E-03 -0.27376627786E-02 -0.13516770042E-01  0.13803718049E-01  0.00000000000E+00 0. -1.
     999901    1    3    3    0    0 -0.11175316502E+00  0.30571498490E-01  0.76656770642E-01  0.89089822477E+00  0.88000000000E+00 0. -1.
        -11    1    4    4    0    0  0.95572767416E-01 -0.36257980039E-01 -0.40835148401E-01  0.11007527176E+00  0.51100000000E-03 0.  1.
         11    1    4    4    0    0  0.16767562058E-01  0.84241443281E-02 -0.22304852198E-01  0.29152785418E-01  0.51100000000E-03 0. -1.
</event>
<event>
 8    1  0.2123879E+004  0.1043930E+01  0.7957747E-01            NaN
         13   -1    0    0    0    0  0.00000000000E+00  0.00000000000E+00  0.74505805969E-08  0.10566000000E+00  0.10566000000E+00 0.  1.
     999900   -1    0    0    0    0 -0.00000000000E+00 -0.00000000000E+00 -0.74505805969E-08  0.93827000000E+00  0.93827000000E+00 0.  1.
     999902    2    1    2    0    0 -0.28507325798E-02 -0.67690713942E-02 -0.10172267358E-01  0.10313832065E+01  0.10313068877E+01 0.  0.
     999903    2    3    3    0    0 -0.11841939904E+00  0.46236955408E-01 -0.42986643513E-01  0.14164024428E+00  0.45311115253E-01 0.  0.
         14    1    1    2    0    0  0.28507325798E-02  0.67690713942E-02  0.10172267358E-01  0.12546793494E-01  0.00000000000E+00 0.  1.
     999901    1    3    3    0    0  0.11556866646E+00 -0.53006026803E-01  0.32814376155E-01  0.88974296222E+00  0.88000000000E+00 0. -1.
        -11    1    4    4    0    0 -0.26460272241E-01 -0.85002163222E-02 -0.62363935290E-02  0.28487776499E-01  0.51100000000E-03 0. -1.
         11    1    4    4    0    0 -0.91959126798E-01  0.54737171731E-01 -0.36750249984E-01  0.11315246778E+00  0.51100000000E-03 0.  1.
</event>
<event>
 8    1  0.2123879E+004  0.1043930E+01  0.7957747E-01            NaN
         13   -1    0    0    0    0  0.00000000000E+00  0.00000000000E+00  0.74505805969E-08  0.10566000000E+00  0.10566000000E+00 0. -1.
     999900   -1    0    0    0    0 -0.00000000000E+00 -0.00000000000E+00 -0.74505805969E-08  0.93827000000E+00  0.93827000000E+00 0.  1.
     999902    2    1    2    0    0 -0.93688160483E-02  0.60466094862E-02 -0.42538797500E-02  0.10319955250E+01  0.10319265148E+01 0.  0.
     999903    2    3    3    0    0  0.11285041066E-01 -0.72863973864E-01  0.11167208821E+00  0.14065255396E+00  0.43312524879E-01 0.  0.
         14    1    1    2    0    0  0.93688160483E-02 -0.60466094862E-02  0.42538797500E-02  0.11934474993E-01  0.00000000000E+00 0.  1.
     999901    1    3    3    0    0 -0.20653857114E-01  0.78910583350E-01 -0.11592596796E+00  0.89134297104E+00  0.88000000000E+00 0.  1.
        -11    1    4    4    0    0  0.19693646646E-01 -0.24076624393E-01  0.67411299854E-01  0.74243302926E-01  0.51100000000E-03 0.  1.
         11    1    4    4    0    0 -0.84086055796E-02 -0.48787349471E-01  0.44260788361E-01  0.66409251039E-01  0.51100000000E-03 0. -1.
</event>
<event>
 8    1  0.2123879E+004  0.1043930E+01  0.7957747E-01            NaN
         13   -1    0    0    0    0  0.00000000000E+00  0.00000000000E+00  0.74505805969E-08  0.10566000000E+00  0.10566000000E+00 0. -1.
     999900   -1    0    0    0    0 -0.00000000000E+00 -0.00000000000E+00 -0.74505805969E-08  0.93827000000E+00  0.93827000000E+00 0. -1.
     999902    2    1    2    0    0 -0.37715221243E-02 -0.11292413222E-01  0.29662224213E-02  0.10316604666E+01  0.10315875032E+01 0.  0.
     999903    2    3    3    0    0  0.52327160619E-01  0.27904796735E-01  0.11995264750E+00  0.14128453071E+00  0.45341719829E-01 0.  0.
         14    1    1    2    0    0  0.37715221243E-02  0.11292413222E-01 -0.29662224213E-02  0.12269533445E-01  0.00000000000E+00 0.  1.
     999901    1    3    3    0    0 -0.56098682743E-01 -0.39197209957E-01 -0.11698642508E+00  0.89037593584E+00  0.88000000000E+00 0. -1.
        -11    1    4    4    0    0  0.28145922391E-01  0.36104165003E-01  0.55432820074E-01  0.71894105045E-01  0.51100000000E-03 0. -1.
         11    1    4    4    0    0  0.24181238228E-01 -0.81993682682E-02  0.64519827427E-01  0.69390425668E-01  0.51100000000E-03 0.  1.
</event>
<event>
 8    1  0.2123879E+004  0.1043930E+01  0.7957747E-01            NaN
         13   -1    0    0    0    0  0.00000000000E+00  0.00000000000E+00  0.74505805969E-08  0.10566000000E+00  0.10566000000E+00 0. -1.
     999900   -1    0    0    0    0 -0.00000000000E+00 -0.00000000000E+00 -0.74505805969E-08  0.93827000000E+00  0.93827000000E+00 0.  1.
     999902    2    1    2    0    0 -0.13371895193E-01 -0.29900961584E-02 -0.16667004376E-02  0.10301268791E+01  0.10300343979E+01 0.  0.
     999903    2    3    3    0    0 -0.13515371062E-01 -0.13392178596E+00  0.12032543661E-01  0.14033432055E+00  0.37831592702E-01 0.  0.
         14    1    1    2    0    0  0.13371895193E-01  0.29900961584E-02  0.16667004376E-02  0.13803120894E-01  0.00000000000E+00 0.  1.
     999901    1    3    3    0    0  0.14347586984E-03  0.13093168980E+00 -0.13699244099E-01  0.88979255856E+00  0.88000000000E+00 0.  1.
        -11    1    4    4    0    0 -0.22391875926E-01 -0.46724725704E-01  0.92928323644E-02  0.52642320940E-01  0.51100000000E-03 0. -1.
         11    1    4    4    0    0  0.88765048631E-02 -0.87197060256E-01  0.27397112971E-02  0.87691999606E-01  0.51100000000E-03 0.  1.
</event>
<event>
 8    1  0.2123879E+004  0.1043930E+01  0.7957747E-01            NaN
         13   -1    0    0    0    0  0.00000000000E+00  0.00000000000E+00  0.74505805969E-08  0.10566000000E+00  0.10566000000E+00 0.  1.
     999900   -1    0    0    0    0 -0.00000000000E+00 -0.00000000000E+00 -0.74505805969E-08  0.93827000000E+00  0.93827000000E+00 0.  1.
     999902    2    1    2    0    0  0.11492364417E-01  0.76646051551E-03  0.78659625681E-02  0.10299824099E+01  0.10298879694E+01 0.  0.
     999903    2    3    3    0    0  0.84027789898E-01  0.73318358544E-01 -0.71483236287E-01  0.14047610798E+00  0.46769997514E-01 0.  0.
         14    1    1    2    0    0 -0.11492364417E-01 -0.76646051551E-03 -0.78659625681E-02  0.13947590069E-01  0.00000000000E+00 0.  1.
     999901    1    3    3    0    0 -0.72535425480E-01 -0.72551898029E-01  0.79349198855E-01  0.88950630195E+00  0.88000000000E+00 0. -1.
        -11    1    4    4    0    0  0.28412054292E-01  0.40173887837E-01 -0.54729134170E-01  0.73598405832E-01  0.51100000000E-03 0.  1.
         11    1    4    4    0    0  0.55615735605E-01  0.33144470707E-01 -0.16754102117E-01  0.66877702145E-01  0.51100000000E-03 0. -1.
</event>
<event>
 8    1  0.2123879E+004  0.1043930E+01  0.7957747E-01            NaN
         13   -1    0    0    0    0  0.00000000000E+00  0.00000000000E+00  0.74505805969E-08  0.10566000000E+00  0.10566000000E+00 0.  1.
     999900   -1    0    0    0    0 -0.00000000000E+00 -0.00000000000E+00 -0.74505805969E-08  0.93827000000E+00  0.93827000000E+00 0.  1.
     999902    2    1    2    0    0 -0.75575774332E-02  0.43306325916E-02 -0.11077631637E-01  0.10298379711E+01  0.10297415508E+01 0.  0.
     999903    2    3    3    0    0  0.88883869831E-01 -0.93422480541E-01  0.27042364485E-01  0.13837302061E+00  0.42281215331E-01 0.  0.
         14    1    1    2    0    0  0.75575774332E-02 -0.43306325916E-02  0.11077631637E-01  0.14092028881E-01  0.00000000000E+00 0.  1.
     999901    1    3    3    0    0 -0.96441447264E-01  0.97753113133E-01 -0.38119996122E-01  0.89146495051E+00  0.88000000000E+00 0.  1.
        -11    1    4    4    0    0  0.17384451324E-01 -0.13832097304E-01 -0.11031744316E-01  0.24809404816E-01  0.51100000000E-03 0.  1.
         11    1    4    4    0    0  0.71499418507E-01 -0.79590383237E-01  0.38074108801E-01  0.11356361580E+00  0.51100000000E-03 0. -1.
</event>
<event>
 8    1  0.2123879E+004  0.1043930E+01  0.7957747E-01            NaN
         13   -1    0    0    0    0  0.00000000000E+00  0.00000000000E+00  0.74505805969E-08  0.10566000000E+00  0.10566000000E+00 0. -1.
     999900   -1    0    0    0    0 -0.00000000000E+00 -0.00000000000E+00 -0.74505805969E-08  0.93827000000E+00  0.93827000000E+00 0.  1.
     999902    2    1    2    0    0 -0.89296724123E-02  0.10089560382E-01 -0.17890713044E-02  0.10303381254E+01  0.10302484718E+01 0.  0.
     999903    2    3    3    0    0 -0.10131528189E+00 -0.42662518163E-01  0.75575943694E-01  0.14056105887E+00  0.44281047946E-01 0.  0.
         14    1    1    2    0    0  0.89296724123E-02 -0.10089560382E-01  0.17890713044E-02  0.13591874566E-01  0.00000000000E+00 0. -1.
     999901    1    3    3    0    0  0.92385609473E-01  0.52752078545E-01 -0.77365014998E-01  0.88977706656E+00  0.88000000000E+00 0.  1.
        -11    1    4    4    0    0 -0.62275823219E-01 -0.33057569945E-02  0.47660691019E-01  0.78492093719E-01  0.51100000000E-03 0. -1.
         11    1    4    4    0    0 -0.39039458666E-01 -0.39356761169E-01  0.27915252675E-01  0.62068965156E-01  0.51100000000E-03 0.  1.
</event>
<event>
 8    1  0.2123879E+004  0.1043930E+01  0.7957747E-01            NaN
         13   -1    0    0    0    0  0.00000000000E+00  0.00000000000E+00  0.74505805969E-08  0.10566000000E+00  0.10566000000E+00 0.  1.
     999900   -1    0    0    0    0 -0.00000000000E+00 -0.00000000000E+00 -0.74505805969E-08  0.93827000000E+00  0.93827000000E+00 0.  1.
     999902    2    1    2    0    0 -0.84660912593E-02 -0.67226307629E-02 -0.11214968674E-01  0.10283529660E+01  0.10282349822E+01 0.  0.
     999903    2    3    3    0    0  0.12308057010E+00  0.41217154208E-01  0.37121823498E-02  0.13715962731E+00  0.44173550110E-01 0.  0.
         14    1    1    2    0    0  0.84660912593E-02  0.67226307629E-02  0.11214968674E-01  0.15577033990E-01  0.00000000000E+00 0.  1.
     999901    1    3    3    0    0 -0.13154666136E+00 -0.47939784971E-01 -0.14927151023E-01  0.89119333870E+00  0.88000000000E+00 0. -1.
        -11    1    4    4    0    0  0.62302835900E-01  0.53353098435E-02 -0.14656115531E-01  0.64227499840E-01  0.51100000000E-03 0.  1.
         11    1    4    4    0    0  0.60777734203E-01  0.35881844364E-01  0.18368297880E-01  0.72932127474E-01  0.51100000000E-03 0. -1.
</event>
<event>
 8    1  0.2123879E+004  0.1043930E+01  0.7957747E-01            NaN
         13   -1    0    0    0    0  0.00000000000E+00  0.00000000000E+00  0.74505805969E-08  0.10566000000E+00  0.10566000000E+00 0. -1.
     999900   -1    0    0    0    0 -0.00000000000E+00 -0.00000000000E+00 -0.74505805969E-08  0.93827000000E+00  0.93827000000E+00 0. -1.
     999902    2    1    2    0    0  0.13459516946E-01  0.23408848379E-02  0.45758001284E-02  0.10295224921E+01  0.10294216752E+01 0.  0.
     999903    2    3    3    0    0  0.21940817954E-01 -0.10697724203E+00  0.73359402440E-01  0.14005435363E+00  0.48042587777E-01 0.  0.
         14    1    1    2    0    0 -0.13459516946E-01 -0.23408848379E-02 -0.45758001284E-02  0.14407507941E-01  0.00000000000E+00 0. -1.
     999901    1    3    3    0    0 -0.84813010081E-02  0.10931812687E+00 -0.68783602312E-01  0.88946813843E+00  0.88000000000E+00 0. -1.
        -11    1    4    4    0    0  0.33043244864E-01 -0.45841394748E-01  0.27637799458E-01  0.62907857884E-01  0.51100000000E-03 0.  1.
         11    1    4    4    0    0 -0.11102426910E-01 -0.61135847282E-01  0.45721602982E-01  0.77146495749E-01  0.51100000000E-03 0. -1.
</event>
<event>
 8    1  0.2123879E+004  0.1043930E+01  0.7957747E-01            NaN
         13   -1    0    0    0    0  0.00000000000E+00  0.00000000000E+00  0.74505805969E-08  0.10566000000E+00  0.10566000000E+00 0. -1.
     999900   -1    0    0    0    0 -0.00000000000E+00 -0.00000000000E+00 -0.74505805969E-08  0.93827000000E+00  0.93827000000E+00 0.  1.
     999902    2    1    2    0    0 -0.99534123795E-02 -0.40049202001E-02  0.83650189869E-02  0.10303254660E+01  0.10302356441E+01 0.  0.
     999903    2    3    3    0    0  0.24931940839E-01  0.12112659407E+00 -0.45346690203E-01  0.13916900863E+00  0.44927020666E-01 0.  0.
         14    1    1    2    0    0  0.99534123795E-02  0.40049202001E-02 -0.83650189869E-02  0.13604534040E-01  0.00000000000E+00 0. -1.
     999901    1    3    3    0    0 -0.34885353219E-01 -0.12513151427E+00  0.53711709190E-01  0.89115645733E+00  0.88000000000E+00 0. -1.
        -11    1    4    4    0    0  0.35508212103E-01  0.62264506600E-01 -0.22192081839E-01  0.75036334706E-01  0.51100000000E-03 0.  1.
         11    1    4    4    0    0 -0.10576271264E-01  0.58862087472E-01 -0.23154608364E-01  0.64132673925E-01  0.51100000000E-03 0. -1.
</event>
<event>
 8    1  0.2123879E+004  0.1043930E+01  0.7957747E-01            NaN
         13   -1    0    0    0    0  0.00000000000E+00  0.00000000000E+00  0.74505805969E-08  0.10566000000E+00  0.10566000000E+00 0. -1.
     999900   -1    0    0    0    0 -0.00000000000E+00 -0.00000000000E+00 -0.74505805969E-08  0.93827000000E+00  0.93827000000E+00 0.  1.
     999902    2    1    2    0    0  0.91876640428E-02  0.10698282986E-01 -0.14818498520E-02  0.10297503558E+01  0.10296527245E+01 0.  0.
     999903    2    3    3    0    0 -0.16942320678E-01 -0.10988996441E+00  0.69032658400E-01  0.13834887650E+00  0.44855960523E-01 0.  0.
         14    1    1    2    0    0 -0.91876640428E-02 -0.10698282986E-01  0.14818498520E-02  0.14179644156E-01  0.00000000000E+00 0. -1.
     999901    1    3    3    0    0  0.26129984721E-01  0.12058824739E+00 -0.70514508252E-01  0.89140147935E+00  0.88000000000E+00 0. -1.
        -11    1    4    4    0    0  0.11655845297E-01 -0.39668873737E-01  0.10776086407E-01  0.42730123244E-01  0.51100000000E-03 0. -1.
         11    1    4    4    0    0 -0.28598165976E-01 -0.70221090669E-01  0.58256571993E-01  0.95618753251E-01  0.51100000000E-03 0.  1.
</event>
<event>
 8    1  0.2123879E+004  0.1043930E+01  0.7957747E-01            NaN
         13   -1    0    0    0    0  0.00000000000E+00  0.00000000000E+00  0.74505805969E-08  0.10566000000E+00  0.10566000000E+00 0. -1.
     999900   -1    0    0    0    0 -0.00000000000E+00 -0.00000000000E+00 -0.74505805969E-08  0.93827000000E+00  0.93827000000E+00 0. -1.
     999902    2    1    2    0    0 -0.20548234558E-02  0.13686420307E-01 -0.96527041993E-03  0.10300565669E+01  0.10299631347E+01 0.  0.
     999903    2    3    3    0    0  0.97301976988E-01 -0.87322521172E-01 -0.10335323804E-01  0.13867428189E+00  0.45064843386E-01 0.  0.
         14    1    1    2    0    0  0.20548234558E-02 -0.13686420307E-01  0.96527041993E-03  0.13873433145E-01  0.00000000000E+00 0. -1.
     999901    1    3    3    0    0 -0.99356800444E-01  0.10100894148E+00  0.93700533844E-02  0.89138228497E+00  0.88000000000E+00 0. -1.
        -11    1    4    4    0    0  0.72010593648E-01 -0.35816733157E-01 -0.34485725799E-03  0.80428502529E-01  0.51100000000E-03 0.  1.
         11    1    4    4    0    0  0.25291383340E-01 -0.51505788015E-01 -0.99904665464E-02  0.58245779359E-01  0.51100000000E-03 0. -1.
</event>
<event>
 8    1  0.2123879E+004  0.1043930E+01  0.7957747E-01            NaN
         13   -1    0    0    0    0  0.00000000000E+00  0.00000000000E+00  0.74505805969E-08  0.10566000000E+00  0.10566000000E+00 0.  1.
     999900   -1    0    0    0    0 -0.00000000000E+00 -0.00000000000E+00 -0.74505805969E-08  0.93827000000E+00  0.93827000000E+00 0.  1.
     999902    2    1    2    0    0  0.35743434218E-02 -0.61834860178E-02 -0.96361413686E-02  0.10319355575E+01  0.10318658480E+01 0.  0.
     999903    2    3    3    0    0 -0.95716291425E-01 -0.91840497604E-01  0.20620976595E-01  0.14170454985E+00  0.45372561411E-01 0.  0.
         14    1    1    2    0    0 -0.35743434218E-02  0.61834860178E-02  0.96361413686E-02  0.11994442492E-01  0.00000000000E+00 0.  1.
     999901    1    3    3    0    0  0.99290634847E-01  0.85657011587E-01 -0.30257117963E-01  0.89023100765E+00  0.88000000000E+00 0. -1.
        -11    1    4    4    0    0 -0.86163239380E-01 -0.59668904178E-01  0.56701833578E-02  0.10496139312E+00  0.51100000000E-03 0. -1.
         11    1    4    4    0    0 -0.95530520443E-02 -0.32171593426E-01  0.14950793237E-01  0.36743156728E-01  0.51100000000E-03 0.  1.
</event>
<event>
 8    1  0.2123879E+004  0.1043930E+01  0.7957747E-01            NaN
         13   -1    0    0    0    0  0.00000000000E+00  0.00000000000E+00  0.74505805969E-08  0.10566000000E+00  0.10566000000E+00 0. -1.
     999900   -1    0    0    0    0 -0.00000000000E+00 -0.00000000000E+00 -0.74505805969E-08  0.93827000000E+00  0.93827000000E+00 0.  1.
     999902    2    1    2    0    0  0.29656249806E-02 -0.60092182356E-02  0.11756126583E-01  0.10303981063E+01  0.10303092474E+01 0.  0.
     999903    2    3    3    0    0 -0.95996597917E-02 -0.13181867471E+00  0.18511271518E-01  0.14133593877E+00  0.46528098439E-01 0.  0.
         14    1    1    2    0    0 -0.29656249806E-02  0.60092182356E-02 -0.11756126583E-01  0.13531893717E-01  0.00000000000E+00 0.  1.
     999901    1    3    3    0    0  0.12565284772E-01  0.12580945647E+00 -0.67551449352E-02  0.88906216751E+00  0.88000000000E+00 0. -1.
        -11    1    4    4    0    0  0.34891555977E-02 -0.79512080326E-01  0.31951735899E-01  0.85764326340E-01  0.51100000000E-03 0.  1.
         11    1    4    4    0    0 -0.13088815389E-01 -0.52306594384E-01 -0.13440464381E-01  0.55571612430E-01  0.51100000000E-03 0. -1.
</event>
<event>
 8    1  0.2123879E+004  0.1043930E+01  0.7957747E-01            NaN
         13   -1    0    0    0    0  0.00000000000E+00  0.00000000000E+00  0.74505805969E-08  0.10566000000E+00  0.10566000000E+00 0.  1.
     999900   -1    0    0    0    0 -0.00000000000E+00 -0.00000000000E+00 -0.74505805969E-08  0.93827000000E+00  0.93827000000E+00 0.  1.
     999902    2    1    2    0    0 -0.82387542382E-02  0.87432984245E-03  0.12099256024E-01  0.10292659787E+01  0.10291615138E+01 0.  0.
     999903    2    3    3    0    0 -0.12110329390E-01  0.12661433133E+00 -0.34341286736E-01  0.13910741919E+00  0.44650880450E-01 0.  0.
         14    1    1    2    0    0  0.82387542382E-02 -0.87432984245E-03 -0.12099256024E-01  0.14664021290E-01  0.00000000000E+00 0. -1.
     999901    1    3    3    0    0  0.38715751519E-02 -0.12574000148E+00  0.46440542760E-01  0.89015855952E+00  0.88000000000E+00 0. -1.
        -11    1    4    4    0    0 -0.26465492582E-01  0.10153745910E+00 -0.19903340752E-01  0.10680206923E+00  0.51100000000E-03 0.  1.
         11    1    4    4    0    0  0.14355163192E-01  0.25076872224E-01 -0.14437945984E-01  0.32305349960E-01  0.51100000000E-03 0. -1.
</event>
<event>
 8    1  0.2123879E+004  0.1043930E+01  0.7957747E-01            NaN
         13   -1    0    0    0    0  0.00000000000E+00  0.00000000000E+00  0.74505805969E-08  0.10566000000E+00  0.10566000000E+00 0. -1.
     999900   -1    0    0    0    0 -0.00000000000E+00 -0.00000000000E+00 -0.74505805969E-08  0.93827000000E+00  0.93827000000E+00 0.  1.
     999902    2    1    2    0    0  0.11362413337E-01 -0.23062364583E-02  0.71454730564E-02  0.10303108609E+01  0.10302208449E+01 0.  0.
     999903    2    3    3    0    0  0.11696326571E+00 -0.35450175848E-01  0.56699919642E-01  0.14199464252E+00  0.44838344341E-01 0.  0.
         14    1    1    2    0    0 -0.11362413337E-01  0.23062364583E-02 -0.71454730564E-02  0.13619139056E-01  0.00000000000E+00 0.  1.
     999901    1    3    3    0    0 -0.10560085237E+00  0.33143939389E-01 -0.49554446585E-01  0.88831621842E+00  0.88000000000E+00 0.  1.
        -11    1    4    4    0    0  0.55716093560E-01 -0.61562657609E-02  0.42830692586E-02  0.56220890183E-01  0.51100000000E-03 0. -1.
         11    1    4    4    0    0  0.61247172151E-01 -0.29293910087E-01  0.52416850383E-01  0.85773752336E-01  0.51100000000E-03 0.  1.
</event>
<event>
 8    1  0.2123879E+004  0.1043930E+01  0.7957747E-01            NaN
         13   -1    0    0    0    0  0.00000000000E+00  0.00000000000E+00  0.74505805969E-08  0.10566000000E+00  0.10566000000E+00 0. -1.
     999900   -1    0    0    0    0 -0.00000000000E+00 -0.00000000000E+00 -0.74505805969E-08  0.93827000000E+00  0.93827000000E+00 0. -1.
     999902    2    1    2    0    0  0.67890107194E-02  0.19114165191E-02  0.11655056564E-01  0.10303070589E+01  0.10302169923E+01 0.  0.
     999903    2    3    3    0    0 -0.80245200254E-01 -0.92740646708E-01  0.49357819090E-01  0.14016355070E+00  0.46577966085E-01 0.  0.
         14    1    1    2    0    0 -0.67890107194E-02 -0.19114165191E-02 -0.11655056564E-01  0.13622941062E-01  0.00000000000E+00 0.  1.
     999901    1    3    3    0    0  0.87034210973E-01  0.94652063227E-01 -0.37702762526E-01  0.89014350824E+00  0.88000000000E+00 0. -1.
        -11    1    4    4    0    0 -0.77862345285E-01 -0.69495551688E-01  0.52068613372E-01  0.11663437802E+00  0.51100000000E-03 0.  1.
         11    1    4    4    0    0 -0.23828549690E-02 -0.23245095020E-01 -0.27107942817E-02  0.23529172678E-01  0.51100000000E-03 0. -1.
</event>
<event>
 8    1  0.2123879E+004  0.1043930E+01  0.7957747E-01            NaN
         13   -1    0    0    0    0  0.00000000000E+00  0.00000000000E+00  0.74505805969E-08  0.10566000000E+00  0.10566000000E+00 0.  1.
     999900   -1    0    0    0    0 -0.00000000000E+00 -0.00000000000E+00 -0.74505805969E-08  0.93827000000E+00  0.93827000000E+00 0. -1.
     999902    2    1    2    0    0  0.70148027005E-02 -0.55296121088E-02  0.92823000465E-02  0.10310480296E+01  0.10309675524E+01 0.  0.
     999903    2    3    3    0    0  0.41013827240E-01  0.10049622998E+00  0.78526258446E-01  0.14133339073E+00  0.45023636069E-01 0.  0.
         14    1    1    2    0    0 -0.70148027005E-02  0.55296121088E-02 -0.92823000465E-02  0.12881970391E-01  0.00000000000E+00 0. -1.
     999901    1    3    3    0    0 -0.33999024540E-01 -0.10602584209E+00 -0.69243958400E-01  0.88971463888E+00  0.88000000000E+00 0.  1.
        -11    1    4    4    0    0  0.97998205382E-02  0.29437255007E-03 -0.68911903078E-03  0.98417043147E-02  0.51100000000E-03 0.  1.
         11    1    4    4    0    0  0.31214006702E-01  0.10020185743E+00  0.79215377477E-01  0.13149168642E+00  0.51100000000E-03 0. -1.
</event>
<event>
 8    1  0.2123879E+004  0.1043930E+01  0.7957747E-01            NaN
         13   -1    0    0    0    0  0.00000000000E+00  0.00000000000E+00  0.74505805969E-08  0.10566000000E+00  0.10566000000E+00 0.  1.
     999900   -1    0    0    0    0 -0.00000000000E+00 -0.00000000000E+00 -0.74505805969E-08  0.93827000000E+00  0.93827000000E+00 0. -1.
     999902    2    1    2    0    0 -0.35902936660E-02  0.12243393310E-01  0.10120630114E-02  0.10311309704E+01  0.10310515326E+01 0.  0.
     999903    2    3    3    0    0 -0.11543648666E+00  0.69248040318E-01 -0.47400449146E-02  0.14220342133E+00  0.45590256312E-01 0.  0.
         14    1    1    2    0    0  0.35902936660E-02 -0.12243393310E-01 -0.10120630114E-02  0.12799029647E-01  0.00000000000E+00 0.  1.
     999901    1    3    3    0    0  0.11184619300E+00 -0.57004647008E-01  0.57521079260E-02  0.88892754902E+00  0.88000000000E+00 0. -1.
        -11    1    4    4    0    0 -0.58712581115E-01  0.44733439324E-01  0.18641070036E-01  0.76131454656E-01  0.51100000000E-03 0.  1.
         11    1    4    4    0    0 -0.56723905550E-01  0.24514600994E-01 -0.23381114951E-01  0.66071966673E-01  0.51100000000E-03 0. -1.
</event>
<event>
 8    1  0.2123879E+004  0.1043930E+01  0.7957747E-01            NaN
         13   -1    0    0    0    0  0.00000000000E+00  0.00000000000E+00  0.74505805969E-08  0.10566000000E+00  0.10566000000E+00 0. -1.
     999900   -1    0    0    0    0 -0.00000000000E+00 -0.00000000000E+00 -0.74505805969E-08  0.93827000000E+00  0.93827000000E+00 0.  1.
     999902    2    1    2    0    0  0.87694782131E-02  0.10383820236E-01 -0.56010115150E-03  0.10303270156E+01  0.10302372144E+01 0.  0.
     999903    2    3    3    0    0  0.75138242880E-01 -0.24396064981E-01  0.10720378958E+00  0.14059249932E+00  0.45085195303E-01 0.  0.
         14    1    1    2    0    0 -0.87694782131E-02 -0.10383820236E-01  0.56010115150E-03  0.13602984383E-01  0.00000000000E+00 0.  1.
     999901    1    3    3    0    0 -0.66368764667E-01  0.34779885217E-01 -0.10776389073E+00  0.88973451629E+00  0.88000000000E+00 0.  1.
        -11    1    4    4    0    0  0.38018817034E-02 -0.19014419179E-01  0.21646045648E-01  0.29065698932E-01  0.51100000000E-03 0. -1.
         11    1    4    4    0    0  0.71336361177E-01 -0.53816458019E-02  0.85557743934E-01  0.11152680039E+00  0.51100000000E-03 0.  1.
</event>
<event>
 8    1  0.2123879E+004  0.1043930E+01  0.7957747E-01            NaN
         13   -1    0    0    0    0  0.00000000000E+00  0.00000000000E+00  0.74505805969E-08  0.10566000000E+00  0.10566000000E+00 0.  1.
     999900   -1    0    0    0    0 -0.00000000000E+00 -0.00000000000E+00 -0.74505805969E-08  0.93827000000E+00  0.93827000000E+00 0.  1.
     999902    2    1    2    0    0  0.59937111446E-02 -0.93179931516E-02 -0.85469886063E-02  0.10299371238E+01  0.10298420648E+01 0.  0.
     999903    2    3    3    0    0 -0.11034987223E+00  0.52389150905E-01  0.43700629261E-01  0.13860474216E+00  0.48783318021E-01 0.  0.
         14    1    1    2    0    0 -0.59937111446E-02  0.93179931516E-02  0.85469886063E-02  0.13992876184E-01  0.00000000000E+00 0.  1.
     999901    1    3    3    0    0  0.11634358337E+00 -0.61707144056E-01 -0.52247617867E-01  0.89133238166E+00  0.88000000000E+00 0.  1.
        -11    1    4    4    0    0 -0.21028789799E-01  0.31419908074E-02 -0.98096554349E-02  0.23421626062E-01  0.51100000000E-03 0. -1.
         11    1    4    4    0    0 -0.89321082431E-01  0.49247160097E-01  0.53510284696E-01  0.11518311610E+00  0.51100000000E-03 0.  1.
</event>
<event>
 8    1  0.2123879E+004  0.1043930E+01  0.7957747E-01            NaN
         13   -1    0    0    0    0  0.00000000000E+00  0.00000000000E+00  0.74505805969E-08  0.10566000000E+00  0.10566000000E+00 0.  1.
     999900   -1    0    0    0    0 -0.00000000000E+00 -0.00000000000E+00 -0.74505805969E-08  0.93827000000E+00  0.93827000000E+00 0. -1.
     999902    2    1    2    0    0 -0.10466251137E-01 -0.79203336678E-02  0.46650365516E-02  0.10300002956E+01  0.10299060988E+01 0.  0.
     999903    2    3    3    0    0  0.24366221909E-01  0.17282099609E-01  0.12950438861E+00  0.14015012416E+00  0.44477937173E-01 0.  0.
         14    1    1    2    0    0  0.10466251137E-01  0.79203336678E-02 -0.46650365516E-02  0.13929704387E-01  0.00000000000E+00 0.  1.
     999901    1    3    3    0    0 -0.34832473046E-01 -0.25202433277E-01 -0.12483935206E+00  0.88985017146E+00  0.88000000000E+00 0. -1.
        -11    1    4    4    0    0 -0.42690451171E-02  0.23815028005E-01  0.57743801031E-01  0.62609807407E-01  0.51100000000E-03 0. -1.
         11    1    4    4    0    0  0.28635267026E-01 -0.65329283956E-02  0.71760587577E-01  0.77540316748E-01  0.51100000000E-03 0.  1.
</event>
<event>
 8    1  0.2123879E+004  0.1043930E+01  0.7957747E-01            NaN
         13   -1    0    0    0    0  0.00000000000E+00  0.00000000000E+00  0.74505805969E-08  0.10566000000E+00  0.10566000000E+00 0.  1.
     999900   -1    0    0    0    0 -0.00000000000E+00 -0.00000000000E+00 -0.74505805969E-08  0.93827000000E+00  0.93827000000E+00 0.  1.
     999902    2    1    2    0    0  0.98276063767E-02 -0.12996054738E-01  0.81159858100E-02  0.10257270192E+01  0.10255654876E+01 0.  0.
     999903    2    3    3    0    0  0.35828464641E-01  0.30881570011E-01  0.12049365426E+00  0.13711572565E+00  0.45217820152E-01 0.  0.
         14    1    1    2    0    0 -0.98276063767E-02  0.12996054738E-01 -0.81159858100E-02  0.18202980842E-01  0.00000000000E+00 0.  1.
     999901    1    3    3    0    0 -0.26000858264E-01 -0.43877624749E-01 -0.11237766845E+00  0.88861129351E+00  0.88000000000E+00 0.  1.
        -11    1    4    4    0    0 -0.50599047991E-02  0.88191437905E-02  0.27639892134E-02  0.10548966354E-01  0.51100000000E-03 0.  1.
         11    1    4    4    0    0  0.40888369440E-01  0.22062426220E-01  0.11772966504E+00  0.12656675930E+00  0.51100000000E-03 0. -1.
</event>
<event>
 8    1  0.2123879E+004  0.1043930E+01  0.7957747E-01            NaN
         13   -1    0    0    0    0  0.00000000000E+00  0.00000000000E+00  0.74505805969E-08  0.10566000000E+00  0.10566000000E+00 0. -1.
     999900   -1    0    0    0    0 -0.00000000000E+00 -0.00000000000E+00 -0.74505805969E-08  0.93827000000E+00  0.93827000000E+00 0.  1.
     999902    2    1    2    0    0 -0.12395333816E-01  0.66408406635E-02 -0.21050814987E-02  0.10297111241E+01  0.10296129479E+01 0.  0.
     999903    2    3    3    0    0  0.16356526619E-02  0.11109877058E+00 -0.73107206962E-01  0.14058254532E+00  0.45532144175E-01 0.  0.
         14    1    1    2    0    0  0.12395333816E-01 -0.66408406635E-02  0.21050814987E-02  0.14218875949E-01  0.00000000000E+00 0.  1.
     999901    1    3    3    0    0 -0.14030986478E-01 -0.10445792992E+00  0.71002125464E-01  0.88912857874E+00  0.88000000000E+00 0.  1.
        -11    1    4    4    0    0  0.15879335280E-02  0.41448664809E-01 -0.27398241940E-02  0.41572600411E-01  0.51100000000E-03 0.  1.
         11    1    4    4    0    0  0.47719133925E-04  0.69650105773E-01 -0.70367382768E-01  0.99009944904E-01  0.51100000000E-03 0. -1.
</event>
<event>
 8    1  0.2123879E+004  0.1043930E+01  0.7957747E-01            NaN
         13   -1    0    0    0    0  0.00000000000E+00  0.00000000000E+00  0.74505805969E-08  0.10566000000E+00  0.10566000000E+00 0.  1.
     999900   -1    0    0    0    0 -0.00000000000E+00 -0.00000000000E+00 -0.74505805969E-08  0.93827000000E+00  0.93827000000E+00 0. -1.
     999902    2    1    2    0    0 -0.82646796647E-02  0.80598414618E-02  0.75477757560E-02  0.10301374334E+01  0.10300450946E+01 0.  0.
     999903    2    3    3    0    0  0.56223101142E-01  0.78906309026E-01 -0.89812679972E-01  0.13959998098E+00  0.45106479570E-01 0.  0.
         14    1    1    2    0    0  0.82646796647E-02 -0.80598414618E-02 -0.75477757560E-02  0.13792566593E-01  0.00000000000E+00 0.  1.
     999901    1    3    3    0    0 -0.64487780807E-01 -0.70846467564E-01  0.97360455728E-01  0.89053745243E+00  0.88000000000E+00 0.  1.
        -11    1    4    4    0    0  0.12372427337E-02  0.21624142154E-01 -0.28703813286E-02  0.21854850799E-01  0.51100000000E-03 0. -1.
         11    1    4    4    0    0  0.54985858409E-01  0.57282166872E-01 -0.86942298643E-01  0.11774513018E+00  0.51100000000E-03 0.  1.
</event>
<event>
 8    1  0.2123879E+004  0.1043930E+01  0.7957747E-01            NaN
         13   -1    0    0    0    0  0.00000000000E+00  0.00000000000E+00  0.74505805969E-08  0.10566000000E+00  0.10566000000E+00 0.  1.
     999900   -1    0    0    0    0 -0.00000000000E+00 -0.00000000000E+00 -0.74505805969E-08  0.93827000000E+00  0.93827000000E+00 0. -1.
     999902    2    1    2    0    0  0.58973444084E-03 -0.49453746886E-02 -0.12723805672E-01  0.10302661884E+01  0.10301755769E+01 0.  0.
     999903    2    3    3    0    0 -0.34616122212E-01 -0.92187027512E-01  0.89871455214E-01  0.13932491876E+00  0.40470119438E-01 0.  0.
         14    1    1    2    0    0 -0.58973444084E-03  0.49453746886E-02  0.12723805672E-01  0.13663811632E-01  0.00000000000E+00 0.  1.
     999901    1    3    3    0    0  0.35205856652E-01  0.87241652823E-01 -0.10259526089E+00  0.89094126961E+00  0.88000000000E+00 0. -1.
        -11    1    4    4    0    0 -0.36022053201E-01 -0.74988109956E-01  0.53079193597E-01  0.98683670713E-01  0.51100000000E-03 0. -1.
         11    1    4    4    0    0  0.14059309893E-02 -0.17198917556E-01  0.36792261618E-01  0.40641248049E-01  0.51100000000E-03 0.  1.
</event>
<event>
 8    1  0.2123879E+004  0.1043930E+01  0.7957747E-01            NaN
         13   -1    0    0    0    0  0.00000000000E+00  0.00000000000E+00  0.74505805969E-08  0.10566000000E+00  0.10566000000E+00 0.  1.
     999900   -1    0    0    0    0 -0.00000000000E+00 -0.00000000000E+00 -0.74505805969E-08  0.93827000000E+00  0.93827000000E+00 0.  1.
     999902    2    1    2    0    0  0.93409954336E-02 -0.84617352084E-02 -0.40124569833E-02  0.10307029455E+01  0.10306180704E+01 0.  0.
     999903    2    3    3    0    0 -0.19999825056E-01 -0.57361311717E-01  0.11839970664E+00  0.14040142913E+00  0.44763352037E-01 0.  0.
         14    1    1    2    0    0 -0.93409954336E-02  0.84617352084E-02  0.40124569833E-02  0.13227054452E-01  0.00000000000E+00 0. -1.
     999901    1    3    3    0    0  0.29340820489E-01  0.48899576509E-01 -0.12241216362E+00  0.89030151642E+00  0.88000000000E+00 0. -1.
        -11    1    4    4    0    0 -0.33794539522E-01 -0.31830693961E-01  0.71866390652E-01  0.85558770479E-01  0.51100000000E-03 0. -1.
         11    1    4    4    0    0  0.13794714466E-01 -0.25530617757E-01  0.46533315989E-01  0.54842658653E-01  0.51100000000E-03 0.  1.
</event>
<event>
 8    1  0.2123879E+004  0.1043930E+01  0.7957747E-01            NaN
         13   -1    0    0    0    0  0.00000000000E+00  0.00000000000E+00  0.74505805969E-08  0.10566000000E+00  0.10566000000E+00 0. -1.
     999900   -1    0    0    0    0 -0.00000000000E+00 -0.00000000000E+00 -0.74505805969E-08  0.93827000000E+00  0.93827000000E+00 0. -1.
     999902    2    1    2    0    0  0.15971219528E-01  0.95451869951E-03  0.28388667385E-03  0.10279277642E+01  0.10278031995E+01 0.  0.
     999903    2    3    3    0    0 -0.96798531655E-01 -0.62456882951E-02  0.84650384685E-01  0.13670020305E+00  0.45959694653E-01 0.  0.
         14    1    1    2    0    0 -0.15971219528E-01 -0.95451869951E-03 -0.28388667385E-03  0.16002235806E-01  0.00000000000E+00 0.  1.
     999901    1    3    3    0    0  0.11276975118E+00  0.72002069946E-02 -0.84366498011E-01  0.89122756115E+00  0.88000000000E+00 0. -1.
        -11    1    4    4    0    0 -0.48581737032E-01 -0.11568239190E-01  0.15620366981E-01  0.52328446534E-01  0.51100000000E-03 0.  1.
         11    1    4    4    0    0 -0.48216794623E-01  0.53225508947E-02  0.69030017703E-01  0.84371756512E-01  0.51100000000E-03 0. -1.
</event>
<event>
 8    1  0.2123879E+004  0.1043930E+01  0.7957747E-01            NaN
         13   -1    0    0    0    0  0.00000000000E+00  0.00000000000E+00  0.74505805969E-08  0.10566000000E+00  0.10566000000E+00 0.  1.
     999900   -1    0    0    0    0 -0.00000000000E+00 -0.00000000000E+00 -0.74505805969E-08  0.93827000000E+00  0.93827000000E+00 0.  1.
     999902    2    1    2    0    0  0.11359944719E-01 -0.10528402467E-02  0.78863782805E-02  0.10300609056E+01  0.10299675323E+01 0.  0.
     999903    2    3    3    0    0  0.65188274169E-01  0.71715574203E-01 -0.90495740772E-01  0.13996440942E+00  0.44809844165E-01 0.  0.
         14    1    1    2    0    0 -0.11359944719E-01  0.10528402467E-02 -0.78863782805E-02  0.13869094382E-01  0.00000000000E+00 0. -1.
     999901    1    3    3    0    0 -0.53828329450E-01 -0.72768414450E-01  0.98382119053E-01  0.89009649620E+00  0.88000000000E+00 0. -1.
        -11    1    4    4    0    0  0.51037534997E-01  0.24486616483E-01 -0.57148840458E-01  0.80440508775E-01  0.51100000000E-03 0.  1.
         11    1    4    4    0    0  0.14150739172E-01  0.47228957720E-01 -0.33346900314E-01  0.59523900646E-01  0.51100000000E-03 0. -1.
</event>
<event>
 8    1  0.2123879E+004  0.1043930E+01  0.7957747E-01            NaN
         13   -1    0    0    0    0  0.00000000000E+00  0.00000000000E+00  0.74505805969E-08  0.10566000000E+00  0.10566000000E+00 0. -1.
     999900   -1    0    0    0    0 -0.00000000000E+00 -0.00000000000E+00 -0.74505805969E-08  0.93827000000E+00  0.93827000000E+00 0. -1.
     999902    2    1    2    0    0  0.40310382419E-02  0.88278898864E-02 -0.44679179708E-02  0.10332462179E+01  0.10331909812E+01 0.  0.
     999903    2    3    3    0    0 -0.52800947196E-02 -0.60080901278E-01  0.12014065973E+00  0.14175173314E+00  0.44968673868E-01 0.  0.
         14    1    1    2    0    0 -0.40310382419E-02 -0.88278898864E-02  0.44679179708E-02  0.10683782109E-01  0.00000000000E+00 0. -1.
     999901    1    3    3    0    0  0.93111329615E-02  0.68908791164E-01 -0.12460857770E+00  0.89149448475E+00  0.88000000000E+00 0. -1.
        -11    1    4    4    0    0  0.69685407623E-02 -0.42386591609E-01  0.39746219962E-01  0.58525266603E-01  0.51100000000E-03 0.  1.
         11    1    4    4    0    0 -0.12248635482E-01 -0.17694309669E-01  0.80394439771E-01  0.83226466542E-01  0.51100000000E-03 0. -1.
</event>
<event>
 8    1  0.2123879E+004  0.1043930E+01  0.7957747E-01            NaN
         13   -1    0    0    0    0  0.00000000000E+00  0.00000000000E+00  0.74505805969E-08  0.10566000000E+00  0.10566000000E+00 0. -1.
     999900   -1    0    0    0    0 -0.00000000000E+00 -0.00000000000E+00 -0.74505805969E-08  0.93827000000E+00  0.93827000000E+00 0.  1.
     999902    2    1    2    0    0 -0.15725566400E-01 -0.11244071083E-01 -0.26245459453E-03  0.10245963129E+01  0.10244138876E+01 0.  0.
     999903    2    3    3    0    0 -0.12508804823E+00  0.88349180680E-02 -0.38915472878E-01  0.13675771608E+00  0.38251578943E-01 0.  0.
         14    1    1    2    0    0  0.15725566400E-01  0.11244071083E-01  0.26245459453E-03  0.19333687065E-01  0.00000000000E+00 0.  1.
     999901    1    3    3    0    0  0.10936248183E+00 -0.20078989151E-01  0.38653018284E-01  0.88783859685E+00  0.88000000000E+00 0.  1.
        -11    1    4    4    0    0 -0.48160731210E-01  0.27133243455E-03  0.38632297066E-02  0.48318891924E-01  0.51100000000E-03 0. -1.
         11    1    4    4    0    0 -0.76927317020E-01  0.85635856335E-02 -0.42778702585E-01  0.88438824159E-01  0.51100000000E-03 0.  1.
</event>
<event>
 8    1  0.2123879E+004  0.1043930E+01  0.7957747E-01            NaN
         13   -1    0    0    0    0  0.00000000000E+00  0.00000000000E+00  0.74505805969E-08  0.10566000000E+00  0.10566000000E+00 0.  1.
     999900   -1    0    0    0    0 -0.00000000000E+00 -0.00000000000E+00 -0.74505805969E-08  0.93827000000E+00  0.93827000000E+00 0.  1.
     999902    2    1    2    0    0 -0.37642426826E-02  0.11682442469E-01 -0.59609563440E-02  0.10302851480E+01  0.10301947895E+01 0.  0.
     999903    2    3    3    0    0 -0.24490212785E-01 -0.12754079137E+00 -0.21780451058E-01  0.13895864719E+00  0.44369962754E-01 0.  0.
         14    1    1    2    0    0  0.37642426826E-02 -0.11682442469E-01  0.59609563440E-02  0.13644851980E-01  0.00000000000E+00 0.  1.
     999901    1    3    3    0    0  0.20725970102E-01  0.13922323384E+00  0.15819494714E-01  0.89132650083E+00  0.88000000000E+00 0.  1.
        -11    1    4    4    0    0 -0.23531528672E-02 -0.10698616947E+00 -0.16126856934E-01  0.10822159868E+00  0.51100000000E-03 0.  1.
         11    1    4    4    0    0 -0.22137059918E-01 -0.20554621899E-01 -0.56535941238E-02  0.30737048504E-01  0.51100000000E-03 0. -1.
</event>
<event>
 8    1  0.2123879E+004  0.1043930E+01  0.7957747E-01            NaN
         13   -1    0    0    0    0  0.00000000000E+00  0.00000000000E+00  0.74505805969E-08  0.10566000000E+00  0.10566000000E+00 0.  1.
     999900   -1    0    0    0    0 -0.00000000000E+00 -0.00000000000E+00 -0.74505805969E-08  0.93827000000E+00  0.93827000000E+00 0.  1.
     999902    2    1    2    0    0 -0.55411862192E-02  0.95222445067E-02  0.11327547163E-01  0.10281283795E+01  0.10280069424E+01 0.  0.
     999903    2    3    3    0    0  0.36428730835E-01 -0.12361271380E+00 -0.89678468923E-02  0.13689423852E+00  0.45304026510E-01 0.  0.
         14    1    1    2    0    0  0.55411862192E-02 -0.95222445067E-02 -0.11327547163E-01  0.15801620483E-01  0.00000000000E+00 0. -1.
     999901    1    3    3    0    0 -0.41969917054E-01  0.13313495831E+00  0.20295394055E-01  0.89123414100E+00  0.88000000000E+00 0.  1.
        -11    1    4    4    0    0  0.45265659048E-01 -0.80680649660E-01 -0.21932111506E-02  0.92538740075E-01  0.51100000000E-03 0. -1.
         11    1    4    4    0    0 -0.88369282129E-02 -0.42932064142E-01 -0.67746357417E-02  0.44355498443E-01  0.51100000000E-03 0.  1.
</event>
<event>
 8    1  0.2123879E+004  0.1043930E+01  0.7957747E-01            NaN
         13   -1    0    0    0    0  0.00000000000E+00  0.00000000000E+00  0.74505805969E-08  0.10566000000E+00  0.10566000000E+00 0. -1.
     999900   -1    0    0    0    0 -0.00000000000E+00 -0.00000000000E+00 -0.74505805969E-08  0.93827000000E+00  0.93827000000E+00 0.  1.
     999902    2    1    2    0    0  0.69660176880E-02  0.13601510399E-01 -0.42247669007E-02  0.10280751855E+01  0.10279529230E+01 0.  0.
     999903    2    3    3    0    0  0.40198575158E-01  0.35019629714E-01 -0.12109089925E+00  0.13946906825E+00  0.44117062548E-01 0.  0.
         14    1    1    2    0    0 -0.69660176880E-02 -0.13601510399E-01  0.42247669007E-02  0.15854814503E-01  0.00000000000E+00 0. -1.
     999901    1    3    3    0    0 -0.33232557470E-01 -0.21418119316E-01  0.11686613235E+00  0.88860611724E+00  0.88000000000E+00 0. -1.
        -11    1    4    4    0    0  0.20412182121E-01  0.34124849070E-01 -0.41614939565E-01  0.57560636020E-01  0.51100000000E-03 0.  1.
         11    1    4    4    0    0  0.19786393037E-01  0.89478064402E-03 -0.79475959688E-01  0.81908432234E-01  0.51100000000E-03 0. -1.
</event>
<event>
 8    1  0.2123879E+004  0.1043930E+01  0.7957747E-01            NaN
         13   -1    0    0    0    0  0.00000000000E+00  0.00000000000E+00  0.74505805969E-08  0.10566000000E+00  0.10566000000E+00 0. -1.
     999900   -1    0    0    0    0 -0.00000000000E+00 -0.00000000000E+00 -0.74505805969E-08  0.93827000000E+00  0.93827000000E+00 0. -1.
     999902    2    1    2    0    0  0.44176903081E-02 -0.72619033677E-02 -0.10650244304E-01  0.10303035943E+01  0.10302134815E+01 0.  0.
     999903    2    3    3    0    0 -0.24650794894E-02  0.78874044565E-01  0.10446449351E+00  0.13860960145E+00  0.45525813423E-01 0.  0.
         14    1    1    2    0    0 -0.44176903081E-02  0.72619033677E-02  0.10650244304E-01  0.13626405686E-01  0.00000000000E+00 0. -1.
     999901    1    3    3    0    0  0.68827697974E-02 -0.86135947933E-01 -0.11511473781E+00  0.89169399286E+00  0.88000000000E+00 0. -1.
        -11    1    4    4    0    0 -0.16468484355E-01  0.66336191429E-01  0.62472778394E-01  0.92600272308E-01  0.51100000000E-03 0. -1.
         11    1    4    4    0    0  0.14003404865E-01  0.12537853136E-01  0.41991715113E-01  0.46009329144E-01  0.51100000000E-03 0.  1.
</event>
<event>
 8    1  0.2123879E+004  0.1043930E+01  0.7957747E-01            NaN
         13   -1    0    0    0    0  0.00000000000E+00  0.00000000000E+00  0.74505805969E-08  0.10566000000E+00  0.10566000000E+00 0.  1.
     999900   -1    0    0    0    0 -0.00000000000E+00 -0.00000000000E+00 -0.74505805969E-08  0.93827000000E+00  0.93827000000E+00 0.  1.
     999902    2    1    2    0    0  0.13132211652E-01  0.11880815657E-02  0.69793643911E-02  0.10290109502E+01  0.10289027930E+01 0.  0.
     999903    2    3    3    0    0  0.85352949792E-01  0.82210246640E-01  0.60575689625E-01  0.14072440162E+00  0.45719715071E-01 0.  0.
         14    1    1    2    0    0 -0.13132211652E-01 -0.11880815657E-02 -0.69793643911E-02  0.14919049835E-01  0.00000000000E+00 0.  1.
     999901    1    3    3    0    0 -0.72220738140E-01 -0.81022165075E-01 -0.53596325234E-01  0.88828654855E+00  0.88000000000E+00 0.  1.
        -11    1    4    4    0    0  0.39607292771E-01  0.16378750052E-01  0.38396522411E-01  0.57546113233E-01  0.51100000000E-03 0.  1.
         11    1    4    4    0    0  0.45745657021E-01  0.65831496588E-01  0.22179167214E-01  0.83178288385E-01  0.51100000000E-03 0. -1.
</event>
<event>
 8    1  0.2123879E+004  0.1043930E+01  0.7957747E-01            NaN
         13   -1    0    0    0    0  0.00000000000E+00  0.00000000000E+00  0.74505805969E-08  0.10566000000E+00  0.10566000000E+00 0. -1.
     999900   -1    0    0    0    0 -0.00000000000E+00 -0.00000000000E+00 -0.74505805969E-08  0.93827000000E+00  0.93827000000E+00 0. -1.
     999902    2    1    2    0    0 -0.59229707160E-02 -0.11508023378E-01  0.44709533625E-02  0.10302367313E+01  0.10301457260E+01 0.  0.
     999903    2    3    3    0    0 -0.12458520600E+00  0.42581838330E-01  0.18232456163E-01  0.14052002458E+00  0.45593512040E-01 0.  0.
         14    1    1    2    0    0  0.59229707160E-02  0.11508023378E-01 -0.44709533625E-02  0.13693268717E-01  0.00000000000E+00 0.  1.
     999901    1    3    3    0    0  0.11866223529E+00 -0.54089861709E-01 -0.13761502800E-01  0.88971670670E+00  0.88000000000E+00 0.  1.
        -11    1    4    4    0    0 -0.37518095508E-01  0.35679236930E-01  0.30362649306E-02  0.51866130222E-01  0.51100000000E-03 0. -1.
         11    1    4    4    0    0 -0.87067110497E-01  0.69026014002E-02  0.15196191232E-01  0.88653894361E-01  0.51100000000E-03 0.  1.
</event>
<event>
 8    1  0.2123879E+004  0.1043930E+01  0.7957747E-01            NaN
         13   -1    0    0    0    0  0.00000000000E+00  0.00000000000E+00  0.74505805969E-08  0.10566000000E+00  0.10566000000E+00 0.  1.
     999900   -1    0    0    0    0 -0.00000000000E+00 -0.00000000000E+00 -0.74505805969E-08  0.93827000000E+00  0.93827000000E+00 0. -1.
     999902    2    1    2    0    0 -0.11121018828E-01  0.52789012732E-02  0.66304032962E-02  0.10299476502E+01  0.10298527351E+01 0.  0.
     999903    2    3    3    0    0 -0.34440194949E-01  0.52835572748E-01  0.11842589185E+00  0.14129493273E+00  0.44292678641E-01 0.  0.
         14    1    1    2    0    0  0.11121018828E-01 -0.52789012732E-02 -0.66304032962E-02  0.13982349813E-01  0.00000000000E+00 0.  1.
     999901    1    3    3    0    0  0.23319176121E-01 -0.47556671474E-01 -0.11179548855E+00  0.88865271745E+00  0.88000000000E+00 0. -1.
        -11    1    4    4    0    0 -0.13186032276E-02  0.14345258680E-01  0.68790396306E-01  0.70284457073E-01  0.51100000000E-03 0.  1.
         11    1    4    4    0    0 -0.33121591721E-01  0.38490314067E-01  0.49635495539E-01  0.71010475661E-01  0.51100000000E-03 0. -1.
</event>
<event>
 8    1  0.2123879E+004  0.1043930E+01  0.7957747E-01            NaN
         13   -1    0    0    0    0  0.00000000000E+00  0.00000000000E+00  0.74505805969E-08  0.10566000000E+00  0.10566000000E+00 0. -1.
     999900   -1    0    0    0    0 -0.00000000000E+00 -0.00000000000E+00 -0.74505805969E-08  0.93827000000E+00  0.93827000000E+00 0.  1.
     999902    2    1    2    0    0  0.57499618257E-02 -0.86996938671E-03  0.13744768315E-01  0.10290056051E+01  0.10288973699E+01 0.  0.
     999903    2    3    3    0    0 -0.10810463393E+00 -0.73944731535E-01  0.60779945517E-02  0.13863401453E+00  0.45033462752E-01 0.  0.
         14    1    1    2    0    0 -0.57499618257E-02  0.86996938671E-03 -0.13744768315E-01  0.14924394921E-01  0.00000000000E+00 0.  1.
     999901    1    3    3    0    0  0.11385459576E+00  0.73074762149E-01  0.76667737629E-02  0.89037159055E+00  0.88000000000E+00 0. -1.
        -11    1    4    4    0    0 -0.86886762632E-01 -0.46856762888E-01 -0.12535480183E-01  0.99510125784E-01  0.51100000000E-03 0. -1.
         11    1    4    4    0    0 -0.21217871300E-01 -0.27087968647E-01  0.18613474734E-01  0.39123888746E-01  0.51100000000E-03 0.  1.
</event>
<event>
 8    1  0.2123879E+004  0.1043930E+01  0.7957747E-01            NaN
         13   -1    0    0    0    0  0.00000000000E+00  0.00000000000E+00  0.74505805969E-08  0.10566000000E+00  0.10566000000E+00 0.  1.
     999900   -1    0    0    0    0 -0.00000000000E+00 -0.00000000000E+00 -0.74505805969E-08  0.93827000000E+00  0.93827000000E+00 0.  1.
     999902    2    1    2    0    0  0.13243152930E-01 -0.32292023651E-03 -0.48916120133E-02  0.10298086245E+01  0.10297117994E+01 0.  0.
     999903    2    3    3    0    0 -0.54918070304E-01 -0.17234909729E-01  0.11888323686E+00  0.13837596810E+00  0.41251036146E-01 0.  0.
         14    1    1    2    0    0 -0.13243152930E-01  0.32292023651E-03  0.48916120133E-02  0.14121375467E-01  0.00000000000E+00 0.  1.
     999901    1    3    3    0    0  0.68161223234E-01  0.16911989493E-01 -0.12377484887E+00  0.89143265643E+00  0.88000000000E+00 0. -1.
        -11    1    4    4    0    0 -0.46496044529E-01 -0.28481644802E-01  0.78218852060E-01  0.95349547383E-01  0.51100000000E-03 0. -1.
         11    1    4    4    0    0 -0.84220257756E-02  0.11246735073E-01  0.40664384796E-01  0.43026420718E-01  0.51100000000E-03 0.  1.
</event>
<event>
 8    1  0.2123879E+004  0.1043930E+01  0.7957747E-01            NaN
         13   -1    0    0    0    0  0.00000000000E+00  0.00000000000E+00  0.74505805969E-08  0.10566000000E+00  0.10566000000E+00 0. -1.
     999900   -1    0    0    0    0 -0.00000000000E+00 -0.00000000000E+00 -0.74505805969E-08  0.93827000000E+00  0.93827000000E+00 0.  1.
     999902    2    1    2    0    0  0.15854426898E-01  0.65875988262E-05 -0.99039700568E-02  0.10252363776E+01  0.10250659386E+01 0.  0.
     999903    2    3    3    0    0 -0.61170159385E-01  0.10679634027E+00 -0.32884400281E-01  0.13514372043E+00  0.45113132196E-01 0.  0.
         14    1    1    2    0    0 -0.15854426898E-01 -0.65875988262E-05  0.99039700568E-02  0.18693622403E-01  0.00000000000E+00 0. -1.
     999901    1    3    3    0    0  0.77024586284E-01 -0.10678975267E+00  0.22980430224E-01  0.89009265717E+00  0.88000000000E+00 0. -1.
        -11    1    4    4    0    0 -0.52510828549E-01  0.10937522763E+00 -0.26841700855E-01  0.12426208416E+00  0.51100000000E-03 0.  1.
         11    1    4    4    0    0 -0.86593308360E-02 -0.25788873642E-02 -0.60426994263E-02  0.10881636270E-01  0.51100000000E-03 0. -1.
</event>
<event>
 8    1  0.2123879E+004  0.1043930E+01  0.7957747E-01            NaN
         13   -1    0    0    0    0  0.00000000000E+00  0.00000000000E+00  0.74505805969E-08  0.10566000000E+00  0.10566000000E+00 0. -1.
     999900   -1    0    0    0    0 -0.00000000000E+00 -0.00000000000E+00 -0.74505805969E-08  0.93827000000E+00  0.93827000000E+00 0.  1.
     999902    2    1    2    0    0  0.65630727969E-02  0.11973663658E-01  0.25943519922E-03  0.10302731390E+01  0.10301826203E+01 0.  0.
     999903    2    3    3    0    0  0.49578927322E-01  0.10183725354E+00  0.71923705152E-01  0.14175662473E+00  0.45749590715E-01 0.  0.
         14    1    1    2    0    0 -0.65630727969E-02 -0.11973663658E-01 -0.25943519922E-03  0.13656861007E-01  0.00000000000E+00 0. -1.
     999901    1    3    3    0    0 -0.43015854525E-01 -0.89863589878E-01 -0.71664269953E-01  0.88851651426E+00  0.88000000000E+00 0.  1.
        -11    1    4    4    0    0  0.21782813791E-01  0.88427269735E-01  0.49979195446E-01  0.10388481173E+00  0.51100000000E-03 0.  1.
         11    1    4    4    0    0  0.27796113531E-01  0.13409983801E-01  0.21944509705E-01  0.37871813004E-01  0.51100000000E-03 0. -1.
</event>
<event>
 8    1  0.2123879E+004  0.1043930E+01  0.7957747E-01            NaN
         13   -1    0    0    0    0  0.00000000000E+00  0.00000000000E+00  0.74505805969E-08  0.10566000000E+00  0.10566000000E+00 0. -1.
     999900   -1    0    0    0    0 -0.00000000000E+00 -0.00000000000E+00 -0.74505805969E-08  0.93827000000E+00  0.93827000000E+00 0.  1.
     999902    2    1    2    0    0  0.75377038242E-02 -0.18418305223E-02 -0.16469241890E-01  0.10257243622E+01  0.10255627831E+01 0.  0.
     999903    2    3    3    0    0  0.45018297451E-01  0.32447809711E-01  0.11418442353E+00  0.13462899436E+00  0.44803750811E-01 0.  0.
         14    1    1    2    0    0 -0.75377038242E-02  0.18418305223E-02  0.16469241890E-01  0.18205637782E-01  0.00000000000E+00 0. -1.
     999901    1    3    3    0    0 -0.37480593626E-01 -0.34289640233E-01 -0.13065366542E+00  0.89109536786E+00  0.88000000000E+00 0.  1.
        -11    1    4    4    0    0 -0.15588482876E-02 -0.88346434008E-02  0.12199544837E-01  0.15151598834E-01  0.51100000000E-03 0.  1.
         11    1    4    4    0    0  0.46577145738E-01  0.41282453111E-01  0.10198487869E+00  0.11947739553E+00  0.51100000000E-03 0. -1.
</event>
<event>
 8    1  0.2123879E+004  0.1043930E+01  0.7957747E-01            NaN
         13   -1    0    0    0    0  0.00000000000E+00  0.00000000000E+00  0.74505805969E-08  0.10566000000E+00  0.10566000000E+00 0.  1.
     999900   -1    0    0    0    0 -0.00000000000E+00 -0.00000000000E+00 -0.74505805969E-08  0.93827000000E+00  0.93827000000E+00 0.  1.
     999902    2    1    2    0    0  0.31137815491E-02  0.13310416988E-01 -0.22270515580E-02  0.10300799966E+01  0.10299868818E+01 0.  0.
     999903    2    3    3    0    0 -0.90961144381E-01 -0.69627924308E-01 -0.57816093516E-01  0.13945156580E+00  0.54608249402E-01 0.  0.
         14    1    1    2    0    0 -0.31137815491E-02 -0.13310416988E-01  0.22270515580E-02  0.13850003414E-01  0.00000000000E+00 0. -1.
     999901    1    3    3    0    0  0.94074925930E-01  0.82938341297E-01  0.55589041958E-01  0.89062843079E+00  0.88000000000E+00 0.  1.
        -11    1    4    4    0    0 -0.14072309024E-01 -0.38443349786E-01 -0.33748181290E-01  0.53057722203E-01  0.51100000000E-03 0. -1.
         11    1    4    4    0    0 -0.76888835357E-01 -0.31184574523E-01 -0.24067912226E-01  0.86393843593E-01  0.51100000000E-03 0.  1.
</event>
<event>
 8    1  0.2123879E+004  0.1043930E+01  0.7957747E-01            NaN
         13   -1    0    0    0    0  0.00000000000E+00  0.00000000000E+00  0.74505805969E-08  0.10566000000E+00  0.10566000000E+00 0.  1.
     999900   -1    0    0    0    0 -0.00000000000E+00 -0.00000000000E+00 -0.74505805969E-08  0.93827000000E+00  0.93827000000E+00 0. -1.
     999902    2    1    2    0    0  0.15048136606E-02  0.36698157301E-02 -0.12535355443E-01  0.10307821048E+01  0.10306982490E+01 0.  0.
     999903    2    3    3    0    0  0.59825680116E-01 -0.11540293140E+00 -0.28887042854E-01  0.14069951300E+00  0.45441645401E-01 0.  0.
         14    1    1    2    0    0 -0.15048136606E-02 -0.36698157301E-02  0.12535355443E-01  0.13147895183E-01  0.00000000000E+00 0.  1.
     999901    1    3    3    0    0 -0.58320866455E-01  0.11907274713E+00  0.16351687411E-01  0.89008259182E+00  0.88000000000E+00 0.  1.
        -11    1    4    4    0    0  0.21204361917E-01 -0.84115398081E-02 -0.11752663447E-01  0.25666421358E-01  0.51100000000E-03 0.  1.
         11    1    4    4    0    0  0.38621318199E-01 -0.10699139159E+00 -0.17134379408E-01  0.11503309164E+00  0.51100000000E-03 0. -1.
</event>
<event>
 8    1  0.2123879E+004  0.1043930E+01  0.7957747E-01            NaN
         13   -1    0    0    0    0  0.00000000000E+00  0.00000000000E+00  0.74505805969E-08  0.10566000000E+00  0.10566000000E+00 0.  1.
     999900   -1    0    0    0    0 -0.00000000000E+00 -0.00000000000E+00 -0.74505805969E-08  0.93827000000E+00  0.93827000000E+00 0.  1.
     999902    2    1    2    0    0  0.10933025394E-01 -0.23795506705E-02 -0.83237213895E-02  0.10299844759E+01  0.10298900635E+01 0.  0.
     999903    2    3    3    0    0  0.60006042046E-01 -0.11218023142E+00 -0.37423416004E-01  0.14132754392E+00  0.48865460215E-01 0.  0.
         14    1    1    2    0    0 -0.10933025394E-01  0.23795506705E-02  0.83237213895E-02  0.13945524136E-01  0.00000000000E+00 0. -1.
     999901    1    3    3    0    0 -0.49073016652E-01  0.10980068075E+00  0.29099694614E-01  0.88865693194E+00  0.88000000000E+00 0. -1.
        -11    1    4    4    0    0  0.52030032019E-01 -0.86713853035E-01 -0.77612451761E-02  0.10142442796E+00  0.51100000000E-03 0.  1.
         11    1    4    4    0    0  0.79760100271E-02 -0.25466378389E-01 -0.29662170828E-01  0.39903115961E-01  0.51100000000E-03 0. -1.
</event>
<event>
 7    1  0.2123879E+004  0.1043930E+01  0.7957747E-01            NaN
         13   -1    0    0    0    0  0.00000000000E+00  0.00000000000E+00  0.74505805969E-08  0.10566000000E+00  0.10566000000E+00 0.  1.
     999900   -1    0    0    0    0 -0.00000000000E+00 -0.00000000000E+00 -0.74505805969E-08  0.93827000000E+00  0.93827000000E+00 0. -1.
     999902    2    1    2    0    0  0.88510474755E-02  0.89446687890E-02  0.48039885446E-02  0.10304605365E+01  0.10303725010E+01 0.  0.
         14    1    1    2    0    0 -0.88510474755E-02 -0.89446687890E-02 -0.48039885446E-02  0.13469463504E-01  0.00000000000E+00 0. -1.
     999901    1    3    3    0    0  0.11754346049E+00 -0.65618470774E-01  0.47314047432E-01  0.89149361630E+00  0.88000000000E+00 0. -1.
        -11    1    3    3    0    0 -0.43777137647E-01  0.23848192238E-01 -0.13804481323E-01  0.51730057792E-01  0.51100000000E-03 0. -1.
         11    1    3    3    0    0 -0.64915275370E-01  0.50714947324E-01 -0.28705577565E-01  0.87236862408E-01  0.51100000000E-03 0.  1.
</event>
<event>
 8    1  0.2123879E+004  0.1043930E+01  0.7957747E-01            NaN
         13   -1    0    0    0    0  0.00000000000E+00  0.00000000000E+00  0.74505805969E-08  0.10566000000E+00  0.10566000000E+00 0. -1.
     999900   -1    0    0    0    0 -0.00000000000E+00 -0.00000000000E+00 -0.74505805969E-08  0.93827000000E+00  0.93827000000E+00 0.  1.
     999902    2    1    2    0    0 -0.72699349322E-02 -0.34034242647E-02  0.12018736647E-01  0.10294771359E+01  0.10293756788E+01 0.  0.
     999903    2    3    3    0    0  0.31548948375E-01 -0.16801439532E-01  0.12961859917E+00  0.14070487024E+00  0.41463896858E-01 0.  0.
         14    1    1    2    0    0  0.72699349322E-02  0.34034242647E-02 -0.12018736647E-01  0.14452864119E-01  0.00000000000E+00 0.  1.
     999901    1    3    3    0    0 -0.38818883307E-01  0.13398015268E-01 -0.11759986253E+00  0.88877226565E+00  0.88000000000E+00 0.  1.
        -11    1    4    4    0    0  0.39191261725E-01 -0.10353067171E-01  0.75767363069E-01  0.85930759469E-01  0.51100000000E-03 0.  1.
         11    1    4    4    0    0 -0.76423133494E-02 -0.64483723613E-02  0.53851236104E-01  0.54774110767E-01  0.51100000000E-03 0. -1.
</event>
<event>
 8    1  0.2123879E+004  0.1043930E+01  0.7957747E-01            NaN
         13   -1    0    0    0    0  0.00000000000E+00  0.00000000000E+00  0.74505805969E-08  0.10566000000E+00  0.10566000000E+00 0.  1.
     999900   -1    0    0    0    0 -0.00000000000E+00 -0.00000000000E+00 -0.74505805969E-08  0.93827000000E+00  0.93827000000E+00 0. -1.
     999902    2    1    2    0    0  0.94300680420E-02  0.89069230376E-02  0.55873338246E-02  0.10298063404E+01  0.10297094838E+01 0.  0.
     999903    2    3    3    0    0 -0.94514879815E-01  0.88724288325E-02 -0.90492490310E-01  0.13849501096E+00  0.44499379313E-01 0.  0.
         14    1    1    2    0    0 -0.94300680420E-02 -0.89069230376E-02 -0.55873338246E-02  0.14123659602E-01  0.00000000000E+00 0.  1.
     999901    1    3    3    0    0  0.10394494786E+00  0.34494205022E-04  0.96079824134E-01  0.89131132944E+00  0.88000000000E+00 0.  1.
        -11    1    4    4    0    0 -0.56307709170E-01 -0.28309852000E-02 -0.78731871357E-01  0.96837705867E-01  0.51100000000E-03 0. -1.
         11    1    4    4    0    0 -0.38207170645E-01  0.11703414033E-01 -0.11760618953E-01  0.41657305096E-01  0.51100000000E-03 0.  1.
</event>
<event>
 8    1  0.2123879E+004  0.1043930E+01  0.7957747E-01            NaN
         13   -1    0    0    0    0  0.00000000000E+00  0.00000000000E+00  0.74505805969E-08  0.10566000000E+00  0.10566000000E+00 0. -1.
     999900   -1    0    0    0    0 -0.00000000000E+00 -0.00000000000E+00 -0.74505805969E-08  0.93827000000E+00  0.93827000000E+00 0. -1.
     999902    2    1    2    0    0 -0.21786171733E-02 -0.46166412485E-02  0.12661434865E-01  0.10302781986E+01  0.10301877473E+01 0.  0.
     999903    2    3    3    0    0  0.65564746339E-02  0.78069563690E-01  0.11077578784E+00  0.14093027084E+00  0.38108029756E-01 0.  0.
         14    1    1    2    0    0  0.21786171733E-02  0.46166412485E-02 -0.12661434865E-01  0.13651801422E-01  0.00000000000E+00 0.  1.
     999901    1    3    3    0    0 -0.87350918072E-02 -0.82686204939E-01 -0.98114352977E-01  0.88934792774E+00  0.88000000000E+00 0.  1.
        -11    1    4    4    0    0  0.66763223123E-02  0.73729070501E-01  0.76793753713E-01  0.10666813417E+00  0.51100000000E-03 0. -1.
         11    1    4    4    0    0 -0.11984767842E-03  0.43404931890E-02  0.33982034129E-01  0.34262136669E-01  0.51100000000E-03 0.  1.
</event>
<event>
 8    1  0.2123879E+004  0.1043930E+01  0.7957747E-01            NaN
         13   -1    0    0    0    0  0.00000000000E+00  0.00000000000E+00  0.74505805969E-08  0.10566000000E+00  0.10566000000E+00 0. -1.
     999900   -1    0    0    0    0 -0.00000000000E+00 -0.00000000000E+00 -0.74505805969E-08  0.93827000000E+00  0.93827000000E+00 0. -1.
     999902    2    1    2    0    0 -0.44185578389E-02 -0.18949882882E-02 -0.13415754374E-01  0.10296787860E+01  0.10295801597E+01 0.  0.
     999903    2    3    3    0    0  0.52713088070E-01 -0.11949522516E+00 -0.23748071012E-01  0.13995939351E+00  0.44349548638E-01 0.  0.
         14    1    1    2    0    0  0.44185578389E-02  0.18949882882E-02  0.13415754374E-01  0.14251213963E-01  0.00000000000E+00 0. -1.
     999901    1    3    3    0    0 -0.57131645909E-01  0.11760023687E+00  0.10332316639E-01  0.88971939253E+00  0.88000000000E+00 0. -1.
        -11    1    4    4    0    0  0.25641684932E-01 -0.20649971179E-01  0.54952968165E-02  0.33382281587E-01  0.51100000000E-03 0. -1.
         11    1    4    4    0    0  0.27071403138E-01 -0.98845253981E-01 -0.29243367829E-01  0.10657711192E+00  0.51100000000E-03 0.  1.
</event>
<event>
 8    1  0.2123879E+004  0.1043930E+01  0.7957747E-01            NaN
         13   -1    0    0    0    0  0.00000000000E+00  0.00000000000E+00  0.74505805969E-08  0.10566000000E+00  0.10566000000E+00 0. -1.
     999900   -1    0    0    0    0 -0.00000000000E+00 -0.00000000000E+00 -0.74505805969E-08  0.93827000000E+00  0.93827000000E+00 0. -1.
     999902    2    1    2    0    0  0.94725975043E-02 -0.62138278291E-02  0.20458456623E-02  0.10324179522E+01  0.10323537673E+01 0.  0.
     999903    2    3    3    0    0 -0.13220052119E+00  0.76909722602E-02 -0.14983975903E-01  0.14081566933E+00  0.45479713475E-01 0.  0.
         14    1    1    2    0    0 -0.94725975043E-02  0.62138278291E-02 -0.20458456623E-02  0.11512047787E-01  0.00000000000E+00 0. -1.
     999901    1    3    3    0    0  0.14167311869E+00 -0.13904800089E-01  0.17029821565E-01  0.89160228289E+00  0.88000000000E+00 0. -1.
        -11    1    4    4    0    0 -0.17034330973E-01 -0.78422517378E-02 -0.15915978280E-01  0.24601805414E-01  0.51100000000E-03 0. -1.
         11    1    4    4    0    0 -0.11516619021E+00  0.15533223998E-01  0.93200237721E-03  0.11621386391E+00  0.51100000000E-03 0.  1.
</event>
<event>
 8    1  0.2123879E+004  0.1043930E+01  0.7957747E-01            NaN
         13   -1    0    0    0    0  0.00000000000E+00  0.00000000000E+00  0.74505805969E-08  0.10566000000E+00  0.10566000000E+00 0. -1.
     999900   -1    0    0    0    0 -0.00000000000E+00 -0.00000000000E+00 -0.74505805969E-08  0.93827000000E+00  0.93827000000E+00 0. -1.
     999902    2    1    2    0    0  0.55387484339E-03 -0.27279393802E-03 -0.14496053960E-01  0.10294208038E+01  0.10293185486E+01 0.  0.
     999903    2    3    3    0    0 -0.11952888032E+00  0.39476516454E-01  0.38065921950E-01  0.13882401677E+00  0.44469592262E-01 0.  0.
         14    1    1    2    0    0 -0.55387484339E-03  0.27279393802E-03  0.14496053960E-01  0.14509196197E-01  0.00000000000E+00 0. -1.
     999901    1    3    3    0    0  0.12008275516E+00 -0.39749310392E-01 -0.52561975910E-01  0.89059678703E+00  0.88000000000E+00 0. -1.
        -11    1    4    4    0    0 -0.95530001472E-01  0.14850005039E-01  0.16080239663E-01  0.98006831699E-01  0.51100000000E-03 0. -1.
         11    1    4    4    0    0 -0.23998878847E-01  0.24626511415E-01  0.21985682287E-01  0.40817185070E-01  0.51100000000E-03 0.  1.
</event>
<event>
 8    1  0.2123879E+004  0.1043930E+01  0.7957747E-01            NaN
         13   -1    0    0    0    0  0.00000000000E+00  0.00000000000E+00  0.74505805969E-08  0.10566000000E+00  0.10566000000E+00 0. -1.
     999900   -1    0    0    0    0 -0.00000000000E+00 -0.00000000000E+00 -0.74505805969E-08  0.93827000000E+00  0.93827000000E+00 0. -1.
     999902    2    1    2    0    0  0.50700245384E-02 -0.74486520502E-02  0.10592322552E-01  0.10300237114E+01  0.10299298331E+01 0.  0.
     999903    2    3    3    0    0 -0.10413374351E+00 -0.25801309933E-01  0.78672844709E-01  0.14047481418E+00  0.45102248202E-01 0.  0.
         14    1    1    2    0    0 -0.50700245384E-02  0.74486520502E-02 -0.10592322552E-01  0.13906288622E-01  0.00000000000E+00 0.  1.
     999901    1    3    3    0    0  0.10920376805E+00  0.18352657883E-01 -0.68080522156E-01  0.88954889720E+00  0.88000000000E+00 0. -1.
        -11    1    4    4    0    0 -0.93335937504E-02 -0.16537822759E-01  0.24132294111E-01  0.30712282461E-01  0.51100000000E-03 0. -1.
         11    1    4    4    0    0 -0.94800149760E-01 -0.92634871749E-02  0.54540550598E-01  0.10976253172E+00  0.51100000000E-03 0.  1.
</event>
<event>
 8    1  0.2123879E+004  0.1043930E+01  0.7957747E-01            NaN
         13   -1    0    0    0    0  0.00000000000E+00  0.00000000000E+00  0.74505805969E-08  0.10566000000E+00  0.10566000000E+00 0.  1.
     999900   -1    0    0    0    0 -0.00000000000E+00 -0.00000000000E+00 -0.74505805969E-08  0.93827000000E+00  0.93827000000E+00 0. -1.
     999902    2    1    2    0    0  0.15228557310E-01  0.27216662053E-02  0.10605053487E-02  0.10284238368E+01  0.10283069323E+01 0.  0.
     999903    2    3    3    0    0  0.13047516187E+00 -0.73344465718E-02 -0.26546770339E-01  0.14042323608E+00  0.44004457082E-01 0.  0.
         14    1    1    2    0    0 -0.15228557310E-01 -0.27216662053E-02 -0.10605053487E-02  0.15506163171E-01  0.00000000000E+00 0. -1.
     999901    1    3    3    0    0 -0.11524660456E+00  0.10056112777E-01  0.27607275687E-01  0.88800060075E+00  0.88000000000E+00 0.  1.
        -11    1    4    4    0    0  0.62834077286E-01  0.18385159676E-01 -0.10667944219E-01  0.66334014800E-01  0.51100000000E-03 0. -1.
         11    1    4    4    0    0  0.67641084585E-01 -0.25719606248E-01 -0.15878826120E-01  0.74089221276E-01  0.51100000000E-03 0.  1.
</event>
<event>
 8    1  0.2123879E+004  0.1043930E+01  0.7957747E-01            NaN
         13   -1    0    0    0    0  0.00000000000E+00  0.00000000000E+00  0.74505805969E-08  0.10566000000E+00  0.10566000000E+00 0. -1.
     999900   -1    0    0    0    0 -0.00000000000E+00 -0.00000000000E+00 -0.74505805969E-08  0.93827000000E+00  0.93827000000E+00 0.  1.
     999902    2    1    2    0    0  0.92999387059E-02 -0.91234033628E-02  0.27907820058E-02  0.10306065690E+01  0.10305204444E+01 0.  0.
     999903    2    3    3    0    0  0.50899011049E-02 -0.11230236756E+00 -0.73068142832E-01  0.14132697320E+00  0.44683677159E-01 0.  0.
         14    1    1    2    0    0 -0.92999387059E-02  0.91234033628E-02 -0.27907820058E-02  0.13323430979E-01  0.00000000000E+00 0. -1.
     999901    1    3    3    0    0  0.42100376010E-02  0.10317896419E+00  0.75858924838E-01  0.88927959582E+00  0.88000000000E+00 0. -1.
        -11    1    4    4    0    0  0.66283206253E-02 -0.73049387279E-01 -0.70845191761E-01  0.10197769331E+00  0.51100000000E-03 0.  1.
         11    1    4    4    0    0 -0.15384195204E-02 -0.39252980278E-01 -0.22229510709E-02  0.39349279889E-01  0.51100000000E-03 0. -1.
</event>
<event>
 8    1  0.2123879E+004  0.1043930E+01  0.7957747E-01            NaN
         13   -1    0    0    0    0  0.00000000000E+00  0.00000000000E+00  0.74505805969E-08  0.10566000000E+00  0.10566000000E+00 0. -1.
     999900   -1    0    0    0    0 -0.00000000000E+00 -0.00000000000E+00 -0.74505805969E-08  0.93827000000E+00  0.93827000000E+00 0.  1.
     999902    2    1    2    0    0 -0.10717213005E-01 -0.83625236698E-02 -0.38693468448E-02  0.10297962708E+01  0.10296992750E+01 0.  0.
     999903    2    3    3    0    0  0.57591375788E-01 -0.97189107020E-01  0.69291865771E-01  0.13967898174E+00  0.44117640342E-01 0.  0.
         14    1    1    2    0    0  0.10717213005E-01  0.83625236698E-02  0.38693468448E-02  0.14133729222E-01  0.00000000000E+00 0. -1.
     999901    1    3    3    0    0 -0.68308588793E-01  0.88826583350E-01 -0.73161212616E-01  0.89011728904E+00  0.88000000000E+00 0.  1.
        -11    1    4    4    0    0  0.17981190346E-01 -0.65072661906E-01  0.24553883099E-01  0.71839604885E-01  0.51100000000E-03 0.  1.
         11    1    4    4    0    0  0.39610185443E-01 -0.32116445114E-01  0.44737982672E-01  0.67839376855E-01  0.51100000000E-03 0. -1.
</event>
<event>
 8    1  0.2123879E+004  0.1043930E+01  0.7957747E-01            NaN
         13   -1    0    0    0    0  0.00000000000E+00  0.00000000000E+00  0.74505805969E-08  0.10566000000E+00  0.10566000000E+00 0. -1.
     999900   -1    0    0    0    0 -0.00000000000E+00 -0.00000000000E+00 -0.74505805969E-08  0.93827000000E+00  0.93827000000E+00 0. -1.
     999902    2    1    2    0    0 -0.87342150239E-02 -0.93820056679E-02 -0.31474159295E-02  0.10307309557E+01  0.10306464420E+01 0.  0.
     999903    2    3    3    0    0 -0.94718049397E-01  0.74529039848E-01  0.56621496565E-01  0.14055872171E+00  0.44996374440E-01 0.  0.
         14    1    1    2    0    0  0.87342150239E-02  0.93820056679E-02  0.31474159295E-02  0.13199044264E-01  0.00000000000E+00 0. -1.
     999901    1    3    3    0    0  0.85983834374E-01 -0.83911045516E-01 -0.59768912495E-01  0.89017223403E+00  0.88000000000E+00 0. -1.
        -11    1    4    4    0    0 -0.30686935658E-01  0.45273069749E-01  0.41233219846E-01  0.68496557610E-01  0.51100000000E-03 0.  1.
         11    1    4    4    0    0 -0.64031113739E-01  0.29255970100E-01  0.15388276719E-01  0.72062164098E-01  0.51100000000E-03 0. -1.
</event>
<event>
 8    1  0.2123879E+004  0.1043930E+01  0.7957747E-01            NaN
         13   -1    0    0    0    0  0.00000000000E+00  0.00000000000E+00  0.74505805969E-08  0.10566000000E+00  0.10566000000E+00 0. -1.
     999900   -1    0    0    0    0 -0.00000000000E+00 -0.00000000000E+00 -0.74505805969E-08  0.93827000000E+00  0.93827000000E+00 0.  1.
     999902    2    1    2    0    0  0.86932362098E-02 -0.57945100376E-02  0.98520026863E-02  0.10295699631E+01  0.10294698142E+01 0.  0.
     999903    2    3    3    0    0  0.52804081071E-01  0.10421699941E+00 -0.58656433720E-01  0.13898492804E+00  0.47188759915E-01 0.  0.
         14    1    1    2    0    0 -0.86932362098E-02  0.57945100376E-02 -0.98520026863E-02  0.14360036884E-01  0.00000000000E+00 0.  1.
     999901    1    3    3    0    0 -0.44110844861E-01 -0.11001150944E+00  0.68508436407E-01  0.89058503508E+00  0.88000000000E+00 0. -1.
        -11    1    4    4    0    0  0.17325267762E-01  0.78409081103E-01 -0.48961036392E-01  0.94051013328E-01  0.51100000000E-03 0.  1.
         11    1    4    4    0    0  0.35478813308E-01  0.25807918303E-01 -0.96953973283E-02  0.44933914711E-01  0.51100000000E-03 0. -1.
</event>
<event>
 8    1  0.2123879E+004  0.1043930E+01  0.7957747E-01            NaN
         13   -1    0    0    0    0  0.00000000000E+00  0.00000000000E+00  0.74505805969E-08  0.10566000000E+00  0.10566000000E+00 0.  1.
     999900   -1    0    0    0    0 -0.00000000000E+00 -0.00000000000E+00 -0.74505805969E-08  0.93827000000E+00  0.93827000000E+00 0. -1.
     999902    2    1    2    0    0  0.19550232081E-02 -0.82484547666E-02 -0.12434547983E-01  0.10288808437E+01  0.10287707779E+01 0.  0.
     999903    2    3    3    0    0  0.41035923065E-01  0.11905805506E+00  0.34748400825E-01  0.13761180753E+00  0.43252638721E-01 0.  0.
         14    1    1    2    0    0 -0.19550232081E-02  0.82484547666E-02  0.12434547983E-01  0.15049156299E-01  0.00000000000E+00 0.  1.
     999901    1    3    3    0    0 -0.39080899857E-01 -0.12730650982E+00 -0.47182948808E-01  0.89126903617E+00  0.88000000000E+00 0. -1.
        -11    1    4    4    0    0 -0.47445938909E-02  0.42358572220E-01  0.19970730424E-01  0.47072826624E-01  0.51100000000E-03 0.  1.
         11    1    4    4    0    0  0.45780516956E-01  0.76699482837E-01  0.14777670401E-01  0.90538980907E-01  0.51100000000E-03 0. -1.
</event>
<event>
 8    1  0.2123879E+004  0.1043930E+01  0.7957747E-01            NaN
         13   -1    0    0    0    0  0.00000000000E+00  0.00000000000E+00  0.74505805969E-08  0.10566000000E+00  0.10566000000E+00 0. -1.
     999900   -1    0    0    0    0 -0.00000000000E+00 -0.00000000000E+00 -0.74505805969E-08  0.93827000000E+00  0.93827000000E+00 0. -1.
     999902    2    1    2    0    0  0.15514169292E-03  0.53477755376E-02 -0.13569804679E-01  0.10293436238E+01  0.10292402700E+01 0.  0.
     999903    2    3    3    0    0 -0.25218908292E-02 -0.65085228432E-01 -0.11627740904E+00  0.14057097201E+00  0.44691335003E-01 0.  0.
         14    1    1    2    0    0 -0.15514169292E-03 -0.53477755376E-02  0.13569804679E-01  0.14586376218E-01  0.00000000000E+00 0. -1.
     999901    1    3    3    0    0  0.26770325221E-02  0.70433003969E-01  0.10270760436E+00  0.88877265178E+00  0.88000000000E+00 0.  1.
        -11    1    4    4    0    0 -0.41049371763E-02 -0.52677639064E-01 -0.48750160038E-01  0.71893138695E-01  0.51100000000E-03 0.  1.
         11    1    4    4    0    0  0.15830463471E-02 -0.12407589368E-01 -0.67527249002E-01  0.68677833312E-01  0.51100000000E-03 0. -1.
</event>
<event>
 8    1  0.2123879E+004  0.1043930E+01  0.7957747E-01            NaN
         13   -1    0    0    0    0  0.00000000000E+00  0.00000000000E+00  0.74505805969E-08  0.10566000000E+00  0.10566000000E+00 0. -1.
     999900   -1    0    0    0    0 -0.00000000000E+00 -0.00000000000E+00 -0.74505805969E-08  0.93827000000E+00  0.93827000000E+00 0.  1.
     999902    2    1    2    0    0 -0.16092566787E-02  0.12915271856E-01  0.82068497249E-02  0.10285434365E+01  0.10284283419E+01 0.  0.
     999903    2    3    3    0    0  0.91293896673E-01  0.58781813579E-01  0.74904983084E-01  0.13995839467E+00  0.46773053900E-01 0.  0.
         14    1    1    2    0    0  0.16092566787E-02 -0.12915271856E-01 -0.82068497249E-02  0.15386563508E-01  0.00000000000E+00 0.  1.
     999901    1    3    3    0    0 -0.92903153351E-01 -0.45866541723E-01 -0.66698133359E-01  0.88858504182E+00  0.88000000000E+00 0.  1.
        -11    1    4    4    0    0  0.30053148968E-01  0.50986636436E-02  0.42508428480E-01  0.52310761289E-01  0.51100000000E-03 0. -1.
         11    1    4    4    0    0  0.61240747704E-01  0.53683149935E-01  0.32396554604E-01  0.87647633383E-01  0.51100000000E-03 0.  1.
</event>
<event>
 8    1  0.2123879E+004  0.1043930E+01  0.7957747E-01            NaN
         13   -1    0    0    0    0  0.00000000000E+00  0.00000000000E+00  0.74505805969E-08  0.10566000000E+00  0.10566000000E+00 0.  1.
     999900   -1    0    0    0    0 -0.00000000000E+00 -0.00000000000E+00 -0.74505805969E-08  0.93827000000E+00  0.93827000000E+00 0.  1.
     999902    2    1    2    0    0 -0.23228666024E-02  0.13666472985E-01  0.61669100448E-02  0.10287576906E+01  0.10286458025E+01 0.  0.
     999903    2    3    3    0    0 -0.34302763495E-01 -0.42347979636E-01 -0.11819293340E+00  0.13767649151E+00  0.44891155529E-01 0.  0.
         14    1    1    2    0    0  0.23228666024E-02 -0.13666472985E-01 -0.61669100448E-02  0.15172309402E-01  0.00000000000E+00 0.  1.
     999901    1    3    3    0    0  0.31979896892E-01  0.56014452621E-01  0.12435984345E+00  0.89108119909E+00  0.88000000000E+00 0. -1.
        -11    1    4    4    0    0 -0.16153596081E-01 -0.42502486120E-01 -0.52183799742E-01  0.69215677915E-01  0.51100000000E-03 0. -1.
         11    1    4    4    0    0 -0.18149167414E-01  0.15450648386E-03 -0.66009133662E-01  0.68460813593E-01  0.51100000000E-03 0.  1.
</event>
<event>
 8    1  0.2123879E+004  0.1043930E+01  0.7957747E-01            NaN
         13   -1    0    0    0    0  0.00000000000E+00  0.00000000000E+00  0.74505805969E-08  0.10566000000E+00  0.10566000000E+00 0.  1.
     999900   -1    0    0    0    0 -0.00000000000E+00 -0.00000000000E+00 -0.74505805969E-08  0.93827000000E+00  0.93827000000E+00 0.  1.
     999902    2    1    2    0    0 -0.23289348085E-01 -0.14709948030E-02 -0.37150776446E-02  0.10203003711E+01  0.10200267094E+01 0.  0.
     999903    2    3    3    0    0  0.11692716339E+00  0.28928692426E-01 -0.44813903695E-02  0.12868083435E+00  0.45053784370E-01 0.  0.
         14    1    1    2    0    0  0.23289348085E-01  0.14709948030E-02  0.37150776446E-02  0.23629628898E-01  0.00000000000E+00 0. -1.
     999901    1    3    3    0    0 -0.14021651148E+00 -0.30399687229E-01  0.76631272493E-03  0.89161953675E+00  0.88000000000E+00 0.  1.
        -11    1    4    4    0    0  0.36235981177E-01  0.54114339734E-02 -0.22119326594E-01  0.42800183171E-01  0.51100000000E-03 0. -1.
         11    1    4    4    0    0  0.80691182216E-01  0.23517258453E-01  0.17637936224E-01  0.85880651184E-01  0.51100000000E-03 0.  1.
</event>
<event>
 7    1  0.2210474E+004  0.1043930E+01  0.7957747E-01            NaN
         13   -1    0    0    0    0  0.00000000000E+00  0.00000000000E+00  0.74505805969E-08  0.10566000000E+00  0.10566000000E+00 0. -1.
     999900   -1    0    0    0    0 -0.00000000000E+00 -0.00000000000E+00 -0.74505805969E-08  0.93827000000E+00  0.93827000000E+00 0.  1.
     999903    2    1    2    0    0  0.39604785523E-01 -0.10699788659E+00  0.33371725684E-01  0.12719776046E+00  0.45260484068E-01 0.  0.
         14    1    1    2    0    0  0.74164454204E-02  0.22509094530E-01  0.18280396354E-01  0.29930517705E-01  0.00000000000E+00 0. -1.
     999901    1    1    2    0    0 -0.47021230943E-01  0.84488792064E-01 -0.51652122038E-01  0.88680172184E+00  0.88000000000E+00 0.  1.
        -11    1    3    3    0    0  0.82820824647E-02 -0.82197041534E-01  0.25628501240E-01  0.86498715156E-01  0.51100000000E-03 0.  1.
         11    1    3    3    0    0  0.31322703058E-01 -0.24800845060E-01  0.77432244442E-02  0.40699045300E-01  0.51100000000E-03 0. -1.
</event>
<event>
 8    1  0.2123879E+004  0.1043930E+01  0.7957747E-01            NaN
         13   -1    0    0    0    0  0.00000000000E+00  0.00000000000E+00  0.74505805969E-08  0.10566000000E+00  0.10566000000E+00 0. -1.
     999900   -1    0    0    0    0 -0.00000000000E+00 -0.00000000000E+00 -0.74505805969E-08  0.93827000000E+00  0.93827000000E+00 0.  1.
     999902    2    1    2    0    0 -0.64329061526E-02  0.84242494829E-02 -0.83972609451E-02  0.10304072691E+01  0.10303185313E+01 0.  0.
     999903    2    3    3    0    0 -0.92505071064E-01  0.82394737977E-02 -0.97442308030E-01  0.14173552306E+00  0.44372040766E-01 0.  0.
         14    1    1    2    0    0  0.64329061526E-02 -0.84242494829E-02  0.83972609451E-02  0.13522730948E-01  0.00000000000E+00 0.  1.
     999901    1    3    3    0    0  0.86072164911E-01  0.18477568515E-03  0.89045047085E-01  0.88867174599E+00  0.88000000000E+00 0. -1.
        -11    1    4    4    0    0 -0.21215499949E-01  0.19011486110E-02 -0.59994431217E-03  0.21315085229E-01  0.51100000000E-03 0.  1.
         11    1    4    4    0    0 -0.71289571115E-01  0.63383251867E-02 -0.96842363718E-01  0.12042043783E+00  0.51100000000E-03 0. -1.
</event>
<event>
 8    1  0.2123879E+004  0.1043930E+01  0.7957747E-01            NaN
         13   -1    0    0    0    0  0.00000000000E+00  0.00000000000E+00  0.74505805969E-08  0.10566000000E+00  0.10566000000E+00 0. -1.
     999900   -1    0    0    0    0 -0.00000000000E+00 -0.00000000000E+00 -0.74505805969E-08  0.93827000000E+00  0.93827000000E+00 0.  1.
     999902    2    1    2    0    0 -0.71502007728E-02 -0.52354067815E-02  0.10782898846E-01  0.10299727165E+01  0.10298781437E+01 0.  0.
     999903    2    3    3    0    0  0.48554267412E-01 -0.21793263672E-01  0.12227139874E+00  0.14103692803E+00  0.45920114260E-01 0.  0.
         14    1    1    2    0    0  0.71502007728E-02  0.52354067815E-02 -0.10782898846E-01  0.13957283503E-01  0.00000000000E+00 0.  1.
     999901    1    3    3    0    0 -0.55704468185E-01  0.16557856891E-01 -0.11148849990E+00  0.88893578846E+00  0.88000000000E+00 0.  1.
        -11    1    4    4    0    0  0.30738009166E-01 -0.12981583397E-01  0.11519689067E+00  0.11993302904E+00  0.51100000000E-03 0. -1.
         11    1    4    4    0    0  0.17816258246E-01 -0.88116802750E-02  0.70745080751E-02  0.21103898992E-01  0.51100000000E-03 0.  1.
</event>
<event>
 8    1  0.2123879E+004  0.1043930E+01  0.7957747E-01            NaN
         13   -1    0    0    0    0  0.00000000000E+00  0.00000000000E+00  0.74505805969E-08  0.10566000000E+00  0.10566000000E+00 0.  1.
     999900   -1    0    0    0    0 -0.00000000000E+00 -0.00000000000E+00 -0.74505805969E-08  0.93827000000E+00  0.93827000000E+00 0.  1.
     999902    2    1    2    0    0  0.12041014535E-01 -0.61784025532E-02  0.13180551913E-02  0.10303323547E+01  0.10302426244E+01 0.  0.
     999903    2    3    3    0    0 -0.74740994348E-01 -0.81526684872E-01 -0.72962229668E-01  0.13975611344E+00  0.44446233853E-01 0.  0.
         14    1    1    2    0    0 -0.12041014535E-01  0.61784025532E-02 -0.13180551913E-02  0.13597645334E-01  0.00000000000E+00 0. -1.
     999901    1    3    3    0    0  0.86782008884E-01  0.75348282319E-01  0.74280284859E-01  0.89057624122E+00  0.88000000000E+00 0.  1.
        -11    1    4    4    0    0 -0.63270561034E-01 -0.53990559041E-01 -0.32087499359E-01  0.89151629796E-01  0.51100000000E-03 0. -1.
         11    1    4    4    0    0 -0.11470433314E-01 -0.27536125831E-01 -0.40874730309E-01  0.50604483645E-01  0.51100000000E-03 0.  1.
</event>
<event>
 8    1  0.2123879E+004  0.1043930E+01  0.7957747E-01            NaN
         13   -1    0    0    0    0  0.00000000000E+00  0.00000000000E+00  0.74505805969E-08  0.10566000000E+00  0.10566000000E+00 0. -1.
     999900   -1    0    0    0    0 -0.00000000000E+00 -0.00000000000E+00 -0.74505805969E-08  0.93827000000E+00  0.93827000000E+00 0.  1.
     999902    2    1    2    0    0  0.60393034595E-02 -0.85901008705E-02 -0.10379109479E-01  0.10291655517E+01  0.10290596406E+01 0.  0.
     999903    2    3    3    0    0  0.44953214659E-01 -0.87501383899E-01 -0.90927572256E-01  0.14111750239E+00  0.44373893136E-01 0.  0.
         14    1    1    2    0    0 -0.60393034595E-02  0.85901008705E-02  0.10379109479E-01  0.14764448273E-01  0.00000000000E+00 0. -1.
     999901    1    3    3    0    0 -0.38913911200E-01  0.78911283029E-01  0.80548462777E-01  0.88804804934E+00  0.88000000000E+00 0. -1.
        -11    1    4    4    0    0  0.22891312857E-01 -0.39475104278E-01 -0.13908672670E-01  0.47707529369E-01  0.51100000000E-03 0. -1.
         11    1    4    4    0    0  0.22061901803E-01 -0.48026279621E-01 -0.77018899586E-01  0.93409973022E-01  0.51100000000E-03 0.  1.
</event>
<event>
 8    1  0.2123879E+004  0.1043930E+01  0.7957747E-01            NaN
         13   -1    0    0    0    0  0.00000000000E+00  0.00000000000E+00  0.74505805969E-08  0.10566000000E+00  0.10566000000E+00 0.  1.
     999900   -1    0    0    0    0 -0.00000000000E+00 -0.00000000000E+00 -0.74505805969E-08  0.93827000000E+00  0.93827000000E+00 0. -1.
     999902    2    1    2    0    0 -0.10385506953E-01 -0.87865679424E-02  0.94822446961E-03  0.10302932240E+01  0.10302029731E+01 0.  0.
     999903    2    3    3    0    0  0.11476994323E+00  0.57236629209E-01  0.26549645951E-01  0.13862154557E+00  0.45418912404E-01 0.  0.
         14    1    1    2    0    0  0.10385506953E-01  0.87865679424E-02 -0.94822446961E-03  0.13636776031E-01  0.00000000000E+00 0.  1.
     999901    1    3    3    0    0 -0.12515545019E+00 -0.66023197151E-01 -0.25601421481E-01  0.89167167840E+00  0.88000000000E+00 0. -1.
        -11    1    4    4    0    0  0.94746279314E-01  0.25016927470E-01  0.16493242587E-01  0.99372995708E-01  0.51100000000E-03 0.  1.
         11    1    4    4    0    0  0.20023663918E-01  0.32219701739E-01  0.10056403364E-01  0.39248549864E-01  0.51100000000E-03 0. -1.
</event>
<event>
 8    1  0.2123879E+004  0.1043930E+01  0.7957747E-01            NaN
         13   -1    0    0    0    0  0.00000000000E+00  0.00000000000E+00  0.74505805969E-08  0.10566000000E+00  0.10566000000E+00 0.  1.
     999900   -1    0    0    0    0 -0.00000000000E+00 -0.00000000000E+00 -0.74505805969E-08  0.93827000000E+00  0.93827000000E+00 0.  1.
     999902    2    1    2    0    0  0.12621215675E-01 -0.66215238908E-02  0.13380608346E-02  0.10296146212E+01  0.10295150985E+01 0.  0.
     999903    2    3    3    0    0  0.62628776616E-01  0.48563542348E-01 -0.10628172070E+00  0.13993593477E+00  0.44782590130E-01 0.  0.
         14    1    1    2    0    0 -0.12621215675E-01  0.66215238908E-02 -0.13380608346E-02  0.14315378813E-01  0.00000000000E+00 0. -1.
     999901    1    3    3    0    0 -0.50007560941E-01 -0.55185066239E-01  0.10761978154E+00  0.88967868642E+00  0.88000000000E+00 0. -1.
        -11    1    4    4    0    0  0.39077293628E-01  0.30822276492E-01 -0.29910015900E-01  0.58068216587E-01  0.51100000000E-03 0. -1.
         11    1    4    4    0    0  0.23551482988E-01  0.17741265856E-01 -0.76371704803E-01  0.81867718183E-01  0.51100000000E-03 0.  1.
</event>
<event>
 8    1  0.2123879E+004  0.1043930E+01  0.7957747E-01            NaN
         13   -1    0    0    0    0  0.00000000000E+00  0.00000000000E+00  0.74505805969E-08  0.10566000000E+00  0.10566000000E+00 0. -1.
     999900   -1    0    0    0    0 -0.00000000000E+00 -0.00000000000E+00 -0.74505805969E-08  0.93827000000E+00  0.93827000000E+00 0. -1.
     999902    2    1    2    0    0 -0.13613290974E-01  0.18356733791E-03  0.42293972613E-03  0.10303089036E+01  0.10302188615E+01 0.  0.
     999903    2    3    3    0    0  0.11412384026E+00 -0.14652458699E-01  0.63319812353E-01  0.13874123994E+00  0.44730163904E-01 0.  0.
         14    1    1    2    0    0  0.13613290974E-01 -0.18356733791E-03 -0.42293972613E-03  0.13621096363E-01  0.00000000000E+00 0.  1.
     999901    1    3    3    0    0 -0.12773713123E+00  0.14836026037E-01 -0.62896872627E-01  0.89156766370E+00  0.88000000000E+00 0. -1.
        -11    1    4    4    0    0  0.80293953922E-01  0.63641832945E-02  0.56361230317E-01  0.98308042750E-01  0.51100000000E-03 0. -1.
         11    1    4    4    0    0  0.33829886334E-01 -0.21016641994E-01  0.69585820359E-02  0.40433197190E-01  0.51100000000E-03 0.  1.
</event>
<event>
 8    1  0.2123879E+004  0.1043930E+01  0.7957747E-01            NaN
         13   -1    0    0    0    0  0.00000000000E+00  0.00000000000E+00  0.74505805969E-08  0.10566000000E+00  0.10566000000E+00 0. -1.
     999900   -1    0    0    0    0 -0.00000000000E+00 -0.00000000000E+00 -0.74505805969E-08  0.93827000000E+00  0.93827000000E+00 0. -1.
     999902    2    1    2    0    0 -0.10163627547E-01 -0.49193286811E-02 -0.75104934203E-02  0.10303687821E+01  0.10302795351E+01 0.  0.
     999903    2    3    3    0    0  0.10470979247E+00  0.44864363033E-01 -0.68072951721E-01  0.13944671483E+00  0.42831154692E-01 0.  0.
         14    1    1    2    0    0  0.10163627547E-01  0.49193286811E-02  0.75104934203E-02  0.13561217903E-01  0.00000000000E+00 0.  1.
     999901    1    3    3    0    0 -0.11487342001E+00 -0.49783691715E-01  0.60562458301E-01  0.89092206727E+00  0.88000000000E+00 0.  1.
        -11    1    4    4    0    0  0.19861664419E-01  0.25660260748E-01 -0.31004167352E-01  0.44882671593E-01  0.51100000000E-03 0.  1.
         11    1    4    4    0    0  0.84848128048E-01  0.19204102285E-01 -0.37068784370E-01  0.94564043238E-01  0.51100000000E-03 0. -1.
</event>
<event>
 8    1  0.2123879E+004  0.1043930E+01  0.7957747E-01            NaN
         13   -1    0    0    0    0  0.00000000000E+00  0.00000000000E+00  0.74505805969E-08  0.10566000000E+00  0.10566000000E+00 0.  1.
     999900   -1    0    0    0    0 -0.00000000000E+00 -0.00000000000E+00 -0.74505805969E-08  0.93827000000E+00  0.93827000000E+00 0. -1.
     999902    2    1    2    0    0 -0.50875853169E-02 -0.18527546856E-01  0.46202120639E-02  0.10241689303E+01  0.10239782702E+01 0.  0.
     999903    2    3    3    0    0  0.16302756522E-01  0.80201384270E-01 -0.94456958199E-01  0.13286582009E+00  0.45090656325E-01 0.  0.
         14    1    1    2    0    0  0.50875853169E-02  0.18527546856E-01 -0.46202120639E-02  0.19761069718E-01  0.00000000000E+00 0. -1.
     999901    1    3    3    0    0 -0.21390341839E-01 -0.98728931126E-01  0.99077170263E-01  0.89130311019E+00  0.88000000000E+00 0.  1.
        -11    1    4    4    0    0  0.29264818500E-02  0.24044891397E-01 -0.62162436952E-01  0.66716945277E-01  0.51100000000E-03 0.  1.
         11    1    4    4    0    0  0.13376274672E-01  0.56156492872E-01 -0.32294521248E-01  0.66148874816E-01  0.51100000000E-03 0. -1.
</event>
<event>
 8    1  0.2123879E+004  0.1043930E+01  0.7957747E-01            NaN
         13   -1    0    0    0    0  0.00000000000E+00  0.00000000000E+00  0.74505805969E-08  0.10566000000E+00  0.10566000000E+00 0. -1.
     999900   -1    0    0    0    0 -0.00000000000E+00 -0.00000000000E+00 -0.74505805969E-08  0.93827000000E+00  0.93827000000E+00 0. -1.
     999902    2    1    2    0    0  0.10235040804E-01 -0.62243948420E-02  0.17741561317E-01  0.10225229416E+01  0.10222988330E+01 0.  0.
     999903    2    3    3    0    0  0.64971477024E-01  0.99231573687E-01  0.43329030645E-01  0.13416954495E+00  0.45341634870E-01 0.  0.
         14    1    1    2    0    0 -0.10235040804E-01  0.62243948420E-02 -0.17741561317E-01  0.21407058401E-01  0.00000000000E+00 0. -1.
     999901    1    3    3    0    0 -0.54736436220E-01 -0.10545596853E+00 -0.25587469328E-01  0.88835339665E+00  0.88000000000E+00 0. -1.
        -11    1    4    4    0    0  0.59787304404E-01  0.10080593846E+00  0.31831307214E-01  0.12144896968E+00  0.51100000000E-03 0. -1.
         11    1    4    4    0    0  0.51841726202E-02 -0.15743647692E-02  0.11497723431E-01  0.12720575273E-01  0.51100000000E-03 0.  1.
</event>
<event>
 8    1  0.2123879E+004  0.1043930E+01  0.7957747E-01            NaN
         13   -1    0    0    0    0  0.00000000000E+00  0.00000000000E+00  0.74505805969E-08  0.10566000000E+00  0.10566000000E+00 0. -1.
     999900   -1    0    0    0    0 -0.00000000000E+00 -0.00000000000E+00 -0.74505805969E-08  0.93827000000E+00  0.93827000000E+00 0.  1.
     999902    2    1    2    0    0 -0.78327520107E-02  0.10997723866E-01 -0.99650138700E-03  0.10303913535E+01  0.10303024053E+01 0.  0.
     999903    2    3    3    0    0  0.66404355716E-01  0.95121568666E-01  0.66193020198E-01  0.14072714648E+00  0.44327898095E-01 0.  0.
         14    1    1    2    0    0  0.78327520107E-02 -0.10997723866E-01  0.99650138700E-03  0.13538646510E-01  0.00000000000E+00 0. -1.
     999901    1    3    3    0    0 -0.74237107727E-01 -0.84123844799E-01 -0.67189521585E-01  0.88966420701E+00  0.88000000000E+00 0.  1.
        -11    1    4    4    0    0  0.66359743111E-01  0.76309200452E-01  0.67933516180E-01  0.12182747359E+00  0.51100000000E-03 0. -1.
         11    1    4    4    0    0  0.44612605497E-04  0.18812368213E-01 -0.17404959821E-02  0.18899672890E-01  0.51100000000E-03 0.  1.
</event>
<event>
 8    1  0.2123879E+004  0.1043930E+01  0.7957747E-01            NaN
         13   -1    0    0    0    0  0.00000000000E+00  0.00000000000E+00  0.74505805969E-08  0.10566000000E+00  0.10566000000E+00 0.  1.
     999900   -1    0    0    0    0 -0.00000000000E+00 -0.00000000000E+00 -0.74505805969E-08  0.93827000000E+00  0.93827000000E+00 0. -1.
     999902    2    1    2    0    0  0.35689917453E-02  0.12266629412E-01 -0.15099938595E-02  0.10310657868E+01  0.10309855328E+01 0.  0.
     999903    2    3    3    0    0  0.32124276419E-01 -0.63028056550E-01 -0.11248389661E+00  0.14044807921E+00  0.45481104969E-01 0.  0.
         14    1    1    2    0    0 -0.35689917453E-02 -0.12266629412E-01  0.15099938595E-02  0.12864213177E-01  0.00000000000E+00 0.  1.
     999901    1    3    3    0    0 -0.28555284674E-01  0.75294685963E-01  0.11097390275E+00  0.89061770761E+00  0.88000000000E+00 0.  1.
        -11    1    4    4    0    0 -0.24990828204E-02  0.59967223570E-02 -0.56402940162E-02  0.86185922029E-02  0.51100000000E-03 0.  1.
         11    1    4    4    0    0  0.34623359240E-01 -0.69024778907E-01 -0.10684360260E+00  0.13182948701E+00  0.51100000000E-03 0. -1.
</event>
<event>
 8    1  0.2123879E+004  0.1043930E+01  0.7957747E-01            NaN
         13   -1    0    0    0    0  0.00000000000E+00  0.00000000000E+00  0.74505805969E-08  0.10566000000E+00  0.10566000000E+00 0. -1.
     999900   -1    0    0    0    0 -0.00000000000E+00 -0.00000000000E+00 -0.74505805969E-08  0.93827000000E+00  0.93827000000E+00 0. -1.
     999902    2    1    2    0    0  0.17268920247E-02 -0.92409858916E-02  0.11312740358E-01  0.10292209528E+01  0.10291158407E+01 0.  0.
     999903    2    3    3    0    0  0.91916432517E-01 -0.54905927327E-01 -0.76775472751E-01  0.13906423994E+00  0.44509529220E-01 0.  0.
         14    1    1    2    0    0 -0.17268920247E-02  0.92409858916E-02 -0.11312740358E-01  0.14709047240E-01  0.00000000000E+00 0.  1.
     999901    1    3    3    0    0 -0.90189540493E-01  0.45664941435E-01  0.88088213109E-01  0.89015671282E+00  0.88000000000E+00 0.  1.
        -11    1    4    4    0    0  0.79534360003E-01 -0.47563873189E-01 -0.42636019565E-01  0.10201042956E+00  0.51100000000E-03 0.  1.
         11    1    4    4    0    0  0.12382072514E-01 -0.73420541380E-02 -0.34139453186E-01  0.37053810379E-01  0.51100000000E-03 0. -1.
</event>
<event>
 8    1  0.2123879E+004  0.1043930E+01  0.7957747E-01            NaN
         13   -1    0    0    0    0  0.00000000000E+00  0.00000000000E+00  0.74505805969E-08  0.10566000000E+00  0.10566000000E+00 0.  1.
     999900   -1    0    0    0    0 -0.00000000000E+00 -0.00000000000E+00 -0.74505805969E-08  0.93827000000E+00  0.93827000000E+00 0. -1.
     999902    2    1    2    0    0  0.90466346672E-02  0.10113798101E-01 -0.10096100962E-02  0.10303230230E+01  0.10302331687E+01 0.  0.
     999903    2    3    3    0    0  0.12748904961E+00  0.26708034884E-01  0.31725784984E-01  0.14162983609E+00  0.45669553752E-01 0.  0.
         14    1    1    2    0    0 -0.90466346672E-02 -0.10113798101E-01  0.10096100962E-02  0.13606977011E-01  0.00000000000E+00 0.  1.
     999901    1    3    3    0    0 -0.11844241494E+00 -0.16594236784E-01 -0.32735395081E-01  0.88869318690E+00  0.88000000000E+00 0. -1.
        -11    1    4    4    0    0  0.34808750754E-01  0.22701131955E-01  0.25264338956E-01  0.48636801550E-01  0.51100000000E-03 0.  1.
         11    1    4    4    0    0  0.92680298856E-01  0.40069029295E-02  0.64614460282E-02  0.92993034539E-01  0.51100000000E-03 0. -1.
</event>
<event>
 8    1  0.2123879E+004  0.1043930E+01  0.7957747E-01            NaN
         13   -1    0    0    0    0  0.00000000000E+00  0.00000000000E+00  0.74505805969E-08  0.10566000000E+00  0.10566000000E+00 0.  1.
     999900   -1    0    0    0    0 -0.00000000000E+00 -0.00000000000E+00 -0.74505805969E-08  0.93827000000E+00  0.93827000000E+00 0.  1.
     999902    2    1    2    0    0  0.45143244835E-02  0.76587273195E-02 -0.12417796913E-01  0.10286579042E+01  0.10285445284E+01 0.  0.
     999903    2    3    3    0    0  0.61496133232E-01  0.94754167187E-02  0.11441103969E+00  0.13773940026E+00  0.44840812398E-01 0.  0.
         14    1    1    2    0    0 -0.45143244835E-02 -0.76587273195E-02  0.12417796913E-01  0.15272095791E-01  0.00000000000E+00 0.  1.
     999901    1    3    3    0    0 -0.56981808748E-01 -0.18166893992E-02 -0.12682883660E+00  0.89091850395E+00  0.88000000000E+00 0.  1.
        -11    1    4    4    0    0  0.24845419240E-01  0.22669365253E-01  0.75618237397E-01  0.82762152741E-01  0.51100000000E-03 0. -1.
         11    1    4    4    0    0  0.36650713992E-01 -0.13193948534E-01  0.38792802291E-01  0.54977247517E-01  0.51100000000E-03 0.  1.
</event>
<event>
 8    1  0.2123879E+004  0.1043930E+01  0.7957747E-01            NaN
         13   -1    0    0    0    0  0.00000000000E+00  0.00000000000E+00  0.74505805969E-08  0.10566000000E+00  0.10566000000E+00 0.  1.
     999900   -1    0    0    0    0 -0.00000000000E+00 -0.00000000000E+00 -0.74505805969E-08  0.93827000000E+00  0.93827000000E+00 0.  1.
     999902    2    1    2    0    0 -0.11957254254E-01  0.23493258363E-02  0.61428364698E-02  0.10302833997E+01  0.10301930178E+01 0.  0.
     999903    2    3    3    0    0 -0.50926830377E-01 -0.10351401716E-02 -0.12267169114E+00  0.14004564209E+00  0.44382704894E-01 0.  0.
         14    1    1    2    0    0  0.11957254254E-01 -0.23493258363E-02 -0.61428364698E-02  0.13646600348E-01  0.00000000000E+00 0. -1.
     999901    1    3    3    0    0  0.38969576123E-01  0.33844660079E-02  0.12881452761E+00  0.89023775757E+00  0.88000000000E+00 0. -1.
        -11    1    4    4    0    0  0.36234494828E-02  0.11067510684E-01 -0.19768425473E-01  0.22949312530E-01  0.51100000000E-03 0.  1.
         11    1    4    4    0    0 -0.54550279860E-01 -0.12102650855E-01 -0.10290326566E+00  0.11709632956E+00  0.51100000000E-03 0. -1.
</event>
<event>
 8    1  0.2123879E+004  0.1043930E+01  0.7957747E-01            NaN
         13   -1    0    0    0    0  0.00000000000E+00  0.00000000000E+00  0.74505805969E-08  0.10566000000E+00  0.10566000000E+00 0. -1.
     999900   -1    0    0    0    0 -0.00000000000E+00 -0.00000000000E+00 -0.74505805969E-08  0.93827000000E+00  0.93827000000E+00 0. -1.
     999902    2    1    2    0    0  0.86195000201E-02  0.25779315002E-02 -0.22978223581E-02  0.10346444468E+01  0.10346027787E+01 0.  0.
     999903    2    3    3    0    0 -0.93059522699E-01 -0.97570774688E-01  0.14013619949E-01  0.14299740327E+00  0.45516425162E-01 0.  0.
         14    1    1    2    0    0 -0.86195000201E-02 -0.25779315002E-02  0.22978223581E-02  0.92855532418E-02  0.00000000000E+00 0.  1.
     999901    1    3    3    0    0  0.10167902272E+00  0.10014870619E+00 -0.16311442307E-01  0.89164704349E+00  0.88000000000E+00 0. -1.
        -11    1    4    4    0    0 -0.41400122620E-01 -0.19069100468E-01 -0.84833329095E-02  0.46366246385E-01  0.51100000000E-03 0. -1.
         11    1    4    4    0    0 -0.51659400080E-01 -0.78501674220E-01  0.22496952858E-01  0.96631156884E-01  0.51100000000E-03 0.  1.
</event>
<event>
 8    1  0.2123879E+004  0.1043930E+01  0.7957747E-01            NaN
         13   -1    0    0    0    0  0.00000000000E+00  0.00000000000E+00  0.74505805969E-08  0.10566000000E+00  0.10566000000E+00 0.  1.
     999900   -1    0    0    0    0 -0.00000000000E+00 -0.00000000000E+00 -0.74505805969E-08  0.93827000000E+00  0.93827000000E+00 0. -1.
     999902    2    1    2    0    0 -0.32659118213E-02 -0.14410755785E-01  0.38884348716E-02  0.10286507334E+01  0.10285372503E+01 0.  0.
     999903    2    3    3    0    0  0.72626219288E-01 -0.91249927135E-01  0.63433090520E-01  0.14005102608E+00  0.44602869895E-01 0.  0.
         14    1    1    2    0    0  0.32659118213E-02  0.14410755785E-01 -0.38884348716E-02  0.15279266608E-01  0.00000000000E+00 0.  1.
     999901    1    3    3    0    0 -0.75892131110E-01  0.76839171350E-01 -0.59544655649E-01  0.88859970731E+00  0.88000000000E+00 0. -1.
        -11    1    4    4    0    0  0.67092461849E-01 -0.67772265493E-01  0.65717355974E-01  0.11581671038E+00  0.51100000000E-03 0. -1.
         11    1    4    4    0    0  0.55337574392E-02 -0.23477661643E-01 -0.22842654535E-02  0.24234315696E-01  0.51100000000E-03 0.  1.
</event>
<event>
 8    1  0.2123879E+004  0.1043930E+01  0.7957747E-01            NaN
         13   -1    0    0    0    0  0.00000000000E+00  0.00000000000E+00  0.74505805969E-08  0.10566000000E+00  0.10566000000E+00 0.  1.
     999900   -1    0    0    0    0 -0.00000000000E+00 -0.00000000000E+00 -0.74505805969E-08  0.93827000000E+00  0.93827000000E+00 0.  1.
     999902    2    1    2    0    0 -0.62879522436E-02 -0.10597229067E-01  0.67146269644E-02  0.10298969739E+01  0.10298013648E+01 0.  0.
     999903    2    3    3    0    0  0.86360702076E-01 -0.41218363665E-02 -0.99706349021E-01  0.13863319249E+00  0.42457574428E-01 0.  0.
         14    1    1    2    0    0  0.62879522436E-02  0.10597229067E-01 -0.67146269644E-02  0.14033026138E-01  0.00000000000E+00 0. -1.
     999901    1    3    3    0    0 -0.92648654320E-01 -0.64753927007E-02  0.10642097599E+00  0.89126378137E+00  0.88000000000E+00 0. -1.
        -11    1    4    4    0    0  0.10776914461E-01 -0.98771379255E-02 -0.38560595632E-01  0.41241731237E-01  0.51100000000E-03 0.  1.
         11    1    4    4    0    0  0.75583787615E-01  0.57553015590E-02 -0.61145753389E-01  0.97391461252E-01  0.51100000000E-03 0. -1.
</event>
<event>
 8    1  0.2123879E+004  0.1043930E+01  0.7957747E-01            NaN
         13   -1    0    0    0    0  0.00000000000E+00  0.00000000000E+00  0.74505805969E-08  0.10566000000E+00  0.10566000000E+00 0. -1.
     999900   -1    0    0    0    0 -0.00000000000E+00 -0.00000000000E+00 -0.74505805969E-08  0.93827000000E+00  0.93827000000E+00 0.  1.
     999902    2    1    2    0    0  0.11084167301E-01  0.68366608557E-02  0.46493659662E-02  0.10301019379E+01  0.10300091200E+01 0.  0.
     999903    2    3    3    0    0  0.49015839494E-01 -0.48761724717E-01 -0.11259824463E+00  0.13977784278E+00  0.45598490328E-01 0.  0.
         14    1    1    2    0    0 -0.11084167301E-01 -0.68366608557E-02 -0.46493659662E-02  0.13828062059E-01  0.00000000000E+00 0.  1.
     999901    1    3    3    0    0 -0.37931672192E-01  0.55598385573E-01  0.11724761059E+00  0.89032409516E+00  0.88000000000E+00 0. -1.
        -11    1    4    4    0    0 -0.58391129433E-02 -0.19530115038E-01 -0.23115319909E-01  0.30823688437E-01  0.51100000000E-03 0.  1.
         11    1    4    4    0    0  0.54854952437E-01 -0.29231609679E-01 -0.89482924719E-01  0.10895415434E+00  0.51100000000E-03 0. -1.
</event>
<event>
 8    1  0.2123879E+004  0.1043930E+01  0.7957747E-01            NaN
         13   -1    0    0    0    0  0.00000000000E+00  0.00000000000E+00  0.74505805969E-08  0.10566000000E+00  0.10566000000E+00 0.  1.
     999900   -1    0    0    0    0 -0.00000000000E+00 -0.00000000000E+00 -0.74505805969E-08  0.93827000000E+00  0.93827000000E+00 0. -1.
     999902    2    1    2    0    0  0.98480384729E-03 -0.83752155966E-02  0.11234567381E-01  0.10298825953E+01  0.10297867889E+01 0.  0.
     999903    2    3    3    0    0  0.62878637793E-01  0.10833558339E+00 -0.38989486766E-01  0.13860558285E+00  0.44732603332E-01 0.  0.
         14    1    1    2    0    0 -0.98480384729E-03  0.83752155966E-02 -0.11234567381E-01  0.14047404712E-01  0.00000000000E+00 0. -1.
     999901    1    3    3    0    0 -0.61893833946E-01 -0.11671079899E+00  0.50224054147E-01  0.89127701244E+00  0.88000000000E+00 0. -1.
        -11    1    4    4    0    0  0.70191451042E-02  0.53861270541E-01 -0.92318677857E-02  0.55098034140E-01  0.51100000000E-03 0.  1.
         11    1    4    4    0    0  0.55859492689E-01  0.54474312848E-01 -0.29757618981E-01  0.83507548713E-01  0.51100000000E-03 0. -1.
</event>
<event>
 8    1  0.2123879E+004  0.1043930E+01  0.7957747E-01            NaN
         13   -1    0    0    0    0  0.00000000000E+00  0.00000000000E+00  0.74505805969E-08  0.10566000000E+00  0.10566000000E+00 0.  1.
     999900   -1    0    0    0    0 -0.00000000000E+00 -0.00000000000E+00 -0.74505805969E-08  0.93827000000E+00  0.93827000000E+00 0.  1.
     999902    2    1    2    0    0  0.22123432773E-02 -0.99428653083E-02 -0.10265102089E-01  0.10294687637E+01  0.10293671882E+01 0.  0.
     999903    2    3    3    0    0 -0.84038972533E-01 -0.99889221065E-01 -0.24505045589E-01  0.14057483734E+00  0.46047608462E-01 0.  0.
         14    1    1    2    0    0 -0.22123432773E-02  0.99428653083E-02  0.10265102089E-01  0.14461236261E-01  0.00000000000E+00 0.  1.
     999901    1    3    3    0    0  0.86251315811E-01  0.89946355757E-01  0.14239943501E-01  0.88889392640E+00  0.88000000000E+00 0. -1.
        -11    1    4    4    0    0 -0.48314028725E-01 -0.60571919368E-01 -0.37205375497E-01  0.85951753178E-01  0.51100000000E-03 0.  1.
         11    1    4    4    0    0 -0.35724943808E-01 -0.39317301697E-01  0.12700329907E-01  0.54623084164E-01  0.51100000000E-03 0. -1.
</event>
<event>
 8    1  0.2123879E+004  0.1043930E+01  0.7957747E-01            NaN
         13   -1    0    0    0    0  0.00000000000E+00  0.00000000000E+00  0.74505805969E-08  0.10566000000E+00  0.10566000000E+00 0.  1.
     999900   -1    0    0    0    0 -0.00000000000E+00 -0.00000000000E+00 -0.74505805969E-08  0.93827000000E+00  0.93827000000E+00 0.  1.
     999902    2    1    2    0    0 -0.98114175715E-02  0.65208586585E-02 -0.20568435732E-03  0.10321474783E+01  0.10320802241E+01 0.  0.
     999903    2    3    3    0    0 -0.54625978719E-01 -0.97753839596E-01  0.73797235867E-01  0.14177789782E+00  0.45990537946E-01 0.  0.
         14    1    1    2    0    0  0.98114175715E-02 -0.65208586585E-02  0.20568435732E-03  0.11782521736E-01  0.00000000000E+00 0.  1.
     999901    1    3    3    0    0  0.44814561147E-01  0.10427469825E+00 -0.74002920224E-01  0.89036958045E+00  0.88000000000E+00 0.  1.
        -11    1    4    4    0    0 -0.23216804643E-01 -0.37269554973E-01  0.56322612694E-01  0.71418047911E-01  0.51100000000E-03 0.  1.
         11    1    4    4    0    0 -0.31409174075E-01 -0.60484284624E-01  0.17474623172E-01  0.70359849904E-01  0.51100000000E-03 0. -1.
</event>
<event>
 8    1  0.2123879E+004  0.1043930E+01  0.7957747E-01            NaN
         13   -1    0    0    0    0  0.00000000000E+00  0.00000000000E+00  0.74505805969E-08  0.10566000000E+00  0.10566000000E+00 0.  1.
     999900   -1    0    0    0    0 -0.00000000000E+00 -0.00000000000E+00 -0.74505805969E-08  0.93827000000E+00  0.93827000000E+00 0.  1.
     999902    2    1    2    0    0 -0.86658318204E-03  0.13190867780E-01  0.35333790142E-02  0.10302466259E+01  0.10301557530E+01 0.  0.
     999903    2    3    3    0    0  0.17752130040E-01  0.11978785697E+00  0.58248711787E-01  0.14193173679E+00  0.45688474332E-01 0.  0.
         14    1    1    2    0    0  0.86658318204E-03 -0.13190867780E-01 -0.35333790142E-02  0.13683374089E-01  0.00000000000E+00 0. -1.
     999901    1    3    3    0    0 -0.18618713222E-01 -0.10659698919E+00 -0.54715332773E-01  0.88831488912E+00  0.88000000000E+00 0. -1.
        -11    1    4    4    0    0  0.13217679102E-01  0.43085674782E-01 -0.71704967107E-03  0.45076132193E-01  0.51100000000E-03 0.  1.
         11    1    4    4    0    0  0.45344509381E-02  0.76702182186E-01  0.58965761458E-01  0.96855604602E-01  0.51100000000E-03 0. -1.
</event>
