<event>
 8    1  0.2877139E+004  0.1043930E+01  0.7957747E-01            NaN
         13   -1    0    0    0    0  0.00000000000E+00  0.00000000000E+00  0.74505805969E-08  0.10566000000E+00  0.10566000000E+00 0. -1.
     999900   -1    0    0    0    0 -0.00000000000E+00 -0.00000000000E+00 -0.74505805969E-08  0.93827000000E+00  0.93827000000E+00 0.  1.
     999902    2    1    2    0    0  0.10976769223E-01 -0.49692601344E-02  0.74158144071E-02  0.10297815968E+01  0.10296843982E+01 0.  0.
     999903    2    3    3    0    0 -0.49689236343E-01 -0.44795997875E-01  0.11672715019E+00  0.14005382869E+00  0.38912025224E-01 0.  0.
         14    1    1    2    0    0 -0.10976769223E-01  0.49692601344E-02 -0.74158144071E-02  0.14148403167E-01  0.00000000000E+00 0.  1.
     999901    1    3    3    0    0  0.60666005566E-01  0.39826737740E-01 -0.10931133578E+00  0.88972776814E+00  0.88000000000E+00 0. -1.
        -11    1    4    4    0    0 -0.14736898114E-01  0.40857264763E-02  0.12563852121E-01  0.19798505701E-01  0.51100000000E-03 0.  1.
         11    1    4    4    0    0 -0.34952338229E-01 -0.48881724351E-01  0.10416329806E+00  0.12025532299E+00  0.51100000000E-03 0. -1.
</event>
<event>
 8    1  0.2877139E+004  0.1043930E+01  0.7957747E-01            NaN
         13   -1    0    0    0    0  0.00000000000E+00  0.00000000000E+00  0.74505805969E-08  0.10566000000E+00  0.10566000000E+00 0. -1.
     999900   -1    0    0    0    0 -0.00000000000E+00 -0.00000000000E+00 -0.74505805969E-08  0.93827000000E+00  0.93827000000E+00 0. -1.
     999902    2    1    2    0    0  0.61588994588E-02 -0.76439606242E-02 -0.10033637766E-01  0.10298930465E+01  0.10297973836E+01 0.  0.
     999903    2    3    3    0    0  0.54812060553E-01  0.70917596648E-01 -0.99861738026E-01  0.14050666480E+00  0.41666396961E-01 0.  0.
         14    1    1    2    0    0 -0.61588994588E-02  0.76439606242E-02  0.10033637766E-01  0.14036953494E-01  0.00000000000E+00 0. -1.
     999901    1    3    3    0    0 -0.48653161094E-01 -0.78561557272E-01  0.89828100259E-01  0.88938638170E+00  0.88000000000E+00 0.  1.
        -11    1    4    4    0    0  0.40728033229E-01  0.43814330058E-01 -0.90630676997E-01  0.10859396366E+00  0.51100000000E-03 0.  1.
         11    1    4    4    0    0  0.14084027324E-01  0.27103266590E-01 -0.92310610285E-02  0.31912701143E-01  0.51100000000E-03 0. -1.
</event>
<event>
 8    1  0.2877139E+004  0.1043930E+01  0.7957747E-01            NaN
         13   -1    0    0    0    0  0.00000000000E+00  0.00000000000E+00  0.74505805969E-08  0.10566000000E+00  0.10566000000E+00 0. -1.
     999900   -1    0    0    0    0 -0.00000000000E+00 -0.00000000000E+00 -0.74505805969E-08  0.93827000000E+00  0.93827000000E+00 0.  1.
     999902    2    1    2    0    0 -0.57599362197E-02 -0.11940829230E-01 -0.41229405405E-02  0.10300462359E+01  0.10299526635E+01 0.  0.
     999903    2    3    3    0    0 -0.54517078378E-01  0.36747933092E-01 -0.11549185694E+00  0.14035477809E+00  0.45150551414E-01 0.  0.
         14    1    1    2    0    0  0.57599362197E-02  0.11940829230E-01  0.41229405405E-02  0.13883764139E-01  0.00000000000E+00 0. -1.
     999901    1    3    3    0    0  0.48757142158E-01 -0.48688762322E-01  0.11136891640E+00  0.88969145777E+00  0.88000000000E+00 0.  1.
        -11    1    4    4    0    0 -0.35901363300E-01  0.46198803642E-01 -0.78974946848E-01  0.98288049607E-01  0.51100000000E-03 0.  1.
         11    1    4    4    0    0 -0.18615715077E-01 -0.94508705501E-02 -0.36516910090E-01  0.42066728486E-01  0.51100000000E-03 0. -1.
</event>
<event>
 8    1  0.2877139E+004  0.1043930E+01  0.7957747E-01            NaN
         13   -1    0    0    0    0  0.00000000000E+00  0.00000000000E+00  0.74505805969E-08  0.10566000000E+00  0.10566000000E+00 0.  1.
     999900   -1    0    0    0    0 -0.00000000000E+00 -0.00000000000E+00 -0.74505805969E-08  0.93827000000E+00  0.93827000000E+00 0.  1.
     999902    2    1    2    0    0  0.75904595267E-03  0.12397957980E-01  0.99745396191E-02  0.10279996217E+01  0.10278761819E+01 0.  0.
     999903    2    3    3    0    0  0.74643283657E-01  0.70226811047E-01  0.84179218168E-01  0.13990650092E+00  0.44545072030E-01 0.  0.
         14    1    1    2    0    0 -0.75904595267E-03 -0.12397957980E-01 -0.99745396191E-02  0.15930378321E-01  0.00000000000E+00 0. -1.
     999901    1    3    3    0    0 -0.73884237704E-01 -0.57828853067E-01 -0.74204678549E-01  0.88809312076E+00  0.88000000000E+00 0.  1.
        -11    1    4    4    0    0  0.52693426869E-01  0.24460408185E-01  0.29004550815E-01  0.64934073434E-01  0.51100000000E-03 0.  1.
         11    1    4    4    0    0  0.21949856788E-01  0.45766402862E-01  0.55174667353E-01  0.74972427482E-01  0.51100000000E-03 0. -1.
</event>
<event>
 8    1  0.2877139E+004  0.1043930E+01  0.7957747E-01            NaN
         13   -1    0    0    0    0  0.00000000000E+00  0.00000000000E+00  0.74505805969E-08  0.10566000000E+00  0.10566000000E+00 0.  1.
     999900   -1    0    0    0    0 -0.00000000000E+00 -0.00000000000E+00 -0.74505805969E-08  0.93827000000E+00  0.93827000000E+00 0.  1.
     999902    2    1    2    0    0  0.37381778449E-02  0.81778495396E-02  0.11306899881E-01  0.10294836447E+01  0.10293822796E+01 0.  0.
     999903    2    3    3    0    0  0.33337021777E-01  0.65390918325E-01 -0.10957469451E+00  0.13888733510E+00  0.43540199289E-01 0.  0.
         14    1    1    2    0    0 -0.37381778449E-02 -0.81778495396E-02 -0.11306899881E-01  0.14446355305E-01  0.00000000000E+00 0. -1.
     999901    1    3    3    0    0 -0.29598843932E-01 -0.57213068785E-01  0.12088159439E+00  0.89059630959E+00  0.88000000000E+00 0. -1.
        -11    1    4    4    0    0  0.13923064985E-01  0.11556487156E-01 -0.61613452049E-01  0.64217464356E-01  0.51100000000E-03 0.  1.
         11    1    4    4    0    0  0.19413956792E-01  0.53834431169E-01 -0.47961242460E-01  0.74669870744E-01  0.51100000000E-03 0. -1.
</event>
<event>
 8    1  0.2877139E+004  0.1043930E+01  0.7957747E-01            NaN
         13   -1    0    0    0    0  0.00000000000E+00  0.00000000000E+00  0.74505805969E-08  0.10566000000E+00  0.10566000000E+00 0. -1.
     999900   -1    0    0    0    0 -0.00000000000E+00 -0.00000000000E+00 -0.74505805969E-08  0.93827000000E+00  0.93827000000E+00 0.  1.
     999902    2    1    2    0    0  0.13157248797E-01  0.59473541282E-03 -0.29223444416E-02  0.10304390029E+01  0.10303506838E+01 0.  0.
     999903    2    3    3    0    0  0.35481085295E-01  0.54048543519E-01 -0.11721803052E+00  0.14115886303E+00  0.44783986693E-01 0.  0.
         14    1    1    2    0    0 -0.13157248797E-01 -0.59473541282E-03  0.29223444416E-02  0.13490997115E-01  0.00000000000E+00 0.  1.
     999901    1    3    3    0    0 -0.22323836497E-01 -0.53453808106E-01  0.11429568608E+00  0.88928013985E+00  0.88000000000E+00 0. -1.
        -11    1    4    4    0    0  0.12029157916E-01  0.26691712612E-01 -0.93597298329E-01  0.98070706829E-01  0.51100000000E-03 0. -1.
         11    1    4    4    0    0  0.23451927378E-01  0.27356830907E-01 -0.23620732190E-01  0.43088156206E-01  0.51100000000E-03 0.  1.
</event>
<event>
 8    1  0.2877139E+004  0.1043930E+01  0.7957747E-01            NaN
         13   -1    0    0    0    0  0.00000000000E+00  0.00000000000E+00  0.74505805969E-08  0.10566000000E+00  0.10566000000E+00 0.  1.
     999900   -1    0    0    0    0 -0.00000000000E+00 -0.00000000000E+00 -0.74505805969E-08  0.93827000000E+00  0.93827000000E+00 0.  1.
     999902    2    1    2    0    0 -0.73910744742E-03 -0.13976089519E-01  0.51477334914E-02  0.10290177058E+01  0.10289096473E+01 0.  0.
     999903    2    3    3    0    0 -0.12688390521E+00  0.86169208309E-02  0.34320730848E-01  0.13925705378E+00  0.45175632082E-01 0.  0.
         14    1    1    2    0    0  0.73910744742E-03  0.13976089519E-01 -0.51477334914E-02  0.14912294195E-01  0.00000000000E+00 0. -1.
     999901    1    3    3    0    0  0.12614479777E+00 -0.22593010350E-01 -0.29172997357E-01  0.88976065203E+00  0.88000000000E+00 0. -1.
        -11    1    4    4    0    0 -0.60356839828E-01 -0.36465564689E-02  0.38151934578E-01  0.71498788250E-01  0.51100000000E-03 0. -1.
         11    1    4    4    0    0 -0.66527065386E-01  0.12263477300E-01 -0.38312037302E-02  0.67758265528E-01  0.51100000000E-03 0.  1.
</event>
<event>
 8    1  0.2877139E+004  0.1043930E+01  0.7957747E-01            NaN
         13   -1    0    0    0    0  0.00000000000E+00  0.00000000000E+00  0.74505805969E-08  0.10566000000E+00  0.10566000000E+00 0.  1.
     999900   -1    0    0    0    0 -0.00000000000E+00 -0.00000000000E+00 -0.74505805969E-08  0.93827000000E+00  0.93827000000E+00 0. -1.
     999902    2    1    2    0    0  0.12960485698E-01 -0.24981336953E-02  0.25700286490E-02  0.10304830707E+01  0.10303953314E+01 0.  0.
     999903    2    3    3    0    0 -0.13025573898E+00  0.81120412246E-02 -0.14577841092E-01  0.13867731139E+00  0.44570399306E-01 0.  0.
         14    1    1    2    0    0 -0.12960485698E-01  0.24981336953E-02 -0.25700286490E-02  0.13446929342E-01  0.00000000000E+00 0. -1.
     999901    1    3    3    0    0  0.14321622468E+00 -0.10610174920E-01  0.17147869741E-01  0.89180575927E+00  0.88000000000E+00 0.  1.
        -11    1    4    4    0    0 -0.10008804893E+00 -0.41727820615E-02  0.56424301381E-02  0.10033507756E+00  0.51100000000E-03 0. -1.
         11    1    4    4    0    0 -0.30167690045E-01  0.12284823286E-01 -0.20220271230E-01  0.38342233835E-01  0.51100000000E-03 0.  1.
</event>
<event>
 8    1  0.2877139E+004  0.1043930E+01  0.7957747E-01            NaN
         13   -1    0    0    0    0  0.00000000000E+00  0.00000000000E+00  0.74505805969E-08  0.10566000000E+00  0.10566000000E+00 0.  1.
     999900   -1    0    0    0    0 -0.00000000000E+00 -0.00000000000E+00 -0.74505805969E-08  0.93827000000E+00  0.93827000000E+00 0.  1.
     999902    2    1    2    0    0  0.78390227377E-02  0.67308399042E-02  0.73681891381E-02  0.10312396614E+01  0.10311615754E+01 0.  0.
     999903    2    3    3    0    0  0.10800051432E+00 -0.18724998078E-01  0.78980983879E-01  0.14230281522E+00  0.44691819812E-01 0.  0.
         14    1    1    2    0    0 -0.78390227377E-02 -0.67308399042E-02 -0.73681891381E-02  0.12690338627E-01  0.00000000000E+00 0. -1.
     999901    1    3    3    0    0 -0.10016149158E+00  0.25455837982E-01 -0.71612794741E-01  0.88893684616E+00  0.88000000000E+00 0.  1.
        -11    1    4    4    0    0  0.10084085613E+00 -0.27752892764E-02  0.67598747768E-01  0.12143488920E+00  0.51100000000E-03 0.  1.
         11    1    4    4    0    0  0.71596581931E-02 -0.15949708801E-01  0.11382236111E-01  0.20867926015E-01  0.51100000000E-03 0. -1.
</event>
<event>
 8    1  0.2877139E+004  0.1043930E+01  0.7957747E-01            NaN
         13   -1    0    0    0    0  0.00000000000E+00  0.00000000000E+00  0.74505805969E-08  0.10566000000E+00  0.10566000000E+00 0. -1.
     999900   -1    0    0    0    0 -0.00000000000E+00 -0.00000000000E+00 -0.74505805969E-08  0.93827000000E+00  0.93827000000E+00 0.  1.
     999902    2    1    2    0    0 -0.80906759745E-02  0.10401428865E-02 -0.11191546210E-01  0.10300811141E+01  0.10299880145E+01 0.  0.
     999903    2    3    3    0    0 -0.66002474894E-01 -0.28720099161E-01  0.11057064323E+00  0.13931432122E+00  0.44737480542E-01 0.  0.
         14    1    1    2    0    0  0.80906759745E-02 -0.10401428865E-02  0.11191546210E-01  0.13848885931E-01  0.00000000000E+00 0. -1.
     999901    1    3    3    0    0  0.57911798919E-01  0.29760242048E-01 -0.12176218944E+00  0.89076679285E+00  0.88000000000E+00 0.  1.
        -11    1    4    4    0    0 -0.22355918639E-01 -0.54898388057E-02  0.74859692144E-01  0.78320878808E-01  0.51100000000E-03 0. -1.
         11    1    4    4    0    0 -0.43646556254E-01 -0.23230260356E-01  0.35710951087E-01  0.60993442414E-01  0.51100000000E-03 0.  1.
</event>
<event>
 8    1  0.2877139E+004  0.1043930E+01  0.7957747E-01            NaN
         13   -1    0    0    0    0  0.00000000000E+00  0.00000000000E+00  0.74505805969E-08  0.10566000000E+00  0.10566000000E+00 0. -1.
     999900   -1    0    0    0    0 -0.00000000000E+00 -0.00000000000E+00 -0.74505805969E-08  0.93827000000E+00  0.93827000000E+00 0.  1.
     999902    2    1    2    0    0  0.44675790756E-02  0.13945305175E-01  0.45419604519E-02  0.10285983268E+01  0.10284840580E+01 0.  0.
     999903    2    3    3    0    0 -0.11862020929E-01 -0.10611460686E+00  0.74238307448E-01  0.13756599341E+00  0.44855979763E-01 0.  0.
         14    1    1    2    0    0 -0.44675790756E-02 -0.13945305175E-01 -0.45419604519E-02  0.15331673228E-01  0.00000000000E+00 0.  1.
     999901    1    3    3    0    0  0.16329600005E-01  0.12005991203E+00 -0.69696346996E-01  0.89103233336E+00  0.88000000000E+00 0. -1.
        -11    1    4    4    0    0 -0.16422469869E-01 -0.42420265546E-01  0.91890003239E-02  0.46409862029E-01  0.51100000000E-03 0.  1.
         11    1    4    4    0    0  0.45604489402E-02 -0.63694341313E-01  0.65049307124E-01  0.91156131380E-01  0.51100000000E-03 0. -1.
</event>
<event>
 8    1  0.2877139E+004  0.1043930E+01  0.7957747E-01            NaN
         13   -1    0    0    0    0  0.00000000000E+00  0.00000000000E+00  0.74505805969E-08  0.10566000000E+00  0.10566000000E+00 0. -1.
     999900   -1    0    0    0    0 -0.00000000000E+00 -0.00000000000E+00 -0.74505805969E-08  0.93827000000E+00  0.93827000000E+00 0.  1.
     999902    2    1    2    0    0  0.48525842004E-02 -0.95477172171E-02 -0.84284434783E-02  0.10303011652E+01  0.10302110201E+01 0.  0.
     999903    2    3    3    0    0  0.57744859040E-01 -0.68202812403E-01 -0.10056609378E+00  0.14197275776E+00  0.45350108748E-01 0.  0.
         14    1    1    2    0    0 -0.48525842004E-02  0.95477172171E-02  0.84284434783E-02  0.13628834761E-01  0.00000000000E+00 0. -1.
     999901    1    3    3    0    0 -0.52892274840E-01  0.58655095186E-01  0.92137650299E-01  0.88832840748E+00  0.88000000000E+00 0. -1.
        -11    1    4    4    0    0  0.44957067713E-01 -0.62540044155E-01 -0.55914123559E-01  0.95179017618E-01  0.51100000000E-03 0.  1.
         11    1    4    4    0    0  0.12787791327E-01 -0.56627682478E-02 -0.44651970218E-01  0.46793740143E-01  0.51100000000E-03 0. -1.
</event>
<event>
 8    1  0.2877139E+004  0.1043930E+01  0.7957747E-01            NaN
         13   -1    0    0    0    0  0.00000000000E+00  0.00000000000E+00  0.74505805969E-08  0.10566000000E+00  0.10566000000E+00 0. -1.
     999900   -1    0    0    0    0 -0.00000000000E+00 -0.00000000000E+00 -0.74505805969E-08  0.93827000000E+00  0.93827000000E+00 0.  1.
     999902    2    1    2    0    0 -0.12427435635E-01 -0.41352343369E-02 -0.16936861183E-02  0.10307235663E+01  0.10306389572E+01 0.  0.
     999903    2    3    3    0    0  0.89040940851E-01  0.26910384731E-02 -0.98735357715E-01  0.13956728622E+00  0.42365383085E-01 0.  0.
         14    1    1    2    0    0  0.12427435635E-01  0.41352343369E-02  0.16936861183E-02  0.13206433741E-01  0.00000000000E+00 0.  1.
     999901    1    3    3    0    0 -0.10146837649E+00 -0.68262728100E-02  0.97041671597E-01  0.89115628004E+00  0.88000000000E+00 0. -1.
        -11    1    4    4    0    0  0.65672882371E-01 -0.12012376939E-01 -0.86743851387E-01  0.10946223802E+00  0.51100000000E-03 0. -1.
         11    1    4    4    0    0  0.23368058481E-01  0.14703415412E-01 -0.11991506328E-01  0.30105048197E-01  0.51100000000E-03 0.  1.
</event>
<event>
 8    1  0.2877139E+004  0.1043930E+01  0.7957747E-01            NaN
         13   -1    0    0    0    0  0.00000000000E+00  0.00000000000E+00  0.74505805969E-08  0.10566000000E+00  0.10566000000E+00 0. -1.
     999900   -1    0    0    0    0 -0.00000000000E+00 -0.00000000000E+00 -0.74505805969E-08  0.93827000000E+00  0.93827000000E+00 0. -1.
     999902    2    1    2    0    0  0.87464235322E-03 -0.69758947272E-02  0.53352846950E-02  0.10351042780E+01  0.10350666514E+01 0.  0.
     999903    2    3    3    0    0 -0.94019093067E-01 -0.83330750150E-01 -0.55740171260E-01  0.14461840145E+00  0.44987904645E-01 0.  0.
         14    1    1    2    0    0 -0.87464235322E-03  0.69758947272E-02 -0.53352846950E-02  0.88257220253E-02  0.00000000000E+00 0.  1.
     999901    1    3    3    0    0  0.94893735420E-01  0.76354855423E-01  0.61075455955E-01  0.89048587652E+00  0.88000000000E+00 0. -1.
        -11    1    4    4    0    0 -0.17278179124E-01 -0.39383907591E-01 -0.67995936912E-02  0.43544497314E-01  0.51100000000E-03 0. -1.
         11    1    4    4    0    0 -0.76740913942E-01 -0.43946842560E-01 -0.48940577569E-01  0.10107390414E+00  0.51100000000E-03 0.  1.
</event>
<event>
 8    1  0.2877139E+004  0.1043930E+01  0.7957747E-01            NaN
         13   -1    0    0    0    0  0.00000000000E+00  0.00000000000E+00  0.74505805969E-08  0.10566000000E+00  0.10566000000E+00 0. -1.
     999900   -1    0    0    0    0 -0.00000000000E+00 -0.00000000000E+00 -0.74505805969E-08  0.93827000000E+00  0.93827000000E+00 0.  1.
     999902    2    1    2    0    0 -0.59433334503E-02 -0.92266661613E-02  0.76166288005E-02  0.10305708228E+01  0.10304842324E+01 0.  0.
     999903    2    3    3    0    0 -0.97942924283E-01  0.82248594750E-01 -0.34350987871E-01  0.14006931864E+00  0.45626482463E-01 0.  0.
         14    1    1    2    0    0  0.59433334503E-02  0.92266661613E-02 -0.76166288005E-02  0.13359177192E-01  0.00000000000E+00 0. -1.
     999901    1    3    3    0    0  0.91999590832E-01 -0.91475260912E-01  0.41967616671E-01  0.89050150417E+00  0.88000000000E+00 0.  1.
        -11    1    4    4    0    0 -0.29353030302E-01  0.51309477405E-01 -0.25224110229E-01  0.64271142181E-01  0.51100000000E-03 0. -1.
         11    1    4    4    0    0 -0.68589893981E-01  0.30939117346E-01 -0.91268776422E-02  0.75798176462E-01  0.51100000000E-03 0.  1.
</event>
<event>
 8    1  0.2877139E+004  0.1043930E+01  0.7957747E-01            NaN
         13   -1    0    0    0    0  0.00000000000E+00  0.00000000000E+00  0.74505805969E-08  0.10566000000E+00  0.10566000000E+00 0. -1.
     999900   -1    0    0    0    0 -0.00000000000E+00 -0.00000000000E+00 -0.74505805969E-08  0.93827000000E+00  0.93827000000E+00 0. -1.
     999902    2    1    2    0    0  0.29343163799E-02 -0.32360579949E-02  0.13058727059E-01  0.10301600096E+01  0.10300679748E+01 0.  0.
     999903    2    3    3    0    0 -0.12293449895E+00 -0.86479697996E-02  0.50099168450E-01  0.14041609037E+00  0.44934099994E-01 0.  0.
         14    1    1    2    0    0 -0.29343163799E-02  0.32360579949E-02 -0.13058727059E-01  0.13769990428E-01  0.00000000000E+00 0.  1.
     999901    1    3    3    0    0  0.12586881533E+00  0.54119118046E-02 -0.37040441390E-01  0.88974391920E+00  0.88000000000E+00 0. -1.
        -11    1    4    4    0    0 -0.10905158802E+00 -0.15163116705E-01  0.28164358731E-01  0.11364709051E+00  0.51100000000E-03 0. -1.
         11    1    4    4    0    0 -0.13882910927E-01  0.65151469058E-02  0.21934809719E-01  0.26768999858E-01  0.51100000000E-03 0.  1.
</event>
<event>
 8    1  0.2877139E+004  0.1043930E+01  0.7957747E-01            NaN
         13   -1    0    0    0    0  0.00000000000E+00  0.00000000000E+00  0.74505805969E-08  0.10566000000E+00  0.10566000000E+00 0. -1.
     999900   -1    0    0    0    0 -0.00000000000E+00 -0.00000000000E+00 -0.74505805969E-08  0.93827000000E+00  0.93827000000E+00 0.  1.
     999902    2    1    2    0    0  0.36257462546E-02  0.12203398141E-01  0.59416209937E-02  0.10298810918E+01  0.10297852647E+01 0.  0.
     999903    2    3    3    0    0 -0.94930738644E-02 -0.58697164602E-01  0.11796689906E+00  0.13985375728E+00  0.45906519874E-01 0.  0.
         14    1    1    2    0    0 -0.36257462546E-02 -0.12203398141E-01 -0.59416209937E-02  0.14048908218E-01  0.00000000000E+00 0.  1.
     999901    1    3    3    0    0  0.13118820119E-01  0.70900562743E-01 -0.11202527807E+00  0.89002733450E+00  0.88000000000E+00 0.  1.
        -11    1    4    4    0    0 -0.24239825612E-01 -0.14993299843E-01  0.37525852721E-01  0.47125565560E-01  0.51100000000E-03 0. -1.
         11    1    4    4    0    0  0.14746751748E-01 -0.43703864759E-01  0.80441046340E-01  0.92728191717E-01  0.51100000000E-03 0.  1.
</event>
<event>
 8    1  0.2877139E+004  0.1043930E+01  0.7957747E-01            NaN
         13   -1    0    0    0    0  0.00000000000E+00  0.00000000000E+00  0.74505805969E-08  0.10566000000E+00  0.10566000000E+00 0.  1.
     999900   -1    0    0    0    0 -0.00000000000E+00 -0.00000000000E+00 -0.74505805969E-08  0.93827000000E+00  0.93827000000E+00 0. -1.
     999902    2    1    2    0    0 -0.78918525703E-02 -0.34664209462E-02  0.65903549652E-02  0.10330796456E+01  0.10330226639E+01 0.  0.
     999903    2    3    3    0    0  0.12560421532E+00  0.41417053093E-01 -0.22953524435E-01  0.14139104125E+00  0.44415887590E-01 0.  0.
         14    1    1    2    0    0  0.78918525703E-02  0.34664209462E-02 -0.65903549652E-02  0.10850354360E-01  0.00000000000E+00 0. -1.
     999901    1    3    3    0    0 -0.13349606789E+00 -0.44883474039E-01  0.29543879400E-01  0.89168860439E+00  0.88000000000E+00 0. -1.
        -11    1    4    4    0    0  0.60451652304E-01  0.35178887232E-01 -0.28877086494E-01  0.75671022317E-01  0.51100000000E-03 0. -1.
         11    1    4    4    0    0  0.65152563013E-01  0.62381658616E-02  0.59235620596E-02  0.65720018936E-01  0.51100000000E-03 0.  1.
</event>
<event>
 8    1  0.2877139E+004  0.1043930E+01  0.7957747E-01            NaN
         13   -1    0    0    0    0  0.00000000000E+00  0.00000000000E+00  0.74505805969E-08  0.10566000000E+00  0.10566000000E+00 0.  1.
     999900   -1    0    0    0    0 -0.00000000000E+00 -0.00000000000E+00 -0.74505805969E-08  0.93827000000E+00  0.93827000000E+00 0. -1.
     999902    2    1    2    0    0 -0.12453653708E-01  0.31194784545E-03 -0.41524845452E-02  0.10307985899E+01  0.10307149456E+01 0.  0.
     999903    2    3    3    0    0 -0.23028426098E-02 -0.27860889865E-02 -0.13380005846E+00  0.14123626485E+00  0.45079501877E-01 0.  0.
         14    1    1    2    0    0  0.12453653708E-01 -0.31194784545E-03  0.41524845452E-02  0.13131410055E-01  0.00000000000E+00 0.  1.
     999901    1    3    3    0    0 -0.10150811098E-01  0.30980368319E-02  0.12964757392E+00  0.88956232509E+00  0.88000000000E+00 0.  1.
        -11    1    4    4    0    0  0.16946006469E-02  0.19511279396E-01 -0.37532576257E-01  0.42338128165E-01  0.51100000000E-03 0. -1.
         11    1    4    4    0    0 -0.39974432567E-02 -0.22297368383E-01 -0.96267482206E-01  0.98898136689E-01  0.51100000000E-03 0.  1.
</event>
<event>
 8    1  0.2877139E+004  0.1043930E+01  0.7957747E-01            NaN
         13   -1    0    0    0    0  0.00000000000E+00  0.00000000000E+00  0.74505805969E-08  0.10566000000E+00  0.10566000000E+00 0.  1.
     999900   -1    0    0    0    0 -0.00000000000E+00 -0.00000000000E+00 -0.74505805969E-08  0.93827000000E+00  0.93827000000E+00 0. -1.
     999902    2    1    2    0    0  0.32894910042E-02  0.11230884450E-01  0.55700888858E-02  0.10309693130E+01  0.10308878431E+01 0.  0.
     999903    2    3    3    0    0 -0.13253079068E+00 -0.28914845574E-02  0.11406768836E-01  0.14041855251E+00  0.44883007413E-01 0.  0.
         14    1    1    2    0    0 -0.32894910042E-02 -0.11230884450E-01 -0.55700888858E-02  0.12960686972E-01  0.00000000000E+00 0. -1.
     999901    1    3    3    0    0  0.13582028168E+00  0.14122369007E-01 -0.58366799503E-02  0.89055076052E+00  0.88000000000E+00 0. -1.
        -11    1    4    4    0    0 -0.90592140870E-01  0.84273725985E-02 -0.10810599327E-01  0.91624706140E-01  0.51100000000E-03 0. -1.
         11    1    4    4    0    0 -0.41938649805E-01 -0.11318857156E-01  0.22217368163E-01  0.48793846373E-01  0.51100000000E-03 0.  1.
</event>
<event>
 8    1  0.2877139E+004  0.1043930E+01  0.7957747E-01            NaN
         13   -1    0    0    0    0  0.00000000000E+00  0.00000000000E+00  0.74505805969E-08  0.10566000000E+00  0.10566000000E+00 0.  1.
     999900   -1    0    0    0    0 -0.00000000000E+00 -0.00000000000E+00 -0.74505805969E-08  0.93827000000E+00  0.93827000000E+00 0.  1.
     999902    2    1    2    0    0 -0.42552142360E-02  0.25665920401E-02  0.13600135178E-01  0.10294504310E+01  0.10293485959E+01 0.  0.
     999903    2    3    3    0    0 -0.11752835196E+00 -0.30206527527E-01 -0.50605977408E-01  0.13926657018E+00  0.45922377982E-01 0.  0.
         14    1    1    2    0    0  0.42552142360E-02 -0.25665920401E-02 -0.13600135178E-01  0.14479569046E-01  0.00000000000E+00 0. -1.
     999901    1    3    3    0    0  0.11327313772E+00  0.32773119567E-01  0.64206112586E-01  0.89018386078E+00  0.88000000000E+00 0. -1.
        -11    1    4    4    0    0 -0.10988119128E+00 -0.39698167095E-01 -0.41284106219E-01  0.12391311156E+00  0.51100000000E-03 0. -1.
         11    1    4    4    0    0 -0.76471606762E-02  0.94916395677E-02 -0.93218711883E-02  0.15353458618E-01  0.51100000000E-03 0.  1.
</event>
<event>
 8    1  0.2877139E+004  0.1043930E+01  0.7957747E-01            NaN
         13   -1    0    0    0    0  0.00000000000E+00  0.00000000000E+00  0.74505805969E-08  0.10566000000E+00  0.10566000000E+00 0. -1.
     999900   -1    0    0    0    0 -0.00000000000E+00 -0.00000000000E+00 -0.74505805969E-08  0.93827000000E+00  0.93827000000E+00 0. -1.
     999902    2    1    2    0    0 -0.17986986260E-02  0.10298626348E-02  0.12883629454E-01  0.10308807149E+01  0.10307981201E+01 0.  0.
     999903    2    3    3    0    0 -0.79122049516E-01 -0.10635606100E+00 -0.13811369130E-01  0.14058679706E+00  0.44743526439E-01 0.  0.
         14    1    1    2    0    0  0.17986986260E-02 -0.10298626348E-02 -0.12883629454E-01  0.13049285103E-01  0.00000000000E+00 0.  1.
     999901    1    3    3    0    0  0.77323350890E-01  0.10738592364E+00  0.26694998584E-01  0.89029391784E+00  0.88000000000E+00 0.  1.
        -11    1    4    4    0    0 -0.70266407048E-01 -0.76238232339E-01 -0.26024762332E-01  0.10689801404E+00  0.51100000000E-03 0. -1.
         11    1    4    4    0    0 -0.88556424683E-02 -0.30117828666E-01  0.12213393202E-01  0.33688783023E-01  0.51100000000E-03 0.  1.
</event>
<event>
 8    1  0.2877139E+004  0.1043930E+01  0.7957747E-01            NaN
         13   -1    0    0    0    0  0.00000000000E+00  0.00000000000E+00  0.74505805969E-08  0.10566000000E+00  0.10566000000E+00 0.  1.
     999900   -1    0    0    0    0 -0.00000000000E+00 -0.00000000000E+00 -0.74505805969E-08  0.93827000000E+00  0.93827000000E+00 0. -1.
     999902    2    1    2    0    0 -0.12254208060E-01  0.78297509847E-02 -0.26845984450E-02  0.10291422455E+01  0.10290359973E+01 0.  0.
     999903    2    3    3    0    0  0.26904062374E-01  0.12066972441E+00 -0.47495796393E-01  0.13994357631E+00  0.45203350694E-01 0.  0.
         14    1    1    2    0    0  0.12254208060E-01 -0.78297509847E-02  0.26845984450E-02  0.14787754545E-01  0.00000000000E+00 0.  1.
     999901    1    3    3    0    0 -0.39158270434E-01 -0.11283997343E+00  0.44811197948E-01  0.88919866914E+00  0.88000000000E+00 0. -1.
        -11    1    4    4    0    0 -0.22163444838E-02  0.50137485118E-01 -0.38195238995E-01  0.63069937369E-01  0.51100000000E-03 0. -1.
         11    1    4    4    0    0  0.29120406857E-01  0.70532239293E-01 -0.93005573980E-02  0.76873638942E-01  0.51100000000E-03 0.  1.
</event>
<event>
 8    1  0.2877139E+004  0.1043930E+01  0.7957747E-01            NaN
         13   -1    0    0    0    0  0.00000000000E+00  0.00000000000E+00  0.74505805969E-08  0.10566000000E+00  0.10566000000E+00 0. -1.
     999900   -1    0    0    0    0 -0.00000000000E+00 -0.00000000000E+00 -0.74505805969E-08  0.93827000000E+00  0.93827000000E+00 0.  1.
     999902    2    1    2    0    0 -0.40216625978E-02  0.11194707386E-01  0.78311391508E-02  0.10296884417E+01  0.10295899499E+01 0.  0.
     999903    2    3    3    0    0  0.65327873240E-01 -0.24327833851E-01  0.11277553576E+00  0.14003427546E+00  0.45074408663E-01 0.  0.
         14    1    1    2    0    0  0.40216625978E-02 -0.11194707386E-01 -0.78311391508E-02  0.14241558338E-01  0.00000000000E+00 0.  1.
     999901    1    3    3    0    0 -0.69349535838E-01  0.35522541236E-01 -0.10494439661E+00  0.88965416620E+00  0.88000000000E+00 0.  1.
        -11    1    4    4    0    0  0.38598048722E-01  0.74238728590E-02  0.70929106293E-01  0.81093294999E-01  0.51100000000E-03 0. -1.
         11    1    4    4    0    0  0.26729824518E-01 -0.31751706710E-01  0.41846429467E-01  0.58940980463E-01  0.51100000000E-03 0.  1.
</event>
<event>
 8    1  0.2877139E+004  0.1043930E+01  0.7957747E-01            NaN
         13   -1    0    0    0    0  0.00000000000E+00  0.00000000000E+00  0.74505805969E-08  0.10566000000E+00  0.10566000000E+00 0.  1.
     999900   -1    0    0    0    0 -0.00000000000E+00 -0.00000000000E+00 -0.74505805969E-08  0.93827000000E+00  0.93827000000E+00 0.  1.
     999902    2    1    2    0    0 -0.11691317886E-01  0.43698472929E-02 -0.56351226288E-02  0.10302355819E+01  0.10301445613E+01 0.  0.
     999903    2    3    3    0    0 -0.67478938662E-01 -0.11477243010E+00  0.13904711314E-02  0.14042858046E+00  0.44633338738E-01 0.  0.
         14    1    1    2    0    0  0.11691317886E-01 -0.43698472929E-02  0.56351226288E-02  0.13694418072E-01  0.00000000000E+00 0.  1.
     999901    1    3    3    0    0  0.55787620776E-01  0.11914227739E+00 -0.70255937603E-02  0.88980700147E+00  0.88000000000E+00 0.  1.
        -11    1    4    4    0    0 -0.24712391728E-02 -0.44931227940E-01  0.96933375165E-03  0.45012476006E-01  0.51100000000E-03 0. -1.
         11    1    4    4    0    0 -0.65007699490E-01 -0.69841202157E-01  0.42113737980E-03  0.95416104455E-01  0.51100000000E-03 0.  1.
</event>
<event>
 8    1  0.2877139E+004  0.1043930E+01  0.7957747E-01            NaN
         13   -1    0    0    0    0  0.00000000000E+00  0.00000000000E+00  0.74505805969E-08  0.10566000000E+00  0.10566000000E+00 0. -1.
     999900   -1    0    0    0    0 -0.00000000000E+00 -0.00000000000E+00 -0.74505805969E-08  0.93827000000E+00  0.93827000000E+00 0.  1.
     999902    2    1    2    0    0  0.21689414859E-02 -0.13707220512E-01  0.14180132954E-02  0.10299799834E+01  0.10298855098E+01 0.  0.
     999903    2    3    3    0    0 -0.80575626534E-01 -0.87107096307E-01  0.61466379115E-01  0.14102553488E+00  0.45055609079E-01 0.  0.
         14    1    1    2    0    0 -0.21689414859E-02  0.13707220512E-01 -0.14180132954E-02  0.13950016597E-01  0.00000000000E+00 0.  1.
     999901    1    3    3    0    0  0.82744568020E-01  0.73399875795E-01 -0.60048365820E-01  0.88895444852E+00  0.88000000000E+00 0.  1.
        -11    1    4    4    0    0 -0.47728006544E-01 -0.29049320313E-01  0.46418974721E-01  0.72641640637E-01  0.51100000000E-03 0. -1.
         11    1    4    4    0    0 -0.32847619990E-01 -0.58057775995E-01  0.15047404395E-01  0.68383894248E-01  0.51100000000E-03 0.  1.
</event>
<event>
 8    1  0.2877139E+004  0.1043930E+01  0.7957747E-01            NaN
         13   -1    0    0    0    0  0.00000000000E+00  0.00000000000E+00  0.74505805969E-08  0.10566000000E+00  0.10566000000E+00 0. -1.
     999900   -1    0    0    0    0 -0.00000000000E+00 -0.00000000000E+00 -0.74505805969E-08  0.93827000000E+00  0.93827000000E+00 0.  1.
     999902    2    1    2    0    0 -0.40287929598E-02  0.12453833163E-01  0.29623418660E-02  0.10305096944E+01  0.10304223045E+01 0.  0.
     999903    2    3    3    0    0 -0.42702250176E-01 -0.14935025486E-01  0.12548720611E+00  0.14075797159E+00  0.44935848873E-01 0.  0.
         14    1    1    2    0    0  0.40287929598E-02 -0.12453833163E-01 -0.29623418660E-02  0.13420305603E-01  0.00000000000E+00 0.  1.
     999901    1    3    3    0    0  0.38673457216E-01  0.27388858648E-01 -0.12252486424E+00  0.88975172280E+00  0.88000000000E+00 0.  1.
        -11    1    4    4    0    0 -0.46761967444E-01  0.22597751264E-03  0.10501068207E+00  0.11495319541E+00  0.51100000000E-03 0.  1.
         11    1    4    4    0    0  0.40597172682E-02 -0.15161002998E-01  0.20476524039E-01  0.25804776184E-01  0.51100000000E-03 0. -1.
</event>
<event>
 7    1  0.2877139E+004  0.1043930E+01  0.7957747E-01            NaN
         13   -1    0    0    0    0  0.00000000000E+00  0.00000000000E+00  0.74505805969E-08  0.10566000000E+00  0.10566000000E+00 0. -1.
     999900   -1    0    0    0    0 -0.00000000000E+00 -0.00000000000E+00 -0.74505805969E-08  0.93827000000E+00  0.93827000000E+00 0. -1.
     999903    2    1    2    0    0  0.80596802381E-01 -0.45259138937E-02 -0.78888045152E-01  0.12030800861E+00  0.41645705867E-01 0.  0.
         14    1    1    2    0    0 -0.34579455534E-01 -0.13699077425E-01 -0.77178957585E-02  0.37986436819E-01  0.00000000000E+00 0.  1.
     999901    1    1    2    0    0 -0.46017346847E-01  0.18224991319E-01  0.86605940910E-01  0.88563555457E+00  0.88000000000E+00 0.  1.
        -11    1    3    3    0    0  0.19125792743E-01 -0.10915347743E-01 -0.44323074996E-01  0.49494816521E-01  0.51100000000E-03 0. -1.
         11    1    3    3    0    0  0.61471009638E-01  0.63894338495E-02 -0.34564970156E-01  0.70813192089E-01  0.51100000000E-03 0.  1.
</event>
<event>
 8    1  0.2877139E+004  0.1043930E+01  0.7957747E-01            NaN
         13   -1    0    0    0    0  0.00000000000E+00  0.00000000000E+00  0.74505805969E-08  0.10566000000E+00  0.10566000000E+00 0.  1.
     999900   -1    0    0    0    0 -0.00000000000E+00 -0.00000000000E+00 -0.74505805969E-08  0.93827000000E+00  0.93827000000E+00 0.  1.
     999902    2    1    2    0    0 -0.16833600595E-01 -0.15680442381E-01 -0.75170501704E-02  0.10197276773E+01  0.10194404266E+01 0.  0.
     999903    2    3    3    0    0 -0.53764912337E-01 -0.98780831800E-01 -0.56378022856E-01  0.13369325855E+00  0.45244749864E-01 0.  0.
         14    1    1    2    0    0  0.16833600595E-01  0.15680442381E-01  0.75170501704E-02  0.24202322730E-01  0.00000000000E+00 0.  1.
     999901    1    3    3    0    0  0.36931311741E-01  0.83100389419E-01  0.48860972685E-01  0.88603441872E+00  0.88000000000E+00 0. -1.
        -11    1    4    4    0    0 -0.61007933406E-01 -0.79813331006E-01 -0.42421560943E-01  0.10905038147E+00  0.51100000000E-03 0.  1.
         11    1    4    4    0    0  0.72430210691E-02 -0.18967500794E-01 -0.13956461913E-01  0.24642877078E-01  0.51100000000E-03 0. -1.
</event>
<event>
 8    1  0.2877139E+004  0.1043930E+01  0.7957747E-01            NaN
         13   -1    0    0    0    0  0.00000000000E+00  0.00000000000E+00  0.74505805969E-08  0.10566000000E+00  0.10566000000E+00 0.  1.
     999900   -1    0    0    0    0 -0.00000000000E+00 -0.00000000000E+00 -0.74505805969E-08  0.93827000000E+00  0.93827000000E+00 0.  1.
     999902    2    1    2    0    0  0.10706392477E-01  0.28371833899E-02  0.66614983061E-02  0.10310051399E+01  0.10309241225E+01 0.  0.
     999903    2    3    3    0    0  0.11524483484E-01 -0.42313024308E-01 -0.12509298738E+00  0.14005146262E+00  0.45199014862E-01 0.  0.
         14    1    1    2    0    0 -0.10706392477E-01 -0.28371833899E-02 -0.66614983061E-02  0.12924860121E-01  0.00000000000E+00 0.  1.
     999901    1    3    3    0    0 -0.81809100647E-03  0.45150207698E-01  0.13175448568E+00  0.89095367726E+00  0.88000000000E+00 0. -1.
        -11    1    4    4    0    0 -0.77645201183E-02  0.37500761254E-02 -0.43798880483E-01  0.44642512207E-01  0.51100000000E-03 0. -1.
         11    1    4    4    0    0  0.19289003602E-01 -0.46063100433E-01 -0.81294106895E-01  0.95408950410E-01  0.51100000000E-03 0.  1.
</event>
<event>
 8    1  0.2877139E+004  0.1043930E+01  0.7957747E-01            NaN
         13   -1    0    0    0    0  0.00000000000E+00  0.00000000000E+00  0.74505805969E-08  0.10566000000E+00  0.10566000000E+00 0.  1.
     999900   -1    0    0    0    0 -0.00000000000E+00 -0.00000000000E+00 -0.74505805969E-08  0.93827000000E+00  0.93827000000E+00 0.  1.
     999902    2    1    2    0    0  0.98007934074E-02 -0.83903330442E-02 -0.57850249403E-02  0.10297907018E+01  0.10296936291E+01 0.  0.
     999903    2    3    3    0    0  0.51272809345E-01  0.64770092038E-01 -0.10423980986E+00  0.14031573274E+00  0.44704598155E-01 0.  0.
         14    1    1    2    0    0 -0.98007934074E-02  0.83903330442E-02  0.57850249403E-02  0.14139298199E-01  0.00000000000E+00 0.  1.
     999901    1    3    3    0    0 -0.41472015938E-01 -0.73160425082E-01  0.98454784916E-01  0.88947496906E+00  0.88000000000E+00 0. -1.
        -11    1    4    4    0    0  0.29674299334E-01  0.32868064979E-01 -0.87978755117E-01  0.98495665942E-01  0.51100000000E-03 0.  1.
         11    1    4    4    0    0  0.21598510011E-01  0.31902027059E-01 -0.16261054739E-01  0.41820066803E-01  0.51100000000E-03 0. -1.
</event>
<event>
 8    1  0.2877139E+004  0.1043930E+01  0.7957747E-01            NaN
         13   -1    0    0    0    0  0.00000000000E+00  0.00000000000E+00  0.74505805969E-08  0.10566000000E+00  0.10566000000E+00 0.  1.
     999900   -1    0    0    0    0 -0.00000000000E+00 -0.00000000000E+00 -0.74505805969E-08  0.93827000000E+00  0.93827000000E+00 0.  1.
     999902    2    1    2    0    0  0.20704931554E-02  0.13266049047E-01  0.54984714838E-02  0.10294210997E+01  0.10293188487E+01 0.  0.
     999903    2    3    3    0    0  0.71919455884E-01  0.32034496740E-01 -0.10602564258E+00  0.13943865030E+00  0.44755817471E-01 0.  0.
         14    1    1    2    0    0 -0.20704931554E-02 -0.13266049047E-01 -0.54984714838E-02  0.14508900299E-01  0.00000000000E+00 0. -1.
     999901    1    3    3    0    0 -0.69848962729E-01 -0.18768447693E-01  0.11152411406E+00  0.88998244940E+00  0.88000000000E+00 0. -1.
        -11    1    4    4    0    0  0.50573029796E-01  0.10562349437E-01 -0.35501673188E-01  0.62688312217E-01  0.51100000000E-03 0.  1.
         11    1    4    4    0    0  0.21346426088E-01  0.21472147303E-01 -0.70523969390E-01  0.76750338084E-01  0.51100000000E-03 0. -1.
</event>
<event>
 8    1  0.2877139E+004  0.1043930E+01  0.7957747E-01            NaN
         13   -1    0    0    0    0  0.00000000000E+00  0.00000000000E+00  0.74505805969E-08  0.10566000000E+00  0.10566000000E+00 0.  1.
     999900   -1    0    0    0    0 -0.00000000000E+00 -0.00000000000E+00 -0.74505805969E-08  0.93827000000E+00  0.93827000000E+00 0.  1.
     999902    2    1    2    0    0  0.15568890652E-02  0.11136337153E-01  0.81942326303E-02  0.10300164326E+01  0.10299224554E+01 0.  0.
     999903    2    3    3    0    0 -0.61471996845E-01 -0.11166898509E+00  0.33440149972E-01  0.13889851452E+00  0.43883767799E-01 0.  0.
         14    1    1    2    0    0 -0.15568890652E-02 -0.11136337153E-01 -0.81942326303E-02  0.13913567376E-01  0.00000000000E+00 0. -1.
     999901    1    3    3    0    0  0.63028885910E-01  0.12280532225E+00 -0.25245917342E-01  0.89111791811E+00  0.88000000000E+00 0. -1.
        -11    1    4    4    0    0 -0.35081063714E-01 -0.87931326849E-01  0.75737770884E-02  0.94974851899E-01  0.51100000000E-03 0.  1.
         11    1    4    4    0    0 -0.26390933131E-01 -0.23737658245E-01  0.25866372884E-01  0.43923662617E-01  0.51100000000E-03 0. -1.
</event>
<event>
 8    1  0.2877139E+004  0.1043930E+01  0.7957747E-01            NaN
         13   -1    0    0    0    0  0.00000000000E+00  0.00000000000E+00  0.74505805969E-08  0.10566000000E+00  0.10566000000E+00 0.  1.
     999900   -1    0    0    0    0 -0.00000000000E+00 -0.00000000000E+00 -0.74505805969E-08  0.93827000000E+00  0.93827000000E+00 0.  1.
     999902    2    1    2    0    0 -0.99078060230E-02  0.36800989041E-02  0.30438725570E-02  0.10329312315E+01  0.10328726718E+01 0.  0.
     999903    2    3    3    0    0 -0.50622669080E-01  0.11842617098E+00  0.44389826412E-01  0.14358661381E+00  0.45378920001E-01 0.  0.
         14    1    1    2    0    0  0.99078060230E-02 -0.36800989041E-02 -0.30438725570E-02  0.10998768489E-01  0.00000000000E+00 0. -1.
     999901    1    3    3    0    0  0.40714863057E-01 -0.11474607207E+00 -0.41345953855E-01  0.88934461770E+00  0.88000000000E+00 0.  1.
        -11    1    4    4    0    0 -0.35315847777E-01  0.89621111694E-01  0.11084398357E-01  0.96965343157E-01  0.51100000000E-03 0.  1.
         11    1    4    4    0    0 -0.15306821303E-01  0.28805059281E-01  0.33305428055E-01  0.46621270656E-01  0.51100000000E-03 0. -1.
</event>
<event>
 8    1  0.2877139E+004  0.1043930E+01  0.7957747E-01            NaN
         13   -1    0    0    0    0  0.00000000000E+00  0.00000000000E+00  0.74505805969E-08  0.10566000000E+00  0.10566000000E+00 0.  1.
     999900   -1    0    0    0    0 -0.00000000000E+00 -0.00000000000E+00 -0.74505805969E-08  0.93827000000E+00  0.93827000000E+00 0.  1.
     999902    2    1    2    0    0  0.23177505742E-02  0.66155782580E-02 -0.12344945690E-01  0.10297336791E+01  0.10296358164E+01 0.  0.
     999903    2    3    3    0    0 -0.26805156185E-01 -0.12838534675E+00  0.54457305880E-02  0.13878480198E+00  0.45058313553E-01 0.  0.
         14    1    1    2    0    0 -0.23177505742E-02 -0.66155782580E-02  0.12344945690E-01  0.14196320914E-01  0.00000000000E+00 0.  1.
     999901    1    3    3    0    0  0.29122906760E-01  0.13500092501E+00 -0.17790676278E-01  0.89094887710E+00  0.88000000000E+00 0.  1.
        -11    1    4    4    0    0 -0.17655310543E-01 -0.64915448908E-01  0.24955148158E-01  0.71754763172E-01  0.51100000000E-03 0.  1.
         11    1    4    4    0    0 -0.91498456422E-02 -0.63469897845E-01 -0.19509417570E-01  0.67030038809E-01  0.51100000000E-03 0. -1.
</event>
<event>
 8    1  0.2877139E+004  0.1043930E+01  0.7957747E-01            NaN
         13   -1    0    0    0    0  0.00000000000E+00  0.00000000000E+00  0.74505805969E-08  0.10566000000E+00  0.10566000000E+00 0.  1.
     999900   -1    0    0    0    0 -0.00000000000E+00 -0.00000000000E+00 -0.74505805969E-08  0.93827000000E+00  0.93827000000E+00 0. -1.
     999902    2    1    2    0    0  0.86894571459E-02 -0.42537152016E-02 -0.74259463153E-02  0.10317338761E+01  0.10316617884E+01 0.  0.
     999903    2    3    3    0    0 -0.43141854362E-01  0.91334019160E-01  0.85587649205E-01  0.14017623428E+00  0.46054405937E-01 0.  0.
         14    1    1    2    0    0 -0.86894571459E-02  0.42537152016E-02  0.74259463153E-02  0.12196123859E-01  0.00000000000E+00 0.  1.
     999901    1    3    3    0    0  0.51831311508E-01 -0.95587734362E-01 -0.93013595520E-01  0.89155764186E+00  0.88000000000E+00 0. -1.
        -11    1    4    4    0    0 -0.28237964443E-01  0.75000492052E-01  0.40139208807E-01  0.89631878528E-01  0.51100000000E-03 0. -1.
         11    1    4    4    0    0 -0.14903889919E-01  0.16333527109E-01  0.45448440398E-01  0.50544355750E-01  0.51100000000E-03 0.  1.
</event>
<event>
 8    1  0.2877139E+004  0.1043930E+01  0.7957747E-01            NaN
         13   -1    0    0    0    0  0.00000000000E+00  0.00000000000E+00  0.74505805969E-08  0.10566000000E+00  0.10566000000E+00 0. -1.
     999900   -1    0    0    0    0 -0.00000000000E+00 -0.00000000000E+00 -0.74505805969E-08  0.93827000000E+00  0.93827000000E+00 0.  1.
     999902    2    1    2    0    0 -0.82144111438E-02  0.53734808744E-02  0.98096696770E-02  0.10300526636E+01  0.10299591784E+01 0.  0.
     999903    2    3    3    0    0 -0.79145926936E-01 -0.48537177725E-01  0.96006507638E-01  0.14136400385E+00  0.46331379256E-01 0.  0.
         14    1    1    2    0    0  0.82144111438E-02 -0.53734808744E-02 -0.98096696770E-02  0.13877336427E-01  0.00000000000E+00 0.  1.
     999901    1    3    3    0    0  0.70931515792E-01  0.53910658599E-01 -0.86196837961E-01  0.88868865972E+00  0.88000000000E+00 0.  1.
        -11    1    4    4    0    0 -0.71642844756E-01 -0.33077679940E-01  0.53026206413E-01  0.95072970935E-01  0.51100000000E-03 0. -1.
         11    1    4    4    0    0 -0.75030821804E-02 -0.15459497785E-01  0.42980301226E-01  0.46291032916E-01  0.51100000000E-03 0.  1.
</event>
<event>
 8    1  0.2877139E+004  0.1043930E+01  0.7957747E-01            NaN
         13   -1    0    0    0    0  0.00000000000E+00  0.00000000000E+00  0.74505805969E-08  0.10566000000E+00  0.10566000000E+00 0.  1.
     999900   -1    0    0    0    0 -0.00000000000E+00 -0.00000000000E+00 -0.74505805969E-08  0.93827000000E+00  0.93827000000E+00 0.  1.
     999902    2    1    2    0    0 -0.42862120708E-02 -0.18732455919E-02  0.16212170199E-01  0.10270564963E+01  0.10269178797E+01 0.  0.
     999903    2    3    3    0    0  0.39952132027E-01  0.11547697053E+00  0.46320392052E-01  0.13765523182E+00  0.43269857312E-01 0.  0.
         14    1    1    2    0    0  0.42862120708E-02  0.18732455919E-02 -0.16212170199E-01  0.16873503653E-01  0.00000000000E+00 0. -1.
     999901    1    3    3    0    0 -0.44238344098E-01 -0.11735021612E+00 -0.30108221853E-01  0.88940126452E+00  0.88000000000E+00 0.  1.
        -11    1    4    4    0    0  0.43377153158E-01  0.92847862634E-01  0.50715930960E-01  0.11434452233E+00  0.51100000000E-03 0.  1.
         11    1    4    4    0    0 -0.34250211309E-02  0.22629107898E-01 -0.43955389076E-02  0.23310709498E-01  0.51100000000E-03 0. -1.
</event>
<event>
 7    1  0.2877139E+004  0.1043930E+01  0.7957747E-01            NaN
         13   -1    0    0    0    0  0.00000000000E+00  0.00000000000E+00  0.74505805969E-08  0.10566000000E+00  0.10566000000E+00 0. -1.
     999900   -1    0    0    0    0 -0.00000000000E+00 -0.00000000000E+00 -0.74505805969E-08  0.93827000000E+00  0.93827000000E+00 0.  1.
     999903    2    1    2    0    0 -0.47987336545E-01 -0.46813877290E-01 -0.92016743304E-01  0.12233491016E+00  0.44770812138E-01 0.  0.
         14    1    1    2    0    0 -0.11361056391E-01 -0.29567305275E-01  0.41377505982E-02  0.31944015458E-01  0.00000000000E+00 0. -1.
     999901    1    1    2    0    0  0.59348392935E-01  0.76381182566E-01  0.87878992705E-01  0.88965107438E+00  0.88000000000E+00 0. -1.
        -11    1    3    3    0    0 -0.18833006412E-01 -0.45797664750E-01 -0.44513065268E-01  0.66586652774E-01  0.51100000000E-03 0.  1.
         11    1    3    3    0    0 -0.29154330133E-01 -0.10162125403E-02 -0.47503678035E-01  0.55748257384E-01  0.51100000000E-03 0. -1.
</event>
<event>
 7    1  0.2877139E+004  0.1043930E+01  0.7957747E-01            NaN
         13   -1    0    0    0    0  0.00000000000E+00  0.00000000000E+00  0.74505805969E-08  0.10566000000E+00  0.10566000000E+00 0.  1.
     999900   -1    0    0    0    0 -0.00000000000E+00 -0.00000000000E+00 -0.74505805969E-08  0.93827000000E+00  0.93827000000E+00 0.  1.
     999903    2    1    2    0    0 -0.71902001463E-01  0.26208415684E-01 -0.64138700051E-01  0.11088760539E+00  0.48223534889E-01 0.  0.
         14    1    1    2    0    0  0.96451435941E-02  0.41995792674E-01  0.18907738477E-01  0.47055052562E-01  0.00000000000E+00 0.  1.
     999901    1    1    2    0    0  0.62256857869E-01 -0.68204208358E-01  0.45230961574E-01  0.88598734205E+00  0.88000000000E+00 0. -1.
        -11    1    3    3    0    0 -0.54914276504E-02  0.23298015241E-01 -0.18410854818E-01  0.30202218262E-01  0.51100000000E-03 0. -1.
         11    1    3    3    0    0 -0.66410573813E-01  0.29104004424E-02 -0.45727845234E-01  0.80685387126E-01  0.51100000000E-03 0.  1.
</event>
<event>
 7    1  0.2877139E+004  0.1043930E+01  0.7957747E-01            NaN
         13   -1    0    0    0    0  0.00000000000E+00  0.00000000000E+00  0.74505805969E-08  0.10566000000E+00  0.10566000000E+00 0. -1.
     999900   -1    0    0    0    0 -0.00000000000E+00 -0.00000000000E+00 -0.74505805969E-08  0.93827000000E+00  0.93827000000E+00 0. -1.
     999903    2    1    2    0    0  0.80128851124E-01 -0.68230793273E-01  0.45181199654E-01  0.12333926957E+00  0.45772925226E-01 0.  0.
         14    1    1    2    0    0  0.28969610466E-01  0.93076345259E-02 -0.61375916648E-02  0.31040947512E-01  0.00000000000E+00 0.  1.
     999901    1    1    2    0    0 -0.10909846159E+00  0.58923158747E-01 -0.39043607989E-01  0.88954978291E+00  0.88000000000E+00 0. -1.
        -11    1    3    3    0    0  0.43890120304E-01 -0.58989694636E-01  0.14456934927E-01  0.74935911431E-01  0.51100000000E-03 0.  1.
         11    1    3    3    0    0  0.36238730820E-01 -0.92410986366E-02  0.30724264727E-01  0.48403358143E-01  0.51100000000E-03 0. -1.
</event>
<event>
 8    1  0.2877139E+004  0.1043930E+01  0.7957747E-01            NaN
         13   -1    0    0    0    0  0.00000000000E+00  0.00000000000E+00  0.74505805969E-08  0.10566000000E+00  0.10566000000E+00 0. -1.
     999900   -1    0    0    0    0 -0.00000000000E+00 -0.00000000000E+00 -0.74505805969E-08  0.93827000000E+00  0.93827000000E+00 0. -1.
     999902    2    1    2    0    0  0.77625268995E-03 -0.23817412818E-02  0.13529302850E-01  0.10301707378E+01  0.10300788474E+01 0.  0.
     999903    2    3    3    0    0  0.73745925946E-01  0.29290775118E-01  0.10906802228E+00  0.14143266145E+00  0.42555295069E-01 0.  0.
         14    1    1    2    0    0 -0.77625268995E-03  0.23817412818E-02 -0.13529302850E-01  0.13759262167E-01  0.00000000000E+00 0.  1.
     999901    1    3    3    0    0 -0.72969673256E-01 -0.31672516400E-01 -0.95538719432E-01  0.88873807639E+00  0.88000000000E+00 0. -1.
        -11    1    4    4    0    0 -0.93570115093E-03  0.51880455006E-02  0.28400820225E-01  0.28890466649E-01  0.51100000000E-03 0. -1.
         11    1    4    4    0    0  0.74681627097E-01  0.24102729617E-01  0.80667202057E-01  0.11254219480E+00  0.51100000000E-03 0.  1.
</event>
<event>
 8    1  0.2877139E+004  0.1043930E+01  0.7957747E-01            NaN
         13   -1    0    0    0    0  0.00000000000E+00  0.00000000000E+00  0.74505805969E-08  0.10566000000E+00  0.10566000000E+00 0. -1.
     999900   -1    0    0    0    0 -0.00000000000E+00 -0.00000000000E+00 -0.74505805969E-08  0.93827000000E+00  0.93827000000E+00 0.  1.
     999902    2    1    2    0    0 -0.87749579198E-02 -0.90497649149E-02 -0.47896454234E-02  0.10304452369E+01  0.10303570000E+01 0.  0.
     999903    2    3    3    0    0 -0.12138739808E+00  0.52211890732E-01 -0.66943398502E-02  0.14115440713E+00  0.49180997539E-01 0.  0.
         14    1    1    2    0    0  0.87749579198E-02  0.90497649149E-02  0.47896454234E-02  0.13484763060E-01  0.00000000000E+00 0. -1.
     999901    1    3    3    0    0  0.11261244016E+00 -0.61261655647E-01  0.19046944269E-02  0.88929082981E+00  0.88000000000E+00 0. -1.
        -11    1    4    4    0    0 -0.10105413467E+00  0.22996192524E-01  0.47890104791E-02  0.10374949998E+00  0.51100000000E-03 0.  1.
         11    1    4    4    0    0 -0.20333263411E-01  0.29215698208E-01 -0.11483350329E-01  0.37404907144E-01  0.51100000000E-03 0. -1.
</event>
<event>
 8    1  0.2877139E+004  0.1043930E+01  0.7957747E-01            NaN
         13   -1    0    0    0    0  0.00000000000E+00  0.00000000000E+00  0.74505805969E-08  0.10566000000E+00  0.10566000000E+00 0. -1.
     999900   -1    0    0    0    0 -0.00000000000E+00 -0.00000000000E+00 -0.74505805969E-08  0.93827000000E+00  0.93827000000E+00 0. -1.
     999902    2    1    2    0    0 -0.44125297813E-02 -0.13112069917E-01 -0.99676766935E-03  0.10300595154E+01  0.10299661232E+01 0.  0.
     999903    2    3    3    0    0  0.43591381368E-01  0.42568133586E-01 -0.11677165742E+00  0.13943698840E+00  0.45768976724E-01 0.  0.
         14    1    1    2    0    0  0.44125297813E-02  0.13112069917E-01  0.99676766935E-03  0.13870484576E-01  0.00000000000E+00 0. -1.
     999901    1    3    3    0    0 -0.48003911149E-01 -0.55680203502E-01  0.11577488975E+00  0.89062252703E+00  0.88000000000E+00 0. -1.
        -11    1    4    4    0    0  0.39076627479E-01  0.21791181693E-01 -0.10710404007E+00  0.11607486780E+00  0.51100000000E-03 0.  1.
         11    1    4    4    0    0  0.45147538893E-02  0.20776951893E-01 -0.96676173532E-02  0.23362120600E-01  0.51100000000E-03 0. -1.
</event>
<event>
 8    1  0.2877139E+004  0.1043930E+01  0.7957747E-01            NaN
         13   -1    0    0    0    0  0.00000000000E+00  0.00000000000E+00  0.74505805969E-08  0.10566000000E+00  0.10566000000E+00 0. -1.
     999900   -1    0    0    0    0 -0.00000000000E+00 -0.00000000000E+00 -0.74505805969E-08  0.93827000000E+00  0.93827000000E+00 0.  1.
     999902    2    1    2    0    0  0.51519928771E-02 -0.12085070123E-01 -0.33246427871E-02  0.10303784244E+01  0.10302893052E+01 0.  0.
     999903    2    3    3    0    0 -0.87329093732E-01 -0.33356201268E-01 -0.94620805985E-01  0.14058058121E+00  0.45506000850E-01 0.  0.
         14    1    1    2    0    0 -0.51519928771E-02  0.12085070123E-01  0.33246427871E-02  0.13551575559E-01  0.00000000000E+00 0.  1.
     999901    1    3    3    0    0  0.92481086609E-01  0.21271131146E-01  0.91296163198E-01  0.88979784323E+00  0.88000000000E+00 0. -1.
        -11    1    4    4    0    0 -0.16074107532E-01 -0.10421000636E-01  0.94549545763E-03  0.19186695126E-01  0.51100000000E-03 0.  1.
         11    1    4    4    0    0 -0.71254986200E-01 -0.22935200632E-01 -0.95566301443E-01  0.12139388609E+00  0.51100000000E-03 0. -1.
</event>
<event>
 8    1  0.2877139E+004  0.1043930E+01  0.7957747E-01            NaN
         13   -1    0    0    0    0  0.00000000000E+00  0.00000000000E+00  0.74505805969E-08  0.10566000000E+00  0.10566000000E+00 0. -1.
     999900   -1    0    0    0    0 -0.00000000000E+00 -0.00000000000E+00 -0.74505805969E-08  0.93827000000E+00  0.93827000000E+00 0. -1.
     999902    2    1    2    0    0  0.58400152233E-02 -0.25027174819E-01 -0.11465024303E-01  0.10157890683E+01  0.10153991920E+01 0.  0.
     999903    2    3    3    0    0  0.42274309576E-01  0.10775462284E+00 -0.14499722217E-01  0.12507717713E+00  0.45120752458E-01 0.  0.
         14    1    1    2    0    0 -0.58400152233E-02  0.25027174819E-01  0.11465024303E-01  0.28140931745E-01  0.00000000000E+00 0. -1.
     999901    1    3    3    0    0 -0.36434294352E-01 -0.13278179766E+00  0.30346979141E-02  0.89071189112E+00  0.88000000000E+00 0.  1.
        -11    1    4    4    0    0 -0.35996426513E-02  0.17826181559E-01 -0.15826965544E-01  0.24113982158E-01  0.51100000000E-03 0.  1.
         11    1    4    4    0    0  0.45873952227E-01  0.89928441279E-01  0.13272433276E-02  0.10096319498E+00  0.51100000000E-03 0. -1.
</event>
<event>
 8    1  0.2877139E+004  0.1043930E+01  0.7957747E-01            NaN
         13   -1    0    0    0    0  0.00000000000E+00  0.00000000000E+00  0.74505805969E-08  0.10566000000E+00  0.10566000000E+00 0. -1.
     999900   -1    0    0    0    0 -0.00000000000E+00 -0.00000000000E+00 -0.74505805969E-08  0.93827000000E+00  0.93827000000E+00 0.  1.
     999902    2    1    2    0    0  0.36809707863E-02 -0.10805077898E-01  0.11568751545E-01  0.10276777612E+01  0.10275492424E+01 0.  0.
     999903    2    3    3    0    0 -0.55868465221E-01 -0.86650724665E-01 -0.79718710917E-01  0.13771590904E+00  0.44508035696E-01 0.  0.
         14    1    1    2    0    0 -0.36809707863E-02  0.10805077898E-01 -0.11568751545E-01  0.16252238819E-01  0.00000000000E+00 0.  1.
     999901    1    3    3    0    0  0.59549436007E-01  0.75845646766E-01  0.91287462462E-01  0.88996185214E+00  0.88000000000E+00 0.  1.
        -11    1    4    4    0    0 -0.32348721842E-01 -0.24107588805E-01 -0.10899623720E-01  0.41793283683E-01  0.51100000000E-03 0.  1.
         11    1    4    4    0    0 -0.23519743379E-01 -0.62543135860E-01 -0.68819087197E-01  0.95922625357E-01  0.51100000000E-03 0. -1.
</event>
<event>
 8    1  0.2877139E+004  0.1043930E+01  0.7957747E-01            NaN
         13   -1    0    0    0    0  0.00000000000E+00  0.00000000000E+00  0.74505805969E-08  0.10566000000E+00  0.10566000000E+00 0. -1.
     999900   -1    0    0    0    0 -0.00000000000E+00 -0.00000000000E+00 -0.74505805969E-08  0.93827000000E+00  0.93827000000E+00 0.  1.
     999902    2    1    2    0    0  0.11420297605E-01  0.34093265278E-02 -0.94481781854E-02  0.10287209640E+01  0.10286085295E+01 0.  0.
     999903    2    3    3    0    0  0.92875289289E-01  0.59729385351E-01 -0.75351004458E-01  0.14071755906E+00  0.43934482119E-01 0.  0.
         14    1    1    2    0    0 -0.11420297605E-01 -0.34093265278E-02  0.94481781854E-02  0.15209035991E-01  0.00000000000E+00 0. -1.
     999901    1    3    3    0    0 -0.81454991684E-01 -0.56320058823E-01  0.65902826272E-01  0.88800340495E+00  0.88000000000E+00 0.  1.
        -11    1    4    4    0    0  0.52518303406E-01  0.44653931177E-01 -0.68332802512E-01  0.97065847662E-01  0.51100000000E-03 0. -1.
         11    1    4    4    0    0  0.40356985883E-01  0.15075454174E-01 -0.70182019459E-02  0.43651711395E-01  0.51100000000E-03 0.  1.
</event>
<event>
 8    1  0.2877139E+004  0.1043930E+01  0.7957747E-01            NaN
         13   -1    0    0    0    0  0.00000000000E+00  0.00000000000E+00  0.74505805969E-08  0.10566000000E+00  0.10566000000E+00 0.  1.
     999900   -1    0    0    0    0 -0.00000000000E+00 -0.00000000000E+00 -0.74505805969E-08  0.93827000000E+00  0.93827000000E+00 0. -1.
     999902    2    1    2    0    0  0.36809492679E-02  0.16078835810E-02 -0.13241603427E-01  0.10300925603E+01  0.10299996155E+01 0.  0.
     999903    2    3    3    0    0 -0.12732674339E+00 -0.61980648360E-02 -0.37299847130E-01  0.14003483885E+00  0.44361716654E-01 0.  0.
         14    1    1    2    0    0 -0.36809492679E-02 -0.16078835810E-02  0.13241603427E-01  0.13837439736E-01  0.00000000000E+00 0.  1.
     999901    1    3    3    0    0  0.13100769266E+00  0.78059484169E-02  0.24058243702E-01  0.89005772142E+00  0.88000000000E+00 0. -1.
        -11    1    4    4    0    0 -0.75679406601E-01  0.64691205682E-02 -0.41738531213E-01  0.86669419135E-01  0.51100000000E-03 0. -1.
         11    1    4    4    0    0 -0.51647336789E-01 -0.12667185404E-01  0.44386840830E-02  0.53365419711E-01  0.51100000000E-03 0.  1.
</event>
<event>
 8    1  0.2877139E+004  0.1043930E+01  0.7957747E-01            NaN
         13   -1    0    0    0    0  0.00000000000E+00  0.00000000000E+00  0.74505805969E-08  0.10566000000E+00  0.10566000000E+00 0. -1.
     999900   -1    0    0    0    0 -0.00000000000E+00 -0.00000000000E+00 -0.74505805969E-08  0.93827000000E+00  0.93827000000E+00 0. -1.
     999902    2    1    2    0    0 -0.76908538729E-02 -0.11821067624E-01 -0.19571795794E-02  0.10296921130E+01  0.10295936724E+01 0.  0.
     999903    2    3    3    0    0 -0.52880077870E-01 -0.51769135588E-01  0.11087808692E+00  0.14043978020E+00  0.44193163155E-01 0.  0.
         14    1    1    2    0    0  0.76908538729E-02  0.11821067624E-01  0.19571795794E-02  0.14237886956E-01  0.00000000000E+00 0. -1.
     999901    1    3    3    0    0  0.45189223997E-01  0.39948067964E-01 -0.11283526650E+00  0.88925233284E+00  0.88000000000E+00 0. -1.
        -11    1    4    4    0    0 -0.36812329553E-02 -0.23227671944E-01  0.58755934987E-01  0.63289787780E-01  0.51100000000E-03 0.  1.
         11    1    4    4    0    0 -0.49198844915E-01 -0.28541463644E-01  0.52122151930E-01  0.77149992422E-01  0.51100000000E-03 0. -1.
</event>
<event>
 8    1  0.2877139E+004  0.1043930E+01  0.7957747E-01            NaN
         13   -1    0    0    0    0  0.00000000000E+00  0.00000000000E+00  0.74505805969E-08  0.10566000000E+00  0.10566000000E+00 0. -1.
     999900   -1    0    0    0    0 -0.00000000000E+00 -0.00000000000E+00 -0.74505805969E-08  0.93827000000E+00  0.93827000000E+00 0. -1.
     999902    2    1    2    0    0  0.40126635804E-02 -0.10619430718E-01  0.81879002970E-02  0.10299330186E+01  0.10298379034E+01 0.  0.
     999903    2    3    3    0    0 -0.97395210370E-01 -0.59900981247E-01  0.68671224247E-01  0.14068026452E+00  0.44735279448E-01 0.  0.
         14    1    1    2    0    0 -0.40126635804E-02  0.10619430718E-01 -0.81879002970E-02  0.13996981427E-01  0.00000000000E+00 0. -1.
     999901    1    3    3    0    0  0.10140787395E+00  0.49281550529E-01 -0.60483323950E-01  0.88925275406E+00  0.88000000000E+00 0. -1.
        -11    1    4    4    0    0 -0.31757642786E-01 -0.45188405648E-01  0.35693015006E-01  0.65763153220E-01  0.51100000000E-03 0.  1.
         11    1    4    4    0    0 -0.65637567584E-01 -0.14712575600E-01  0.32978209242E-01  0.74917111296E-01  0.51100000000E-03 0. -1.
</event>
<event>
 7    1  0.2877139E+004  0.1043930E+01  0.7957747E-01            NaN
         13   -1    0    0    0    0  0.00000000000E+00  0.00000000000E+00  0.74505805969E-08  0.10566000000E+00  0.10566000000E+00 0.  1.
     999900   -1    0    0    0    0 -0.00000000000E+00 -0.00000000000E+00 -0.74505805969E-08  0.93827000000E+00  0.93827000000E+00 0.  1.
     999902    2    1    2    0    0 -0.21416135886E-02  0.11353498848E-01  0.61118403963E-02  0.10308593061E+01  0.10307764384E+01 0.  0.
         14    1    1    2    0    0  0.21416135886E-02 -0.11353498848E-01 -0.61118403963E-02  0.13070693856E-01  0.00000000000E+00 0. -1.
     999901    1    3    3    0    0 -0.55125702783E-01  0.47699436023E-01 -0.11651538871E+00  0.89066824077E+00  0.88000000000E+00 0.  1.
        -11    1    3    3    0    0  0.13879777284E-01 -0.38905629984E-02  0.46282976133E-01  0.48478445712E-01  0.51100000000E-03 0.  1.
         11    1    3    3    0    0  0.39104311911E-01 -0.32455374177E-01  0.76344252972E-01  0.91712619665E-01  0.51100000000E-03 0. -1.
</event>
<event>
 8    1  0.2877139E+004  0.1043930E+01  0.7957747E-01            NaN
         13   -1    0    0    0    0  0.00000000000E+00  0.00000000000E+00  0.74505805969E-08  0.10566000000E+00  0.10566000000E+00 0.  1.
     999900   -1    0    0    0    0 -0.00000000000E+00 -0.00000000000E+00 -0.74505805969E-08  0.93827000000E+00  0.93827000000E+00 0.  1.
     999902    2    1    2    0    0 -0.11439993062E-01  0.72408946243E-02 -0.29428818983E-02  0.10300748728E+01  0.10299816887E+01 0.  0.
     999903    2    3    3    0    0 -0.21225810721E-01 -0.15611188813E-01 -0.13171277133E+00  0.14035600462E+00  0.40710068091E-01 0.  0.
         14    1    1    2    0    0  0.11439993062E-01 -0.72408946243E-02  0.29428818983E-02  0.13855127213E-01  0.00000000000E+00 0.  1.
     999901    1    3    3    0    0  0.97858176595E-02  0.22852083437E-01  0.12876988944E+00  0.88971886817E+00  0.88000000000E+00 0. -1.
        -11    1    4    4    0    0 -0.23346772440E-01  0.48540743066E-02 -0.41879948758E-01  0.48195695345E-01  0.51100000000E-03 0. -1.
         11    1    4    4    0    0  0.21209617188E-02 -0.20465263120E-01 -0.89832822575E-01  0.92160309277E-01  0.51100000000E-03 0.  1.
</event>
<event>
 8    1  0.2877139E+004  0.1043930E+01  0.7957747E-01            NaN
         13   -1    0    0    0    0  0.00000000000E+00  0.00000000000E+00  0.74505805969E-08  0.10566000000E+00  0.10566000000E+00 0.  1.
     999900   -1    0    0    0    0 -0.00000000000E+00 -0.00000000000E+00 -0.74505805969E-08  0.93827000000E+00  0.93827000000E+00 0.  1.
     999902    2    1    2    0    0 -0.85868529835E-02  0.17516239922E-02 -0.10290821187E-01  0.10304132241E+01  0.10303245649E+01 0.  0.
     999903    2    3    3    0    0 -0.18211686013E-01 -0.28870487138E-01 -0.12985633604E+00  0.14174778453E+00  0.45437824250E-01 0.  0.
         14    1    1    2    0    0  0.85868529835E-02 -0.17516239922E-02  0.10290821187E-01  0.13516775928E-01  0.00000000000E+00 0.  1.
     999901    1    3    3    0    0  0.96248330298E-02  0.30622111130E-01  0.11956551486E+00  0.88866543955E+00  0.88000000000E+00 0. -1.
        -11    1    4    4    0    0 -0.31243280771E-01 -0.30162185854E-01 -0.93286783783E-01  0.10290085130E+00  0.51100000000E-03 0.  1.
         11    1    4    4    0    0  0.13031594758E-01  0.12916987167E-02 -0.36569552260E-01  0.38846933226E-01  0.51100000000E-03 0. -1.
</event>
<event>
 8    1  0.2877139E+004  0.1043930E+01  0.7957747E-01            NaN
         13   -1    0    0    0    0  0.00000000000E+00  0.00000000000E+00  0.74505805969E-08  0.10566000000E+00  0.10566000000E+00 0.  1.
     999900   -1    0    0    0    0 -0.00000000000E+00 -0.00000000000E+00 -0.74505805969E-08  0.93827000000E+00  0.93827000000E+00 0. -1.
     999902    2    1    2    0    0 -0.12020495721E-01 -0.44936410818E-02  0.48000503018E-02  0.10302287004E+01  0.10301375877E+01 0.  0.
     999903    2    3    3    0    0 -0.68768228918E-01 -0.54546882839E-01 -0.10022420977E+00  0.14075934881E+00  0.45429839496E-01 0.  0.
         14    1    1    2    0    0  0.12020495721E-01  0.44936410818E-02 -0.48000503018E-02  0.13701299590E-01  0.00000000000E+00 0. -1.
     999901    1    3    3    0    0  0.56747733197E-01  0.50053241757E-01  0.10502426007E+00  0.88946935160E+00  0.88000000000E+00 0.  1.
        -11    1    4    4    0    0 -0.20867056130E-01 -0.34994188676E-02 -0.36430410763E-02  0.21475866297E-01  0.51100000000E-03 0. -1.
         11    1    4    4    0    0 -0.47901172789E-01 -0.51047463972E-01 -0.96581168696E-01  0.11928348251E+00  0.51100000000E-03 0.  1.
</event>
<event>
 8    1  0.2877139E+004  0.1043930E+01  0.7957747E-01            NaN
         13   -1    0    0    0    0  0.00000000000E+00  0.00000000000E+00  0.74505805969E-08  0.10566000000E+00  0.10566000000E+00 0.  1.
     999900   -1    0    0    0    0 -0.00000000000E+00 -0.00000000000E+00 -0.74505805969E-08  0.93827000000E+00  0.93827000000E+00 0. -1.
     999902    2    1    2    0    0  0.51608431737E-02 -0.29486610721E-02 -0.12199388100E-01  0.10303596656E+01  0.10302702978E+01 0.  0.
     999903    2    3    3    0    0  0.60518186201E-01 -0.11490078235E+00  0.29644419744E-01  0.14055709365E+00  0.44864956322E-01 0.  0.
         14    1    1    2    0    0 -0.51608431737E-02  0.29486610721E-02  0.12199388100E-01  0.13570334351E-01  0.00000000000E+00 0.  1.
     999901    1    3    3    0    0 -0.55357343027E-01  0.11195212128E+00 -0.41843807844E-01  0.88980257200E+00  0.88000000000E+00 0.  1.
        -11    1    4    4    0    0  0.53730563410E-01 -0.82658442348E-01  0.37710357725E-02  0.98660394118E-01  0.51100000000E-03 0.  1.
         11    1    4    4    0    0  0.67876227909E-02 -0.32242340006E-01  0.25873383972E-01  0.41896699529E-01  0.51100000000E-03 0. -1.
</event>
<event>
 8    1  0.2877139E+004  0.1043930E+01  0.7957747E-01            NaN
         13   -1    0    0    0    0  0.00000000000E+00  0.00000000000E+00  0.74505805969E-08  0.10566000000E+00  0.10566000000E+00 0.  1.
     999900   -1    0    0    0    0 -0.00000000000E+00 -0.00000000000E+00 -0.74505805969E-08  0.93827000000E+00  0.93827000000E+00 0.  1.
     999902    2    1    2    0    0  0.80928446061E-02  0.10418522956E-01  0.78905407400E-03  0.10307140112E+01  0.10306292789E+01 0.  0.
     999903    2    3    3    0    0 -0.11300293719E+00 -0.38761517966E-01  0.55713151105E-01  0.13936698491E+00  0.45244692364E-01 0.  0.
         14    1    1    2    0    0 -0.80928446061E-02 -0.10418522956E-01 -0.78905407400E-03  0.13215988829E-01  0.00000000000E+00 0. -1.
     999901    1    3    3    0    0  0.12109578180E+00  0.49180040921E-01 -0.54924097031E-01  0.89134702626E+00  0.88000000000E+00 0.  1.
        -11    1    4    4    0    0 -0.64721987835E-01 -0.27128729359E-01  0.82387808272E-02  0.70661462598E-01  0.51100000000E-03 0. -1.
         11    1    4    4    0    0 -0.48280949357E-01 -0.11632788606E-01  0.47474370277E-01  0.68705522310E-01  0.51100000000E-03 0.  1.
</event>
<event>
 8    1  0.2877139E+004  0.1043930E+01  0.7957747E-01            NaN
         13   -1    0    0    0    0  0.00000000000E+00  0.00000000000E+00  0.74505805969E-08  0.10566000000E+00  0.10566000000E+00 0.  1.
     999900   -1    0    0    0    0 -0.00000000000E+00 -0.00000000000E+00 -0.74505805969E-08  0.93827000000E+00  0.93827000000E+00 0. -1.
     999902    2    1    2    0    0 -0.11170312438E-01 -0.75102595260E-02  0.43603754622E-02  0.10297810512E+01  0.10296838450E+01 0.  0.
     999903    2    3    3    0    0  0.10124965456E-01  0.13002616918E+00 -0.12212950574E-01  0.13868934255E+00  0.45565973909E-01 0.  0.
         14    1    1    2    0    0  0.11170312438E-01  0.75102595260E-02 -0.43603754622E-02  0.14148948805E-01  0.00000000000E+00 0.  1.
     999901    1    3    3    0    0 -0.21295277894E-01 -0.13753642870E+00  0.16573326037E-01  0.89109170865E+00  0.88000000000E+00 0. -1.
        -11    1    4    4    0    0  0.77868030691E-02  0.93447216594E-01  0.12322774866E-01  0.94578689421E-01  0.51100000000E-03 0. -1.
         11    1    4    4    0    0  0.23381623870E-02  0.36578952584E-01 -0.24535725440E-01  0.44110653128E-01  0.51100000000E-03 0.  1.
</event>
<event>
 8    1  0.2877139E+004  0.1043930E+01  0.7957747E-01            NaN
         13   -1    0    0    0    0  0.00000000000E+00  0.00000000000E+00  0.74505805969E-08  0.10566000000E+00  0.10566000000E+00 0.  1.
     999900   -1    0    0    0    0 -0.00000000000E+00 -0.00000000000E+00 -0.74505805969E-08  0.93827000000E+00  0.93827000000E+00 0. -1.
     999902    2    1    2    0    0 -0.11467726518E-01  0.18298282980E-02 -0.87865483446E-02  0.10293677043E+01  0.10292646940E+01 0.  0.
     999903    2    3    3    0    0  0.67134251361E-02  0.97920267019E-01 -0.88683650928E-01  0.14035281487E+00  0.46911341177E-01 0.  0.
         14    1    1    2    0    0  0.11467726518E-01 -0.18298282980E-02  0.87865483446E-02  0.14562295660E-01  0.00000000000E+00 0.  1.
     999901    1    3    3    0    0 -0.18181151654E-01 -0.96090438721E-01  0.79897102584E-01  0.88901488946E+00  0.88000000000E+00 0.  1.
        -11    1    4    4    0    0  0.24686838653E-01  0.67568397266E-01 -0.47892505216E-01  0.86422690820E-01  0.51100000000E-03 0. -1.
         11    1    4    4    0    0 -0.17973413517E-01  0.30351869753E-01 -0.40791145713E-01  0.53930124055E-01  0.51100000000E-03 0.  1.
</event>
<event>
 8    1  0.2877139E+004  0.1043930E+01  0.7957747E-01            NaN
         13   -1    0    0    0    0  0.00000000000E+00  0.00000000000E+00  0.74505805969E-08  0.10566000000E+00  0.10566000000E+00 0.  1.
     999900   -1    0    0    0    0 -0.00000000000E+00 -0.00000000000E+00 -0.74505805969E-08  0.93827000000E+00  0.93827000000E+00 0. -1.
     999902    2    1    2    0    0 -0.21734760340E-02  0.25809874182E-02  0.15380550838E-01  0.10281836722E+01  0.10280630900E+01 0.  0.
     999903    2    3    3    0    0 -0.97594560420E-01 -0.74072584242E-01  0.48063994115E-01  0.13911159368E+00  0.45060426165E-01 0.  0.
         14    1    1    2    0    0  0.21734760340E-02 -0.25809874182E-02 -0.15380550838E-01  0.15746327769E-01  0.00000000000E+00 0. -1.
     999901    1    3    3    0    0  0.95421084386E-01  0.76653571660E-01 -0.32683443276E-01  0.88907207855E+00  0.88000000000E+00 0. -1.
        -11    1    4    4    0    0 -0.27735310944E-01 -0.48648443781E-01  0.16855435820E-01  0.58483206078E-01  0.51100000000E-03 0.  1.
         11    1    4    4    0    0 -0.69859249476E-01 -0.25424140461E-01  0.31208558295E-01  0.80628387602E-01  0.51100000000E-03 0. -1.
</event>
<event>
 8    1  0.2877139E+004  0.1043930E+01  0.7957747E-01            NaN
         13   -1    0    0    0    0  0.00000000000E+00  0.00000000000E+00  0.74505805969E-08  0.10566000000E+00  0.10566000000E+00 0.  1.
     999900   -1    0    0    0    0 -0.00000000000E+00 -0.00000000000E+00 -0.74505805969E-08  0.93827000000E+00  0.93827000000E+00 0.  1.
     999902    2    1    2    0    0 -0.12004211388E-01 -0.51652265615E-02 -0.31848746389E-02  0.10304791977E+01  0.10303914076E+01 0.  0.
     999903    2    3    3    0    0  0.31468531262E-01 -0.12930734616E+00  0.72044185103E-02  0.14064264942E+00  0.44919850389E-01 0.  0.
         14    1    1    2    0    0  0.12004211388E-01  0.51652265615E-02  0.31848746389E-02  0.13450802316E-01  0.00000000000E+00 0.  1.
     999901    1    3    3    0    0 -0.43472742651E-01  0.12414211960E+00 -0.10389293149E-01  0.88983654826E+00  0.88000000000E+00 0.  1.
        -11    1    4    4    0    0  0.19474438364E-02 -0.80491426800E-01  0.18186172506E-01  0.82544898795E-01  0.51100000000E-03 0. -1.
         11    1    4    4    0    0  0.29521087426E-01 -0.48815919362E-01 -0.10981753995E-01  0.58097750626E-01  0.51100000000E-03 0.  1.
</event>
<event>
 8    1  0.2877139E+004  0.1043930E+01  0.7957747E-01            NaN
         13   -1    0    0    0    0  0.00000000000E+00  0.00000000000E+00  0.74505805969E-08  0.10566000000E+00  0.10566000000E+00 0.  1.
     999900   -1    0    0    0    0 -0.00000000000E+00 -0.00000000000E+00 -0.74505805969E-08  0.93827000000E+00  0.93827000000E+00 0.  1.
     999902    2    1    2    0    0  0.37515977693E-02 -0.70400093002E-02  0.99383859204E-02  0.10311860708E+01  0.10311073198E+01 0.  0.
     999903    2    3    3    0    0  0.68725942821E-02  0.66544297098E-03  0.13509116406E+00  0.14229218934E+00  0.44156190663E-01 0.  0.
         14    1    1    2    0    0 -0.37515977693E-02  0.70400093002E-02 -0.99383859204E-02  0.12743929201E-01  0.00000000000E+00 0. -1.
     999901    1    3    3    0    0 -0.31209965129E-02 -0.77054522712E-02 -0.12515277814E+00  0.88889388146E+00  0.88000000000E+00 0.  1.
        -11    1    4    4    0    0  0.20595180389E-01  0.90805974665E-02  0.40476735925E-01  0.46316800167E-01  0.51100000000E-03 0.  1.
         11    1    4    4    0    0 -0.13722586107E-01 -0.84151544955E-02  0.94614428137E-01  0.95975389176E-01  0.51100000000E-03 0. -1.
</event>
<event>
 8    1  0.2877139E+004  0.1043930E+01  0.7957747E-01            NaN
         13   -1    0    0    0    0  0.00000000000E+00  0.00000000000E+00  0.74505805969E-08  0.10566000000E+00  0.10566000000E+00 0. -1.
     999900   -1    0    0    0    0 -0.00000000000E+00 -0.00000000000E+00 -0.74505805969E-08  0.93827000000E+00  0.93827000000E+00 0.  1.
     999902    2    1    2    0    0  0.34590265990E-02 -0.15322376559E-02 -0.13466771026E-01  0.10299419144E+01  0.10298469209E+01 0.  0.
     999903    2    3    3    0    0 -0.98965166854E-01 -0.27446468372E-02  0.88940415866E-01  0.13810144812E+00  0.36877839719E-01 0.  0.
         14    1    1    2    0    0 -0.34590265990E-02  0.15322376559E-02  0.13466771026E-01  0.13988085613E-01  0.00000000000E+00 0. -1.
     999901    1    3    3    0    0  0.10242419345E+00  0.12124091813E-02 -0.10240718689E+00  0.89184046626E+00  0.88000000000E+00 0. -1.
        -11    1    4    4    0    0 -0.89170502786E-01 -0.52784601811E-02  0.60439359261E-01  0.10785368783E+00  0.51100000000E-03 0.  1.
         11    1    4    4    0    0 -0.97946640676E-02  0.25338133439E-02  0.28501056605E-01  0.30247760295E-01  0.51100000000E-03 0. -1.
</event>
<event>
 8    1  0.2877139E+004  0.1043930E+01  0.7957747E-01            NaN
         13   -1    0    0    0    0  0.00000000000E+00  0.00000000000E+00  0.74505805969E-08  0.10566000000E+00  0.10566000000E+00 0.  1.
     999900   -1    0    0    0    0 -0.00000000000E+00 -0.00000000000E+00 -0.74505805969E-08  0.93827000000E+00  0.93827000000E+00 0.  1.
     999902    2    1    2    0    0  0.70842089563E-02  0.42176672942E-02  0.10090561611E-01  0.10308994909E+01  0.10308171352E+01 0.  0.
     999903    2    3    3    0    0  0.68453850006E-01  0.10981179162E+00 -0.33804831769E-01  0.14138099334E+00  0.45839496791E-01 0.  0.
         14    1    1    2    0    0 -0.70842089563E-02 -0.42176672942E-02 -0.10090561611E-01  0.13030509106E-01  0.00000000000E+00 0. -1.
     999901    1    3    3    0    0 -0.61369641050E-01 -0.10559412433E+00  0.43895393380E-01  0.88951849756E+00  0.88000000000E+00 0.  1.
        -11    1    4    4    0    0  0.45599696934E-01  0.33932442320E-01 -0.23331145370E-01  0.61443848086E-01  0.51100000000E-03 0. -1.
         11    1    4    4    0    0  0.22854153072E-01  0.75879349302E-01 -0.10473686399E-01  0.79937145252E-01  0.51100000000E-03 0.  1.
</event>
<event>
 8    1  0.2877139E+004  0.1043930E+01  0.7957747E-01            NaN
         13   -1    0    0    0    0  0.00000000000E+00  0.00000000000E+00  0.74505805969E-08  0.10566000000E+00  0.10566000000E+00 0.  1.
     999900   -1    0    0    0    0 -0.00000000000E+00 -0.00000000000E+00 -0.74505805969E-08  0.93827000000E+00  0.93827000000E+00 0. -1.
     999902    2    1    2    0    0  0.49538141952E-02  0.11153653454E-01 -0.62650543774E-02  0.10302115756E+01  0.10301202335E+01 0.  0.
     999903    2    3    3    0    0 -0.48893404691E-01  0.12100685761E-01  0.12309805662E+00  0.13912502859E+00  0.40812380689E-01 0.  0.
         14    1    1    2    0    0 -0.49538141952E-02 -0.11153653454E-01  0.62650543774E-02  0.13718424356E-01  0.00000000000E+00 0. -1.
     999901    1    3    3    0    0  0.53847218886E-01 -0.94703230748E-03 -0.12936311100E+00  0.89108654705E+00  0.88000000000E+00 0. -1.
        -11    1    4    4    0    0  0.40971662969E-02  0.11007792949E-01  0.19992141347E-01  0.23192781504E-01  0.51100000000E-03 0.  1.
         11    1    4    4    0    0 -0.52990570988E-01  0.10928928128E-02  0.10310591528E+00  0.11593224709E+00  0.51100000000E-03 0. -1.
</event>
<event>
 8    1  0.2877139E+004  0.1043930E+01  0.7957747E-01            NaN
         13   -1    0    0    0    0  0.00000000000E+00  0.00000000000E+00  0.74505805969E-08  0.10566000000E+00  0.10566000000E+00 0. -1.
     999900   -1    0    0    0    0 -0.00000000000E+00 -0.00000000000E+00 -0.74505805969E-08  0.93827000000E+00  0.93827000000E+00 0.  1.
     999902    2    1    2    0    0 -0.77470848411E-02 -0.11153495103E-01 -0.30208620444E-02  0.10300180129E+01  0.10299240572E+01 0.  0.
     999903    2    3    3    0    0  0.88348057886E-01  0.30174694234E-01  0.92093813622E-01  0.13873293104E+00  0.45273216612E-01 0.  0.
         14    1    1    2    0    0  0.77470848411E-02  0.11153495103E-01  0.30208620444E-02  0.13911987063E-01  0.00000000000E+00 0.  1.
     999901    1    3    3    0    0 -0.96095142727E-01 -0.41328189338E-01 -0.95114675666E-01  0.89128508190E+00  0.88000000000E+00 0.  1.
        -11    1    4    4    0    0  0.38168282962E-01  0.31148331946E-01  0.25897010806E-01  0.55659255268E-01  0.51100000000E-03 0.  1.
         11    1    4    4    0    0  0.50179774924E-01 -0.97363771133E-03  0.66196802816E-01  0.83073675769E-01  0.51100000000E-03 0. -1.
</event>
<event>
 8    1  0.2877139E+004  0.1043930E+01  0.7957747E-01            NaN
         13   -1    0    0    0    0  0.00000000000E+00  0.00000000000E+00  0.74505805969E-08  0.10566000000E+00  0.10566000000E+00 0.  1.
     999900   -1    0    0    0    0 -0.00000000000E+00 -0.00000000000E+00 -0.74505805969E-08  0.93827000000E+00  0.93827000000E+00 0. -1.
     999902    2    1    2    0    0 -0.61233132370E-02 -0.12345085301E-01  0.40606246606E-02  0.10295639021E+01  0.10294636680E+01 0.  0.
     999903    2    3    3    0    0  0.22690260833E-01  0.32475324079E-01  0.12615260730E+00  0.13953831631E+00  0.44575405525E-01 0.  0.
         14    1    1    2    0    0  0.61233132370E-02  0.12345085301E-01 -0.40606246606E-02  0.14366097894E-01  0.00000000000E+00 0.  1.
     999901    1    3    3    0    0 -0.28813574070E-01 -0.44820409380E-01 -0.12209198264E+00  0.89002558580E+00  0.88000000000E+00 0. -1.
        -11    1    4    4    0    0 -0.10835396822E-01  0.97336545935E-02  0.61793294750E-01  0.63488756903E-01  0.51100000000E-03 0. -1.
         11    1    4    4    0    0  0.33525657655E-01  0.22741669486E-01  0.64359312554E-01  0.76049559405E-01  0.51100000000E-03 0.  1.
</event>
<event>
 8    1  0.2877139E+004  0.1043930E+01  0.7957747E-01            NaN
         13   -1    0    0    0    0  0.00000000000E+00  0.00000000000E+00  0.74505805969E-08  0.10566000000E+00  0.10566000000E+00 0.  1.
     999900   -1    0    0    0    0 -0.00000000000E+00 -0.00000000000E+00 -0.74505805969E-08  0.93827000000E+00  0.93827000000E+00 0. -1.
     999902    2    1    2    0    0 -0.10691429484E-02  0.13634021464E-01  0.26297483981E-02  0.10300035796E+01  0.10299094275E+01 0.  0.
     999903    2    3    3    0    0  0.11004596535E-01  0.13228780884E+00  0.20834895471E-01  0.14177167081E+00  0.45210046043E-01 0.  0.
         14    1    1    2    0    0  0.10691429484E-02 -0.13634021464E-01 -0.26297483981E-02  0.13926420379E-01  0.00000000000E+00 0. -1.
     999901    1    3    3    0    0 -0.12073739484E-01 -0.11865378738E+00 -0.18205147073E-01  0.88823190881E+00  0.88000000000E+00 0. -1.
        -11    1    4    4    0    0  0.19673090357E-01  0.64392983825E-01 -0.73805242383E-02  0.67736401655E-01  0.51100000000E-03 0. -1.
         11    1    4    4    0    0 -0.86684938221E-02  0.67894825016E-01  0.28215419709E-01  0.74035269159E-01  0.51100000000E-03 0.  1.
</event>
<event>
 8    1  0.2877139E+004  0.1043930E+01  0.7957747E-01            NaN
         13   -1    0    0    0    0  0.00000000000E+00  0.00000000000E+00  0.74505805969E-08  0.10566000000E+00  0.10566000000E+00 0.  1.
     999900   -1    0    0    0    0 -0.00000000000E+00 -0.00000000000E+00 -0.74505805969E-08  0.93827000000E+00  0.93827000000E+00 0. -1.
     999902    2    1    2    0    0 -0.93644863850E-02  0.11402733455E-01 -0.37188574897E-02  0.10287133697E+01  0.10286008221E+01 0.  0.
     999903    2    3    3    0    0 -0.66143852596E-01 -0.11266453659E+00  0.86868792789E-02  0.13811217603E+00  0.43945469109E-01 0.  0.
         14    1    1    2    0    0  0.93644863850E-02 -0.11402733455E-01  0.37188574897E-02  0.15216630262E-01  0.00000000000E+00 0. -1.
     999901    1    3    3    0    0  0.56779366211E-01  0.12406727005E+00 -0.12405736769E-01  0.89060119371E+00  0.88000000000E+00 0. -1.
        -11    1    4    4    0    0 -0.70538572339E-01 -0.88213009314E-01  0.58220093967E-02  0.11309899254E+00  0.51100000000E-03 0. -1.
         11    1    4    4    0    0  0.43947197433E-02 -0.24451527277E-01  0.28648698822E-02  0.25013183489E-01  0.51100000000E-03 0.  1.
</event>
<event>
 8    1  0.2877139E+004  0.1043930E+01  0.7957747E-01            NaN
         13   -1    0    0    0    0  0.00000000000E+00  0.00000000000E+00  0.74505805969E-08  0.10566000000E+00  0.10566000000E+00 0. -1.
     999900   -1    0    0    0    0 -0.00000000000E+00 -0.00000000000E+00 -0.74505805969E-08  0.93827000000E+00  0.93827000000E+00 0. -1.
     999902    2    1    2    0    0 -0.33193987330E-02 -0.13929295657E-01  0.39180375713E-03  0.10296052942E+01  0.10295056409E+01 0.  0.
     999903    2    3    3    0    0  0.31786758797E-01  0.76679429759E-01  0.10140245629E+00  0.13851296716E+00  0.44869265079E-01 0.  0.
         14    1    1    2    0    0  0.33193987330E-02  0.13929295657E-01 -0.39180375713E-03  0.14324705778E-01  0.00000000000E+00 0. -1.
     999901    1    3    3    0    0 -0.35106157530E-01 -0.90608725416E-01 -0.10101065253E+00  0.89109232706E+00  0.88000000000E+00 0. -1.
        -11    1    4    4    0    0  0.73029977706E-02  0.18749685985E-02  0.34172917794E-01  0.34998553045E-01  0.51100000000E-03 0.  1.
         11    1    4    4    0    0  0.24483761027E-01  0.74804461161E-01  0.67229538491E-01  0.10351441412E+00  0.51100000000E-03 0. -1.
</event>
<event>
 8    1  0.2877139E+004  0.1043930E+01  0.7957747E-01            NaN
         13   -1    0    0    0    0  0.00000000000E+00  0.00000000000E+00  0.74505805969E-08  0.10566000000E+00  0.10566000000E+00 0. -1.
     999900   -1    0    0    0    0 -0.00000000000E+00 -0.00000000000E+00 -0.74505805969E-08  0.93827000000E+00  0.93827000000E+00 0. -1.
     999902    2    1    2    0    0 -0.12481950092E-01 -0.15651032037E-02  0.14807277542E-02  0.10312634622E+01  0.10311856706E+01 0.  0.
     999903    2    3    3    0    0 -0.35935242332E-01  0.51576316923E-01  0.11877388806E+00  0.14158275938E+00  0.44575589281E-01 0.  0.
         14    1    1    2    0    0  0.12481950092E-01  0.15651032037E-02 -0.14807277542E-02  0.12666537839E-01  0.00000000000E+00 0.  1.
     999901    1    3    3    0    0  0.23453292240E-01 -0.53141420126E-01 -0.11729316031E+00  0.88968070278E+00  0.88000000000E+00 0. -1.
        -11    1    4    4    0    0 -0.18997990976E-02  0.21519194384E-01  0.76668892091E-01  0.79655916911E-01  0.51100000000E-03 0.  1.
         11    1    4    4    0    0 -0.34035443234E-01  0.30057122539E-01  0.42104995969E-01  0.61926842467E-01  0.51100000000E-03 0. -1.
</event>
<event>
 8    1  0.2877139E+004  0.1043930E+01  0.7957747E-01            NaN
         13   -1    0    0    0    0  0.00000000000E+00  0.00000000000E+00  0.74505805969E-08  0.10566000000E+00  0.10566000000E+00 0. -1.
     999900   -1    0    0    0    0 -0.00000000000E+00 -0.00000000000E+00 -0.74505805969E-08  0.93827000000E+00  0.93827000000E+00 0. -1.
     999902    2    1    2    0    0 -0.81282257203E-03 -0.94706394145E-02  0.98970802438E-02  0.10302075407E+01  0.10301161445E+01 0.  0.
     999903    2    3    3    0    0 -0.56296738452E-01 -0.64926735812E-01  0.10349057758E+00  0.14177432078E+00  0.44775602738E-01 0.  0.
         14    1    1    2    0    0  0.81282257203E-03  0.94706394145E-02 -0.98970802438E-02  0.13722459284E-01  0.00000000000E+00 0.  1.
     999901    1    3    3    0    0  0.55483915880E-01  0.55456096397E-01 -0.93593497334E-01  0.88843321994E+00  0.88000000000E+00 0. -1.
        -11    1    4    4    0    0 -0.49603656441E-01 -0.56722096414E-01  0.10676558585E+00  0.13067926536E+00  0.51100000000E-03 0.  1.
         11    1    4    4    0    0 -0.66930820112E-02 -0.82046393973E-02 -0.32750082679E-02  0.11095055412E-01  0.51100000000E-03 0. -1.
</event>
<event>
 8    1  0.2877139E+004  0.1043930E+01  0.7957747E-01            NaN
         13   -1    0    0    0    0  0.00000000000E+00  0.00000000000E+00  0.74505805969E-08  0.10566000000E+00  0.10566000000E+00 0.  1.
     999900   -1    0    0    0    0 -0.00000000000E+00 -0.00000000000E+00 -0.74505805969E-08  0.93827000000E+00  0.93827000000E+00 0.  1.
     999902    2    1    2    0    0 -0.76909354997E-02  0.10071429299E-01  0.39124831175E-02  0.10306675831E+01  0.10305822506E+01 0.  0.
     999903    2    3    3    0    0 -0.10771675815E+00  0.64631357710E-01 -0.44876852002E-01  0.14198183991E+00  0.48629195272E-01 0.  0.
         14    1    1    2    0    0  0.76909354997E-02 -0.10071429299E-01 -0.39124831175E-02  0.13262416866E-01  0.00000000000E+00 0. -1.
     999901    1    3    3    0    0  0.10002582265E+00 -0.54559928412E-01  0.48789335120E-01  0.88868574322E+00  0.88000000000E+00 0.  1.
        -11    1    4    4    0    0 -0.50015815614E-01  0.57704174353E-01 -0.29496105341E-01  0.81863513854E-01  0.51100000000E-03 0.  1.
         11    1    4    4    0    0 -0.57700942538E-01  0.69271833571E-02 -0.15380746661E-01  0.60118326057E-01  0.51100000000E-03 0. -1.
</event>
<event>
 8    1  0.2877139E+004  0.1043930E+01  0.7957747E-01            NaN
         13   -1    0    0    0    0  0.00000000000E+00  0.00000000000E+00  0.74505805969E-08  0.10566000000E+00  0.10566000000E+00 0.  1.
     999900   -1    0    0    0    0 -0.00000000000E+00 -0.00000000000E+00 -0.74505805969E-08  0.93827000000E+00  0.93827000000E+00 0. -1.
     999902    2    1    2    0    0  0.54370255778E-02 -0.93159829769E-02 -0.10964298980E-01  0.10285493421E+01  0.10284343365E+01 0.  0.
     999903    2    3    3    0    0 -0.79969208949E-01  0.82263769372E-01  0.54742051176E-01  0.13725904123E+00  0.51777892013E-01 0.  0.
         14    1    1    2    0    0 -0.54370255778E-02  0.93159829769E-02  0.10964298980E-01  0.15380657921E-01  0.00000000000E+00 0.  1.
     999901    1    3    3    0    0  0.85406234526E-01 -0.91579752349E-01 -0.65706350156E-01  0.89129030085E+00  0.88000000000E+00 0. -1.
        -11    1    4    4    0    0 -0.83319981857E-01  0.58410678769E-01  0.43254744079E-01  0.11056790121E+00  0.51100000000E-03 0.  1.
         11    1    4    4    0    0  0.33507729088E-02  0.23853090603E-01  0.11487307097E-01  0.26691140023E-01  0.51100000000E-03 0. -1.
</event>
<event>
 8    1  0.2877139E+004  0.1043930E+01  0.7957747E-01            NaN
         13   -1    0    0    0    0  0.00000000000E+00  0.00000000000E+00  0.74505805969E-08  0.10566000000E+00  0.10566000000E+00 0.  1.
     999900   -1    0    0    0    0 -0.00000000000E+00 -0.00000000000E+00 -0.74505805969E-08  0.93827000000E+00  0.93827000000E+00 0.  1.
     999902    2    1    2    0    0  0.86085420023E-02  0.72501819002E-02 -0.22309283447E-03  0.10326729176E+01  0.10326115595E+01 0.  0.
     999903    2    3    3    0    0 -0.88288056561E-01 -0.92709811654E-01  0.38229189523E-01  0.14089966779E+00  0.44736510174E-01 0.  0.
         14    1    1    2    0    0 -0.86085420023E-02 -0.72501819002E-02  0.22309283447E-03  0.11257082366E-01  0.00000000000E+00 0.  1.
     999901    1    3    3    0    0  0.96896598563E-01  0.99959993554E-01 -0.38452282358E-01  0.89177324985E+00  0.88000000000E+00 0.  1.
        -11    1    4    4    0    0 -0.38058976193E-01 -0.60270155360E-01  0.38682039019E-01  0.81102025620E-01  0.51100000000E-03 0. -1.
         11    1    4    4    0    0 -0.50229080368E-01 -0.32439656294E-01 -0.45284949510E-03  0.59797642167E-01  0.51100000000E-03 0.  1.
</event>
<event>
 8    1  0.2877139E+004  0.1043930E+01  0.7957747E-01            NaN
         13   -1    0    0    0    0  0.00000000000E+00  0.00000000000E+00  0.74505805969E-08  0.10566000000E+00  0.10566000000E+00 0. -1.
     999900   -1    0    0    0    0 -0.00000000000E+00 -0.00000000000E+00 -0.74505805969E-08  0.93827000000E+00  0.93827000000E+00 0. -1.
     999902    2    1    2    0    0  0.88376357709E-03  0.13516233233E-01 -0.12290383948E-03  0.10303843474E+01  0.10302953065E+01 0.  0.
     999903    2    3    3    0    0  0.24781387739E-01  0.12923739186E+00  0.31524001257E-01  0.14192275026E+00  0.42800511131E-01 0.  0.
         14    1    1    2    0    0 -0.88376357709E-03 -0.13516233233E-01  0.12290383948E-03  0.13545652595E-01  0.00000000000E+00 0. -1.
     999901    1    3    3    0    0 -0.23897624162E-01 -0.11572115863E+00 -0.31646905097E-01  0.88846159714E+00  0.88000000000E+00 0. -1.
        -11    1    4    4    0    0  0.13217473412E-02  0.64581609714E-01 -0.35882585249E-02  0.64696739095E-01  0.51100000000E-03 0. -1.
         11    1    4    4    0    0  0.23459640397E-01  0.64655782149E-01  0.35112259782E-01  0.77226011168E-01  0.51100000000E-03 0.  1.
</event>
<event>
 8    1  0.2877139E+004  0.1043930E+01  0.7957747E-01            NaN
         13   -1    0    0    0    0  0.00000000000E+00  0.00000000000E+00  0.74505805969E-08  0.10566000000E+00  0.10566000000E+00 0. -1.
     999900   -1    0    0    0    0 -0.00000000000E+00 -0.00000000000E+00 -0.74505805969E-08  0.93827000000E+00  0.93827000000E+00 0.  1.
     999902    2    1    2    0    0  0.80412947567E-02 -0.11425674187E-01  0.44400723577E-02  0.10292697580E+01  0.10291653473E+01 0.  0.
     999903    2    3    3    0    0 -0.63588661000E-01 -0.99223158495E-01 -0.60036756510E-01  0.13966506477E+00  0.44868309481E-01 0.  0.
         14    1    1    2    0    0 -0.80412947567E-02  0.11425674187E-01 -0.44400723577E-02  0.14660241967E-01  0.00000000000E+00 0. -1.
     999901    1    3    3    0    0  0.71629955756E-01  0.87797484308E-01  0.64476828868E-01  0.88960469326E+00  0.88000000000E+00 0. -1.
        -11    1    4    4    0    0 -0.39752931698E-01 -0.46195464829E-01 -0.53610008420E-01  0.81170257319E-01  0.51100000000E-03 0.  1.
         11    1    4    4    0    0 -0.23835729302E-01 -0.53027693666E-01 -0.64267480903E-02  0.58494807453E-01  0.51100000000E-03 0. -1.
</event>
<event>
 7    1  0.2877139E+004  0.1043930E+01  0.7957747E-01            NaN
         13   -1    0    0    0    0  0.00000000000E+00  0.00000000000E+00  0.74505805969E-08  0.10566000000E+00  0.10566000000E+00 0. -1.
     999900   -1    0    0    0    0 -0.00000000000E+00 -0.00000000000E+00 -0.74505805969E-08  0.93827000000E+00  0.93827000000E+00 0.  1.
     999903    2    1    2    0    0 -0.73187083789E-01  0.43705597543E-01  0.31992667521E-01  0.10181108151E+00  0.45556964918E-01 0.  0.
         14    1    1    2    0    0 -0.11428552644E-02  0.38602955214E-01  0.35681450223E-01  0.52580035750E-01  0.00000000000E+00 0. -1.
     999901    1    1    2    0    0  0.74329939054E-01 -0.82308552758E-01 -0.67674117744E-01  0.88953888274E+00  0.88000000000E+00 0.  1.
        -11    1    3    3    0    0 -0.31536575138E-01  0.21977942584E-01  0.38471357329E-01  0.54386505563E-01  0.51100000000E-03 0.  1.
         11    1    3    3    0    0 -0.41650508652E-01  0.21727654959E-01 -0.64786898074E-02  0.47424575945E-01  0.51100000000E-03 0. -1.
</event>
<event>
 8    1  0.2877139E+004  0.1043930E+01  0.7957747E-01            NaN
         13   -1    0    0    0    0  0.00000000000E+00  0.00000000000E+00  0.74505805969E-08  0.10566000000E+00  0.10566000000E+00 0.  1.
     999900   -1    0    0    0    0 -0.00000000000E+00 -0.00000000000E+00 -0.74505805969E-08  0.93827000000E+00  0.93827000000E+00 0.  1.
     999902    2    1    2    0    0  0.10269537603E-01 -0.93056657192E-02 -0.18227630090E-02  0.10299521145E+01  0.10298572605E+01 0.  0.
     999903    2    3    3    0    0 -0.11794831836E+00  0.45932190567E-01  0.38206512580E-01  0.13804775741E+00  0.39697276823E-01 0.  0.
         14    1    1    2    0    0 -0.10269537603E-01  0.93056657192E-02  0.18227630090E-02  0.13977885464E-01  0.00000000000E+00 0.  1.
     999901    1    3    3    0    0  0.12821785597E+00 -0.55237856286E-01 -0.40029275589E-01  0.89190435713E+00  0.88000000000E+00 0.  1.
        -11    1    4    4    0    0 -0.48932419189E-01 -0.14025585896E-02  0.13280578399E-01  0.50724586759E-01  0.51100000000E-03 0.  1.
         11    1    4    4    0    0 -0.69015899175E-01  0.47334749156E-01  0.24925934180E-01  0.87323170650E-01  0.51100000000E-03 0. -1.
</event>
<event>
 8    1  0.2877139E+004  0.1043930E+01  0.7957747E-01            NaN
         13   -1    0    0    0    0  0.00000000000E+00  0.00000000000E+00  0.74505805969E-08  0.10566000000E+00  0.10566000000E+00 0. -1.
     999900   -1    0    0    0    0 -0.00000000000E+00 -0.00000000000E+00 -0.74505805969E-08  0.93827000000E+00  0.93827000000E+00 0.  1.
     999902    2    1    2    0    0  0.84557706742E-02  0.11176193651E-02  0.98783238860E-02  0.10308789306E+01  0.10307963131E+01 0.  0.
     999903    2    3    3    0    0  0.12848501086E+00 -0.36375358238E-01 -0.16985186650E-01  0.14153400868E+00  0.43724299273E-01 0.  0.
         14    1    1    2    0    0 -0.84557706742E-02 -0.11176193651E-02 -0.98783238860E-02  0.13051069440E-01  0.00000000000E+00 0.  1.
     999901    1    3    3    0    0 -0.12002924018E+00  0.37492977603E-01  0.26863510536E-01  0.88934492188E+00  0.88000000000E+00 0. -1.
        -11    1    4    4    0    0  0.57319298850E-01 -0.28476011431E-01  0.10451789798E-01  0.64852804709E-01  0.51100000000E-03 0. -1.
         11    1    4    4    0    0  0.71165712006E-01 -0.78993468066E-02 -0.27436976448E-01  0.76681203974E-01  0.51100000000E-03 0.  1.
</event>
<event>
 8    1  0.2877139E+004  0.1043930E+01  0.7957747E-01            NaN
         13   -1    0    0    0    0  0.00000000000E+00  0.00000000000E+00  0.74505805969E-08  0.10566000000E+00  0.10566000000E+00 0.  1.
     999900   -1    0    0    0    0 -0.00000000000E+00 -0.00000000000E+00 -0.74505805969E-08  0.93827000000E+00  0.93827000000E+00 0.  1.
     999902    2    1    2    0    0 -0.80698830378E-02 -0.11183759007E-01 -0.28281464787E-02  0.10298517228E+01  0.10297554918E+01 0.  0.
     999903    2    3    3    0    0  0.92176222338E-01  0.63149007774E-01  0.66614194857E-01  0.13833790871E+00  0.47070934576E-01 0.  0.
         14    1    1    2    0    0  0.80698830378E-02  0.11183759007E-01  0.28281464787E-02  0.14078277248E-01  0.00000000000E+00 0.  1.
     999901    1    3    3    0    0 -0.10024610538E+00 -0.74332766781E-01 -0.69442341336E-01  0.89151381404E+00  0.88000000000E+00 0. -1.
        -11    1    4    4    0    0  0.38135526717E-01  0.32132214715E-01  0.40455215428E-02  0.50034238137E-01  0.51100000000E-03 0. -1.
         11    1    4    4    0    0  0.54040695622E-01  0.31016793059E-01  0.62568673314E-01  0.88303670571E-01  0.51100000000E-03 0.  1.
</event>
<event>
 8    1  0.2877139E+004  0.1043930E+01  0.7957747E-01            NaN
         13   -1    0    0    0    0  0.00000000000E+00  0.00000000000E+00  0.74505805969E-08  0.10566000000E+00  0.10566000000E+00 0.  1.
     999900   -1    0    0    0    0 -0.00000000000E+00 -0.00000000000E+00 -0.74505805969E-08  0.93827000000E+00  0.93827000000E+00 0.  1.
     999902    2    1    2    0    0 -0.49538178228E-02  0.22987757429E-02  0.12075448654E-01  0.10306770327E+01  0.10305918225E+01 0.  0.
     999903    2    3    3    0    0 -0.11378053877E+00 -0.24827174886E-01 -0.63536065882E-01  0.14034216680E+00  0.45789654907E-01 0.  0.
         14    1    1    2    0    0  0.49538178228E-02 -0.22987757429E-02 -0.12075448654E-01  0.13252967258E-01  0.00000000000E+00 0. -1.
     999901    1    3    3    0    0  0.10882672095E+00  0.27125950629E-01  0.75611514536E-01  0.89033486595E+00  0.88000000000E+00 0. -1.
        -11    1    4    4    0    0 -0.95680887748E-01 -0.15940457903E-01 -0.69476555085E-01  0.11931547806E+00  0.51100000000E-03 0. -1.
         11    1    4    4    0    0 -0.18099651027E-01 -0.88867169828E-02  0.59404892026E-02  0.21026688731E-01  0.51100000000E-03 0.  1.
</event>
<event>
 8    1  0.2877139E+004  0.1043930E+01  0.7957747E-01            NaN
         13   -1    0    0    0    0  0.00000000000E+00  0.00000000000E+00  0.74505805969E-08  0.10566000000E+00  0.10566000000E+00 0.  1.
     999900   -1    0    0    0    0 -0.00000000000E+00 -0.00000000000E+00 -0.74505805969E-08  0.93827000000E+00  0.93827000000E+00 0. -1.
     999902    2    1    2    0    0  0.80069336453E-02  0.81113103154E-02  0.40552841310E-03  0.10325252293E+01  0.10324622416E+01 0.  0.
     999903    2    3    3    0    0  0.21284034022E-01 -0.11603871754E+00 -0.63559577475E-01  0.14141297735E+00  0.45164324407E-01 0.  0.
         14    1    1    2    0    0 -0.80069336453E-02 -0.81113103154E-02 -0.40552841310E-03  0.11404770700E-01  0.00000000000E+00 0. -1.
     999901    1    3    3    0    0 -0.13277100377E-01  0.12415002786E+00  0.63965105888E-01  0.89111225195E+00  0.88000000000E+00 0.  1.
        -11    1    4    4    0    0 -0.46294959009E-03 -0.90821878346E-01 -0.57688050204E-01  0.10759646911E+00  0.51100000000E-03 0. -1.
         11    1    4    4    0    0  0.21746983613E-01 -0.25216839198E-01 -0.58715272715E-02  0.33816508230E-01  0.51100000000E-03 0.  1.
</event>
<event>
 8    1  0.2877139E+004  0.1043930E+01  0.7957747E-01            NaN
         13   -1    0    0    0    0  0.00000000000E+00  0.00000000000E+00  0.74505805969E-08  0.10566000000E+00  0.10566000000E+00 0.  1.
     999900   -1    0    0    0    0 -0.00000000000E+00 -0.00000000000E+00 -0.74505805969E-08  0.93827000000E+00  0.93827000000E+00 0.  1.
     999902    2    1    2    0    0 -0.50852670664E-02  0.81361776294E-02 -0.40888685368E-02  0.10335004183E+01  0.10334477919E+01 0.  0.
     999903    2    3    3    0    0 -0.10828404655E+00 -0.54468390590E-01  0.55524396828E-01  0.14326277510E+00  0.52431133639E-01 0.  0.
         14    1    1    2    0    0  0.50852670664E-02 -0.81361776294E-02  0.40888685368E-02  0.10429581653E-01  0.00000000000E+00 0.  1.
     999901    1    3    3    0    0  0.10319877949E+00  0.62604568220E-01 -0.59613265364E-01  0.89023764325E+00  0.88000000000E+00 0.  1.
        -11    1    4    4    0    0 -0.18317225330E-01 -0.31239162188E-01  0.25560686521E-02  0.36307032458E-01  0.51100000000E-03 0.  1.
         11    1    4    4    0    0 -0.89966821222E-01 -0.23229228403E-01  0.52968328175E-01  0.10695574264E+00  0.51100000000E-03 0. -1.
</event>
<event>
 8    1  0.2877139E+004  0.1043930E+01  0.7957747E-01            NaN
         13   -1    0    0    0    0  0.00000000000E+00  0.00000000000E+00  0.74505805969E-08  0.10566000000E+00  0.10566000000E+00 0.  1.
     999900   -1    0    0    0    0 -0.00000000000E+00 -0.00000000000E+00 -0.74505805969E-08  0.93827000000E+00  0.93827000000E+00 0.  1.
     999902    2    1    2    0    0  0.27753701691E-02 -0.92888130715E-02 -0.95103390123E-02  0.10303494523E+01  0.10302599490E+01 0.  0.
     999903    2    3    3    0    0  0.11283371293E+00 -0.46160522445E-01  0.50904535030E-01  0.14067405151E+00  0.48328836874E-01 0.  0.
         14    1    1    2    0    0 -0.27753701691E-02  0.92888130715E-02  0.95103390123E-02  0.13580547705E-01  0.00000000000E+00 0.  1.
     999901    1    3    3    0    0 -0.11005834276E+00  0.36871709373E-01 -0.60414874042E-01  0.88967540079E+00  0.88000000000E+00 0.  1.
        -11    1    4    4    0    0  0.62982790856E-01 -0.15772981848E-01  0.27417905735E-02  0.64987671423E-01  0.51100000000E-03 0. -1.
         11    1    4    4    0    0  0.49850922077E-01 -0.30387540597E-01  0.48162744456E-01  0.75686380083E-01  0.51100000000E-03 0.  1.
</event>
<event>
 8    1  0.2877139E+004  0.1043930E+01  0.7957747E-01            NaN
         13   -1    0    0    0    0  0.00000000000E+00  0.00000000000E+00  0.74505805969E-08  0.10566000000E+00  0.10566000000E+00 0.  1.
     999900   -1    0    0    0    0 -0.00000000000E+00 -0.00000000000E+00 -0.74505805969E-08  0.93827000000E+00  0.93827000000E+00 0. -1.
     999902    2    1    2    0    0 -0.36143927527E-02  0.49963659071E-02  0.11061849923E-01  0.10312654025E+01  0.10311876349E+01 0.  0.
     999903    2    3    3    0    0 -0.12801497907E-01  0.72885004328E-02 -0.13123589363E+00  0.13978444102E+00  0.45823897556E-01 0.  0.
         14    1    1    2    0    0  0.36143927527E-02 -0.49963659071E-02 -0.11061849923E-01  0.12664597545E-01  0.00000000000E+00 0. -1.
     999901    1    3    3    0    0  0.91871051546E-02 -0.22921345257E-02  0.14229774355E+00  0.89148096144E+00  0.88000000000E+00 0.  1.
        -11    1    4    4    0    0 -0.21697568104E-01 -0.10159167665E-01 -0.10063928305E+00  0.10345298238E+00  0.51100000000E-03 0. -1.
         11    1    4    4    0    0  0.88960701971E-02  0.17447668098E-01 -0.30596610580E-01  0.36331458641E-01  0.51100000000E-03 0.  1.
</event>
<event>
 8    1  0.2877139E+004  0.1043930E+01  0.7957747E-01            NaN
         13   -1    0    0    0    0  0.00000000000E+00  0.00000000000E+00  0.74505805969E-08  0.10566000000E+00  0.10566000000E+00 0.  1.
     999900   -1    0    0    0    0 -0.00000000000E+00 -0.00000000000E+00 -0.74505805969E-08  0.93827000000E+00  0.93827000000E+00 0.  1.
     999902    2    1    2    0    0  0.42240950232E-02 -0.58777811491E-02  0.15030690583E-01  0.10272472859E+01  0.10271118116E+01 0.  0.
     999903    2    3    3    0    0  0.11662257280E+00 -0.58173187823E-01 -0.87050648782E-02  0.13824131661E+00  0.45276254206E-01 0.  0.
         14    1    1    2    0    0 -0.42240950232E-02  0.58777811491E-02 -0.15030690583E-01  0.16682714089E-01  0.00000000000E+00 0. -1.
     999901    1    3    3    0    0 -0.11239847778E+00  0.52295406674E-01  0.23735755461E-01  0.88900596930E+00  0.88000000000E+00 0.  1.
        -11    1    4    4    0    0  0.64121487935E-01 -0.32970674227E-01  0.17779418844E-01  0.74263042150E-01  0.51100000000E-03 0. -1.
         11    1    4    4    0    0  0.52501084867E-01 -0.25202513596E-01 -0.26484483722E-01  0.63978274459E-01  0.51100000000E-03 0.  1.
</event>
<event>
 8    1  0.2877139E+004  0.1043930E+01  0.7957747E-01            NaN
         13   -1    0    0    0    0  0.00000000000E+00  0.00000000000E+00  0.74505805969E-08  0.10566000000E+00  0.10566000000E+00 0. -1.
     999900   -1    0    0    0    0 -0.00000000000E+00 -0.00000000000E+00 -0.74505805969E-08  0.93827000000E+00  0.93827000000E+00 0. -1.
     999902    2    1    2    0    0 -0.42244660014E-02 -0.46311530534E-02 -0.12680360969E-01  0.10297848508E+01  0.10296876972E+01 0.  0.
     999903    2    3    3    0    0  0.55688905637E-01 -0.10391622714E+00  0.58701165798E-01  0.13931168422E+00  0.45410153254E-01 0.  0.
         14    1    1    2    0    0  0.42244660014E-02  0.46311530534E-02  0.12680360969E-01  0.14145149201E-01  0.00000000000E+00 0.  1.
     999901    1    3    3    0    0 -0.59913371638E-01  0.99285074091E-01 -0.71381526767E-01  0.89047316658E+00  0.88000000000E+00 0.  1.
        -11    1    4    4    0    0  0.17465795654E-01 -0.78104585174E-01  0.33633484659E-01  0.86815048548E-01  0.51100000000E-03 0. -1.
         11    1    4    4    0    0  0.38223109983E-01 -0.25811641970E-01  0.25067681140E-01  0.52496635670E-01  0.51100000000E-03 0.  1.
</event>
<event>
 8    1  0.2877139E+004  0.1043930E+01  0.7957747E-01            NaN
         13   -1    0    0    0    0  0.00000000000E+00  0.00000000000E+00  0.74505805969E-08  0.10566000000E+00  0.10566000000E+00 0.  1.
     999900   -1    0    0    0    0 -0.00000000000E+00 -0.00000000000E+00 -0.74505805969E-08  0.93827000000E+00  0.93827000000E+00 0.  1.
     999902    2    1    2    0    0  0.96866707805E-02  0.96177442819E-02 -0.51361502179E-03  0.10302699709E+01  0.10301794098E+01 0.  0.
     999903    2    3    3    0    0  0.55338987410E-01  0.11450286019E+00 -0.44096249635E-01  0.14179686063E+00  0.44593294724E-01 0.  0.
         14    1    1    2    0    0 -0.96866707805E-02 -0.96177442819E-02  0.51361502179E-03  0.13660029146E-01  0.00000000000E+00 0. -1.
     999901    1    3    3    0    0 -0.45652316629E-01 -0.10488511590E+00  0.43582634614E-01  0.88847311022E+00  0.88000000000E+00 0.  1.
        -11    1    4    4    0    0  0.46918989243E-01  0.94120975196E-01 -0.53289792429E-01  0.11789916294E+00  0.51100000000E-03 0. -1.
         11    1    4    4    0    0  0.84199981667E-02  0.20381884989E-01  0.91935427937E-02  0.23897697691E-01  0.51100000000E-03 0.  1.
</event>
<event>
 8    1  0.2877139E+004  0.1043930E+01  0.7957747E-01            NaN
         13   -1    0    0    0    0  0.00000000000E+00  0.00000000000E+00  0.74505805969E-08  0.10566000000E+00  0.10566000000E+00 0.  1.
     999900   -1    0    0    0    0 -0.00000000000E+00 -0.00000000000E+00 -0.74505805969E-08  0.93827000000E+00  0.93827000000E+00 0.  1.
     999902    2    1    2    0    0  0.90490711817E-02  0.11524338934E-01 -0.30427430016E-03  0.10292743301E+01  0.10291699850E+01 0.  0.
     999903    2    3    3    0    0 -0.38251824807E-02  0.11279260421E+00 -0.70078082217E-01  0.14062963608E+00  0.46140582482E-01 0.  0.
         14    1    1    2    0    0 -0.90490711817E-02 -0.11524338934E-01  0.30427430016E-03  0.14655669891E-01  0.00000000000E+00 0. -1.
     999901    1    3    3    0    0  0.12874253662E-01 -0.10126826527E+00  0.69773807917E-01  0.88864469403E+00  0.88000000000E+00 0. -1.
        -11    1    4    4    0    0 -0.97903931535E-02  0.69909541200E-01 -0.66829018761E-01  0.97208922525E-01  0.51100000000E-03 0. -1.
         11    1    4    4    0    0  0.59652106729E-02  0.42883063005E-01 -0.32490634556E-02  0.43420713552E-01  0.51100000000E-03 0.  1.
</event>
<event>
 8    1  0.2877139E+004  0.1043930E+01  0.7957747E-01            NaN
         13   -1    0    0    0    0  0.00000000000E+00  0.00000000000E+00  0.74505805969E-08  0.10566000000E+00  0.10566000000E+00 0. -1.
     999900   -1    0    0    0    0 -0.00000000000E+00 -0.00000000000E+00 -0.74505805969E-08  0.93827000000E+00  0.93827000000E+00 0. -1.
     999902    2    1    2    0    0  0.33916141241E-02  0.94061448786E-02 -0.94572602689E-02  0.10301670650E+01  0.10300751251E+01 0.  0.
     999903    2    3    3    0    0  0.62757909120E-01 -0.37386419313E-01 -0.11169035261E+00  0.14102955808E+00  0.45588396344E-01 0.  0.
         14    1    1    2    0    0 -0.33916141241E-02 -0.94061448786E-02  0.94572602689E-02  0.13762934994E-01  0.00000000000E+00 0. -1.
     999901    1    3    3    0    0 -0.59366294996E-01  0.46792564192E-01  0.10223309234E+00  0.88913750692E+00  0.88000000000E+00 0.  1.
        -11    1    4    4    0    0  0.61661562634E-01 -0.15726896612E-01 -0.74547073480E-01  0.98015360373E-01  0.51100000000E-03 0.  1.
         11    1    4    4    0    0  0.10963464856E-02 -0.21659522701E-01 -0.37143279130E-01  0.43014197712E-01  0.51100000000E-03 0. -1.
</event>
<event>
 8    1  0.2877139E+004  0.1043930E+01  0.7957747E-01            NaN
         13   -1    0    0    0    0  0.00000000000E+00  0.00000000000E+00  0.74505805969E-08  0.10566000000E+00  0.10566000000E+00 0. -1.
     999900   -1    0    0    0    0 -0.00000000000E+00 -0.00000000000E+00 -0.74505805969E-08  0.93827000000E+00  0.93827000000E+00 0.  1.
     999902    2    1    2    0    0 -0.48692669243E-02 -0.12509712334E-01  0.12137328119E-02  0.10304512831E+01  0.10303631258E+01 0.  0.
     999903    2    3    3    0    0 -0.18677367179E-01  0.85055367453E-01  0.99220508540E-01  0.13954447732E+00  0.45218273494E-01 0.  0.
         14    1    1    2    0    0  0.48692669243E-02  0.12509712334E-01 -0.12137328119E-02  0.13478716941E-01  0.00000000000E+00 0.  1.
     999901    1    3    3    0    0  0.13808100255E-01 -0.97565079786E-01 -0.98006775728E-01  0.89090680574E+00  0.88000000000E+00 0.  1.
        -11    1    4    4    0    0 -0.22145666624E-01  0.37065384893E-01  0.21754648710E-01  0.48350792848E-01  0.51100000000E-03 0. -1.
         11    1    4    4    0    0  0.34682994446E-02  0.47989982559E-01  0.77465859830E-01  0.91193684470E-01  0.51100000000E-03 0.  1.
</event>
<event>
 7    1  0.2877139E+004  0.1043930E+01  0.7957747E-01            NaN
         13   -1    0    0    0    0  0.00000000000E+00  0.00000000000E+00  0.74505805969E-08  0.10566000000E+00  0.10566000000E+00 0. -1.
     999900   -1    0    0    0    0 -0.00000000000E+00 -0.00000000000E+00 -0.74505805969E-08  0.93827000000E+00  0.93827000000E+00 0.  1.
     999902    2    1    2    0    0  0.10693312370E-01 -0.12642652119E-02  0.10967124603E-01  0.10285604483E+01  0.10284456100E+01 0.  0.
         14    1    1    2    0    0 -0.10693312370E-01  0.12642652119E-02 -0.10967124603E-01  0.15369551653E-01  0.00000000000E+00 0.  1.
     999901    1    3    3    0    0  0.89298169576E-01 -0.74720358087E-01  0.46818370385E-01  0.88890340016E+00  0.88000000000E+00 0. -1.
        -11    1    3    3    0    0  0.60530726506E-02  0.43933419625E-01 -0.19807492224E-01  0.48573479571E-01  0.51100000000E-03 0. -1.
         11    1    3    3    0    0 -0.84657929857E-01  0.29522673250E-01 -0.16043753559E-01  0.91083568621E-01  0.51100000000E-03 0.  1.
</event>
<event>
 8    1  0.2877139E+004  0.1043930E+01  0.7957747E-01            NaN
         13   -1    0    0    0    0  0.00000000000E+00  0.00000000000E+00  0.74505805969E-08  0.10566000000E+00  0.10566000000E+00 0.  1.
     999900   -1    0    0    0    0 -0.00000000000E+00 -0.00000000000E+00 -0.74505805969E-08  0.93827000000E+00  0.93827000000E+00 0.  1.
     999902    2    1    2    0    0  0.41934636630E-02  0.91130199635E-02  0.93731452867E-02  0.10302009023E+01  0.10301094170E+01 0.  0.
     999903    2    3    3    0    0  0.43331244099E-02 -0.91986661259E-01 -0.92623340989E-01  0.13855946752E+00  0.46252793724E-01 0.  0.
         14    1    1    2    0    0 -0.41934636630E-02 -0.91130199635E-02 -0.93731452867E-02  0.13729097673E-01  0.00000000000E+00 0. -1.
     999901    1    3    3    0    0 -0.13966074691E-03  0.10109968122E+00  0.10199648628E+00  0.89164143480E+00  0.88000000000E+00 0. -1.
        -11    1    4    4    0    0  0.49441345076E-02 -0.45110200492E-01 -0.14855576353E-01  0.47752737348E-01  0.51100000000E-03 0.  1.
         11    1    4    4    0    0 -0.61101009774E-03 -0.46876460767E-01 -0.77767764636E-01  0.90806730174E-01  0.51100000000E-03 0. -1.
</event>
<event>
 8    1  0.2877139E+004  0.1043930E+01  0.7957747E-01            NaN
         13   -1    0    0    0    0  0.00000000000E+00  0.00000000000E+00  0.74505805969E-08  0.10566000000E+00  0.10566000000E+00 0. -1.
     999900   -1    0    0    0    0 -0.00000000000E+00 -0.00000000000E+00 -0.74505805969E-08  0.93827000000E+00  0.93827000000E+00 0. -1.
     999902    2    1    2    0    0  0.15347072394E-01 -0.33254903489E-02 -0.39813857422E-02  0.10277299090E+01  0.10276022201E+01 0.  0.
     999903    2    3    3    0    0 -0.37265056133E-01 -0.31143241140E-01 -0.12154224689E+00  0.13791958120E+00  0.43482263300E-01 0.  0.
         14    1    1    2    0    0 -0.15347072394E-01  0.33254903489E-02  0.39813857422E-02  0.16200091035E-01  0.00000000000E+00 0.  1.
     999901    1    3    3    0    0  0.52612128527E-01  0.27817750791E-01  0.11756086115E+00  0.88981032777E+00  0.88000000000E+00 0.  1.
        -11    1    4    4    0    0 -0.24101765686E-01  0.51531004880E-02 -0.31903539268E-01  0.40318066579E-01  0.51100000000E-03 0.  1.
         11    1    4    4    0    0 -0.13163290447E-01 -0.36296341628E-01 -0.89638707621E-01  0.97601514619E-01  0.51100000000E-03 0. -1.
</event>
<event>
 7    1  0.2877139E+004  0.1043930E+01  0.7957747E-01            NaN
         13   -1    0    0    0    0  0.00000000000E+00  0.00000000000E+00  0.74505805969E-08  0.10566000000E+00  0.10566000000E+00 0.  1.
     999900   -1    0    0    0    0 -0.00000000000E+00 -0.00000000000E+00 -0.74505805969E-08  0.93827000000E+00  0.93827000000E+00 0.  1.
     999902    2    1    2    0    0 -0.99462945353E-02  0.59287296425E-02  0.54840666485E-02  0.10311177560E+01  0.10310381531E+01 0.  0.
         14    1    1    2    0    0  0.99462945353E-02 -0.59287296425E-02 -0.54840666485E-02  0.12812244033E-01  0.00000000000E+00 0. -1.
     999901    1    3    3    0    0 -0.87140029737E-01 -0.75262600027E-01 -0.76002709515E-01  0.89074926640E+00  0.88000000000E+00 0.  1.
        -11    1    3    3    0    0  0.18240301471E-01  0.24762063029E-01  0.34413138805E-01  0.46156187089E-01  0.51100000000E-03 0.  1.
         11    1    3    3    0    0  0.58953433730E-01  0.56429266641E-01  0.47073637359E-01  0.94212302474E-01  0.51100000000E-03 0. -1.
</event>
<event>
 8    1  0.2877139E+004  0.1043930E+01  0.7957747E-01            NaN
         13   -1    0    0    0    0  0.00000000000E+00  0.00000000000E+00  0.74505805969E-08  0.10566000000E+00  0.10566000000E+00 0.  1.
     999900   -1    0    0    0    0 -0.00000000000E+00 -0.00000000000E+00 -0.74505805969E-08  0.93827000000E+00  0.93827000000E+00 0.  1.
     999902    2    1    2    0    0  0.17140995428E-02 -0.14475889273E-01 -0.35270413424E-03  0.10293487138E+01  0.10292454327E+01 0.  0.
     999903    2    3    3    0    0 -0.23536442489E-01 -0.12526562785E+00  0.39060229922E-01  0.14116780011E+00  0.46445716492E-01 0.  0.
         14    1    1    2    0    0 -0.17140995428E-02  0.14475889273E-01  0.35270413424E-03  0.14581286216E-01  0.00000000000E+00 0.  1.
     999901    1    3    3    0    0  0.25250542032E-01  0.11078973858E+00 -0.39412934056E-01  0.88818091368E+00  0.88000000000E+00 0. -1.
        -11    1    4    4    0    0 -0.56426067021E-02 -0.45795017775E-01 -0.83801479892E-02  0.46898940976E-01  0.51100000000E-03 0. -1.
         11    1    4    4    0    0 -0.17893835787E-01 -0.79470610075E-01  0.47440377911E-01  0.94268859133E-01  0.51100000000E-03 0.  1.
</event>
<event>
 7    1  0.2877139E+004  0.1043930E+01  0.7957747E-01            NaN
         13   -1    0    0    0    0  0.00000000000E+00  0.00000000000E+00  0.74505805969E-08  0.10566000000E+00  0.10566000000E+00 0. -1.
     999900   -1    0    0    0    0 -0.00000000000E+00 -0.00000000000E+00 -0.74505805969E-08  0.93827000000E+00  0.93827000000E+00 0.  1.
     999902    2    1    2    0    0  0.33317023112E-02 -0.22478741168E-01 -0.77401422112E-03  0.10211925168E+01  0.10209393533E+01 0.  0.
         14    1    1    2    0    0 -0.33317023112E-02  0.22478741168E-01  0.77401422112E-03  0.22737483212E-01  0.00000000000E+00 0.  1.
     999901    1    3    3    0    0 -0.97358013702E-01  0.34111312693E-01  0.28738130773E-01  0.88649198792E+00  0.88000000000E+00 0. -1.
        -11    1    3    3    0    0  0.26749663915E-01  0.44721218641E-02 -0.27725796235E-01  0.38788210727E-01  0.51100000000E-03 0.  1.
         11    1    3    3    0    0  0.73940052097E-01 -0.61062175725E-01 -0.17863487591E-02  0.95912318141E-01  0.51100000000E-03 0. -1.
</event>
<event>
 8    1  0.2877139E+004  0.1043930E+01  0.7957747E-01            NaN
         13   -1    0    0    0    0  0.00000000000E+00  0.00000000000E+00  0.74505805969E-08  0.10566000000E+00  0.10566000000E+00 0.  1.
     999900   -1    0    0    0    0 -0.00000000000E+00 -0.00000000000E+00 -0.74505805969E-08  0.93827000000E+00  0.93827000000E+00 0. -1.
     999902    2    1    2    0    0 -0.30910860146E-02  0.20766723865E-02  0.14218436542E-01  0.10292319961E+01  0.10291270429E+01 0.  0.
     999903    2    3    3    0    0  0.98719545976E-01 -0.81983275968E-01  0.28933888300E-01  0.13926119645E+00  0.45713287444E-01 0.  0.
         14    1    1    2    0    0  0.30910860146E-02 -0.20766723865E-02 -0.14218436542E-01  0.14698003900E-01  0.00000000000E+00 0. -1.
     999901    1    3    3    0    0 -0.10181063199E+00  0.84059948355E-01 -0.14715451758E-01  0.88997079965E+00  0.88000000000E+00 0.  1.
        -11    1    4    4    0    0  0.11925826711E-01 -0.33008210932E-01  0.16645634413E-01  0.38847208364E-01  0.51100000000E-03 0.  1.
         11    1    4    4    0    0  0.86793719266E-01 -0.48975065037E-01  0.12288253888E-01  0.10041398809E+00  0.51100000000E-03 0. -1.
</event>
<event>
 8    1  0.2877139E+004  0.1043930E+01  0.7957747E-01            NaN
         13   -1    0    0    0    0  0.00000000000E+00  0.00000000000E+00  0.74505805969E-08  0.10566000000E+00  0.10566000000E+00 0.  1.
     999900   -1    0    0    0    0 -0.00000000000E+00 -0.00000000000E+00 -0.74505805969E-08  0.93827000000E+00  0.93827000000E+00 0.  1.
     999902    2    1    2    0    0 -0.11127427204E-01  0.17187021958E-02  0.55228987142E-02  0.10313890278E+01  0.10313127802E+01 0.  0.
     999903    2    3    3    0    0 -0.42949258590E-01 -0.12658031516E+00  0.13854993764E-01  0.14147740825E+00  0.44234389257E-01 0.  0.
         14    1    1    2    0    0  0.11127427204E-01 -0.17187021958E-02 -0.55228987142E-02  0.12540972196E-01  0.00000000000E+00 0.  1.
     999901    1    3    3    0    0  0.31821831386E-01  0.12829901736E+00 -0.83320950495E-02  0.88991161955E+00  0.88000000000E+00 0.  1.
        -11    1    4    4    0    0 -0.38401979874E-01 -0.55323036648E-01 -0.52808356986E-02  0.67553673393E-01  0.51100000000E-03 0. -1.
         11    1    4    4    0    0 -0.45472787154E-02 -0.71257278515E-01  0.19135829462E-01  0.73923734858E-01  0.51100000000E-03 0.  1.
</event>
<event>
 8    1  0.2877139E+004  0.1043930E+01  0.7957747E-01            NaN
         13   -1    0    0    0    0  0.00000000000E+00  0.00000000000E+00  0.74505805969E-08  0.10566000000E+00  0.10566000000E+00 0.  1.
     999900   -1    0    0    0    0 -0.00000000000E+00 -0.00000000000E+00 -0.74505805969E-08  0.93827000000E+00  0.93827000000E+00 0.  1.
     999902    2    1    2    0    0  0.69853910867E-02  0.84925066935E-02 -0.89631081292E-02  0.10297435393E+01  0.10296458135E+01 0.  0.
     999903    2    3    3    0    0  0.31801992406E-01 -0.11035489053E+00  0.62616050445E-01  0.13852855772E+00  0.45605075873E-01 0.  0.
         14    1    1    2    0    0 -0.69853910867E-02 -0.84925066935E-02  0.89631081292E-02  0.14186460655E-01  0.00000000000E+00 0. -1.
     999901    1    3    3    0    0 -0.24816601319E-01  0.11884739723E+00 -0.71579158574E-01  0.89121498162E+00  0.88000000000E+00 0. -1.
        -11    1    4    4    0    0  0.62007716870E-02 -0.69422379882E-01  0.56768934484E-01  0.89893767534E-01  0.51100000000E-03 0. -1.
         11    1    4    4    0    0  0.25601220719E-01 -0.40932510651E-01  0.58471159612E-02  0.48634790188E-01  0.51100000000E-03 0.  1.
</event>
<event>
 8    1  0.2877139E+004  0.1043930E+01  0.7957747E-01            NaN
         13   -1    0    0    0    0  0.00000000000E+00  0.00000000000E+00  0.74505805969E-08  0.10566000000E+00  0.10566000000E+00 0.  1.
     999900   -1    0    0    0    0 -0.00000000000E+00 -0.00000000000E+00 -0.74505805969E-08  0.93827000000E+00  0.93827000000E+00 0. -1.
     999902    2    1    2    0    0 -0.60548524132E-02 -0.12152357627E-01 -0.73869379454E-03  0.10303326950E+01  0.10302429693E+01 0.  0.
     999903    2    3    3    0    0 -0.97073367981E-01 -0.51668130553E-01 -0.77001446987E-01  0.14147844714E+00  0.44655276072E-01 0.  0.
         14    1    1    2    0    0  0.60548524132E-02  0.12152357627E-01  0.73869379454E-03  0.13597304959E-01  0.00000000000E+00 0. -1.
     999901    1    3    3    0    0  0.91018515568E-01  0.39515772926E-01  0.76262753193E-01  0.88885424790E+00  0.88000000000E+00 0.  1.
        -11    1    4    4    0    0 -0.41614709806E-01 -0.24273182025E-01 -0.80512559507E-02  0.48847264829E-01  0.51100000000E-03 0.  1.
         11    1    4    4    0    0 -0.55458658175E-01 -0.27394948527E-01 -0.68950191037E-01  0.92631182311E-01  0.51100000000E-03 0. -1.
</event>
<event>
 8    1  0.2877139E+004  0.1043930E+01  0.7957747E-01            NaN
         13   -1    0    0    0    0  0.00000000000E+00  0.00000000000E+00  0.74505805969E-08  0.10566000000E+00  0.10566000000E+00 0.  1.
     999900   -1    0    0    0    0 -0.00000000000E+00 -0.00000000000E+00 -0.74505805969E-08  0.93827000000E+00  0.93827000000E+00 0. -1.
     999902    2    1    2    0    0 -0.11888770107E-01 -0.44208206403E-02  0.50615289027E-02  0.10302732953E+01  0.10301827786E+01 0.  0.
     999903    2    3    3    0    0 -0.77711970191E-01 -0.13830201556E-01 -0.11058849753E+00  0.14021927513E+00  0.34658397933E-01 0.  0.
         14    1    1    2    0    0  0.11888770107E-01  0.44208206403E-02 -0.50615289027E-02  0.13656704750E-01  0.00000000000E+00 0.  1.
     999901    1    3    3    0    0  0.65823200084E-01  0.94093809156E-02  0.11565002643E+00  0.89005402012E+00  0.88000000000E+00 0.  1.
        -11    1    4    4    0    0 -0.61798264723E-02 -0.10180452821E-01 -0.57142771508E-02  0.13219151229E-01  0.51100000000E-03 0.  1.
         11    1    4    4    0    0 -0.71532143718E-01 -0.36497487349E-02 -0.10487422037E+00  0.12700012390E+00  0.51100000000E-03 0. -1.
</event>
<event>
 8    1  0.2877139E+004  0.1043930E+01  0.7957747E-01            NaN
         13   -1    0    0    0    0  0.00000000000E+00  0.00000000000E+00  0.74505805969E-08  0.10566000000E+00  0.10566000000E+00 0. -1.
     999900   -1    0    0    0    0 -0.00000000000E+00 -0.00000000000E+00 -0.74505805969E-08  0.93827000000E+00  0.93827000000E+00 0. -1.
     999902    2    1    2    0    0 -0.13620733629E-01  0.14825026691E-03 -0.77100789710E-02  0.10282777899E+01  0.10281586558E+01 0.  0.
     999903    2    3    3    0    0  0.43524228813E-01 -0.10541615406E+00 -0.64084785056E-01  0.13834099571E+00  0.44993859457E-01 0.  0.
         14    1    1    2    0    0  0.13620733629E-01 -0.14825026691E-03  0.77100789710E-02  0.15652210083E-01  0.00000000000E+00 0.  1.
     999901    1    3    3    0    0 -0.57144962442E-01  0.10556440433E+00  0.56374706085E-01  0.88993679420E+00  0.88000000000E+00 0.  1.
        -11    1    4    4    0    0  0.36099303824E-01 -0.71024615184E-01 -0.20394239631E-01  0.82242579178E-01  0.51100000000E-03 0. -1.
         11    1    4    4    0    0  0.74249249886E-02 -0.34391538874E-01 -0.43690545424E-01  0.56098416535E-01  0.51100000000E-03 0.  1.
</event>
<event>
 8    1  0.2877139E+004  0.1043930E+01  0.7957747E-01            NaN
         13   -1    0    0    0    0  0.00000000000E+00  0.00000000000E+00  0.74505805969E-08  0.10566000000E+00  0.10566000000E+00 0.  1.
     999900   -1    0    0    0    0 -0.00000000000E+00 -0.00000000000E+00 -0.74505805969E-08  0.93827000000E+00  0.93827000000E+00 0.  1.
     999902    2    1    2    0    0 -0.41693080846E-02 -0.13109385318E-01  0.42182173594E-02  0.10295413770E+01  0.10294408261E+01 0.  0.
     999903    2    3    3    0    0 -0.95286715356E-01 -0.60297468071E-01  0.71940926981E-01  0.14099455077E+00  0.44593986051E-01 0.  0.
         14    1    1    2    0    0  0.41693080846E-02  0.13109385318E-01 -0.42182173594E-02  0.14388622971E-01  0.00000000000E+00 0.  1.
     999901    1    3    3    0    0  0.91117407272E-01  0.47188082753E-01 -0.67722709621E-01  0.88854682626E+00  0.88000000000E+00 0.  1.
        -11    1    4    4    0    0 -0.73221185209E-01 -0.64855998638E-01  0.51386982149E-01  0.11049219691E+00  0.51100000000E-03 0.  1.
         11    1    4    4    0    0 -0.22065530147E-01  0.45585305673E-02  0.20553944832E-01  0.30502353856E-01  0.51100000000E-03 0. -1.
</event>
<event>
 8    1  0.2877139E+004  0.1043930E+01  0.7957747E-01            NaN
         13   -1    0    0    0    0  0.00000000000E+00  0.00000000000E+00  0.74505805969E-08  0.10566000000E+00  0.10566000000E+00 0.  1.
     999900   -1    0    0    0    0 -0.00000000000E+00 -0.00000000000E+00 -0.74505805969E-08  0.93827000000E+00  0.93827000000E+00 0. -1.
     999902    2    1    2    0    0  0.94788064809E-02 -0.64724083407E-02 -0.65487502424E-02  0.10307153879E+01  0.10306306734E+01 0.  0.
     999903    2    3    3    0    0  0.16352431197E-02  0.75649284258E-01 -0.11012953843E+00  0.14080838518E+00  0.44418440706E-01 0.  0.
         14    1    1    2    0    0 -0.94788064809E-02  0.64724083407E-02  0.65487502424E-02  0.13214612055E-01  0.00000000000E+00 0.  1.
     999901    1    3    3    0    0  0.78435633612E-02 -0.82121692599E-01  0.10358078819E+00  0.88990700276E+00  0.88000000000E+00 0.  1.
        -11    1    4    4    0    0  0.28367567472E-03  0.31109312919E-01 -0.82990417590E-01  0.88631486250E-01  0.51100000000E-03 0. -1.
         11    1    4    4    0    0  0.13515674450E-02  0.44539971339E-01 -0.27139120839E-01  0.52176898934E-01  0.51100000000E-03 0.  1.
</event>
<event>
 8    1  0.2877139E+004  0.1043930E+01  0.7957747E-01            NaN
         13   -1    0    0    0    0  0.00000000000E+00  0.00000000000E+00  0.74505805969E-08  0.10566000000E+00  0.10566000000E+00 0.  1.
     999900   -1    0    0    0    0 -0.00000000000E+00 -0.00000000000E+00 -0.74505805969E-08  0.93827000000E+00  0.93827000000E+00 0.  1.
     999902    2    1    2    0    0 -0.99344916901E-02 -0.55485274138E-02 -0.54023104487E-02  0.10313337609E+01  0.10312568357E+01 0.  0.
     999903    2    3    3    0    0 -0.11781558683E+00  0.51142020838E-01 -0.39328181653E-01  0.14228757891E+00  0.46936451134E-01 0.  0.
         14    1    1    2    0    0  0.99344916901E-02  0.55485274138E-02  0.54023104487E-02  0.12596239113E-01  0.00000000000E+00 0. -1.
     999901    1    3    3    0    0  0.10788109514E+00 -0.56690548252E-01  0.33925871204E-01  0.88904618198E+00  0.88000000000E+00 0. -1.
        -11    1    4    4    0    0 -0.55811727765E-01  0.41850077990E-01 -0.30015637971E-02  0.69825843999E-01  0.51100000000E-03 0. -1.
         11    1    4    4    0    0 -0.62003859064E-01  0.92919428476E-02 -0.36326617855E-01  0.72461734912E-01  0.51100000000E-03 0.  1.
</event>
<event>
 8    1  0.2877139E+004  0.1043930E+01  0.7957747E-01            NaN
         13   -1    0    0    0    0  0.00000000000E+00  0.00000000000E+00  0.74505805969E-08  0.10566000000E+00  0.10566000000E+00 0.  1.
     999900   -1    0    0    0    0 -0.00000000000E+00 -0.00000000000E+00 -0.74505805969E-08  0.93827000000E+00  0.93827000000E+00 0.  1.
     999902    2    1    2    0    0 -0.12634706019E-01 -0.31463423912E-02 -0.37946311620E-02  0.10303677549E+01  0.10302784943E+01 0.  0.
     999903    2    3    3    0    0  0.11624903872E+00  0.25708522945E-01  0.46653889306E-01  0.13908290922E+00  0.54705603858E-01 0.  0.
         14    1    1    2    0    0  0.12634706019E-01  0.31463423912E-02  0.37946311620E-02  0.13562245105E-01  0.00000000000E+00 0.  1.
     999901    1    3    3    0    0 -0.12888374474E+00 -0.28854865336E-01 -0.50448520468E-01  0.89128484568E+00  0.88000000000E+00 0.  1.
        -11    1    4    4    0    0  0.70193748545E-01  0.36431900126E-01  0.10977642841E-01  0.79844946270E-01  0.51100000000E-03 0.  1.
         11    1    4    4    0    0  0.46055290178E-01 -0.10723377181E-01  0.35676246465E-01  0.59237962949E-01  0.51100000000E-03 0. -1.
</event>
<event>
 8    1  0.2877139E+004  0.1043930E+01  0.7957747E-01            NaN
         13   -1    0    0    0    0  0.00000000000E+00  0.00000000000E+00  0.74505805969E-08  0.10566000000E+00  0.10566000000E+00 0.  1.
     999900   -1    0    0    0    0 -0.00000000000E+00 -0.00000000000E+00 -0.74505805969E-08  0.93827000000E+00  0.93827000000E+00 0.  1.
     999902    2    1    2    0    0  0.39765180672E-02 -0.31738158282E-02  0.13545952861E-01  0.10294600780E+01  0.10293583796E+01 0.  0.
     999903    2    3    3    0    0  0.79815353968E-02  0.11854533087E+00 -0.54786506234E-01  0.13844890201E+00  0.45275123678E-01 0.  0.
         14    1    1    2    0    0 -0.39765180672E-02  0.31738158282E-02 -0.13545952861E-01  0.14469921968E-01  0.00000000000E+00 0. -1.
     999901    1    3    3    0    0 -0.40050173296E-02 -0.12171914669E+00  0.68332459094E-01  0.89101117603E+00  0.88000000000E+00 0. -1.
        -11    1    4    4    0    0  0.15169121855E-01  0.65143434175E-01 -0.51582908377E-01  0.84467904151E-01  0.51100000000E-03 0.  1.
         11    1    4    4    0    0 -0.71875864583E-02  0.53401896691E-01 -0.32035978570E-02  0.53980997856E-01  0.51100000000E-03 0. -1.
</event>
<event>
 8    1  0.2877139E+004  0.1043930E+01  0.7957747E-01            NaN
         13   -1    0    0    0    0  0.00000000000E+00  0.00000000000E+00  0.74505805969E-08  0.10566000000E+00  0.10566000000E+00 0.  1.
     999900   -1    0    0    0    0 -0.00000000000E+00 -0.00000000000E+00 -0.74505805969E-08  0.93827000000E+00  0.93827000000E+00 0.  1.
     999902    2    1    2    0    0  0.10448624555E-01  0.26631513026E-02 -0.78032653320E-02  0.10306199632E+01  0.10305340128E+01 0.  0.
     999903    2    3    3    0    0  0.86828797640E-01  0.15751457814E-01  0.99921307680E-01  0.14067062855E+00  0.44906675276E-01 0.  0.
         14    1    1    2    0    0 -0.10448624555E-01 -0.26631513026E-02  0.78032653320E-02  0.13310036806E-01  0.00000000000E+00 0.  1.
     999901    1    3    3    0    0 -0.76380173086E-01 -0.13088306511E-01 -0.10772457301E+00  0.88994933465E+00  0.88000000000E+00 0. -1.
        -11    1    4    4    0    0  0.75184731108E-01  0.25950298093E-01  0.96047886827E-01  0.12470613236E+00  0.51100000000E-03 0.  1.
         11    1    4    4    0    0  0.11644066532E-01 -0.10198840279E-01  0.38734208531E-02  0.15964496188E-01  0.51100000000E-03 0. -1.
</event>
<event>
 8    1  0.2877139E+004  0.1043930E+01  0.7957747E-01            NaN
         13   -1    0    0    0    0  0.00000000000E+00  0.00000000000E+00  0.74505805969E-08  0.10566000000E+00  0.10566000000E+00 0. -1.
     999900   -1    0    0    0    0 -0.00000000000E+00 -0.00000000000E+00 -0.74505805969E-08  0.93827000000E+00  0.93827000000E+00 0.  1.
     999902    2    1    2    0    0  0.13551182825E-01  0.25094596052E-02  0.51759060323E-03  0.10301387041E+01  0.10300463823E+01 0.  0.
     999903    2    3    3    0    0 -0.76553330831E-01 -0.63836364464E-01  0.85735539491E-01  0.13896942129E+00  0.45015813140E-01 0.  0.
         14    1    1    2    0    0 -0.13551182825E-01 -0.25094596052E-02 -0.51759060323E-03  0.13791295933E-01  0.00000000000E+00 0. -1.
     999901    1    3    3    0    0  0.90104513656E-01  0.66345824069E-01 -0.85217948887E-01  0.89116928278E+00  0.88000000000E+00 0. -1.
        -11    1    4    4    0    0 -0.12601927609E-01 -0.28730267194E-01  0.46603635650E-01  0.56181819206E-01  0.51100000000E-03 0. -1.
         11    1    4    4    0    0 -0.63951403222E-01 -0.35106097270E-01  0.39131903840E-01  0.82787602084E-01  0.51100000000E-03 0.  1.
</event>
<event>
 8    1  0.2877139E+004  0.1043930E+01  0.7957747E-01            NaN
         13   -1    0    0    0    0  0.00000000000E+00  0.00000000000E+00  0.74505805969E-08  0.10566000000E+00  0.10566000000E+00 0.  1.
     999900   -1    0    0    0    0 -0.00000000000E+00 -0.00000000000E+00 -0.74505805969E-08  0.93827000000E+00  0.93827000000E+00 0.  1.
     999902    2    1    2    0    0  0.24705976551E-02  0.13317775264E-01  0.26667649464E-02  0.10301249782E+01  0.10300324714E+01 0.  0.
     999903    2    3    3    0    0 -0.61439974876E-01  0.61197549779E-01 -0.10068260118E+00  0.14048565493E+00  0.45598491746E-01 0.  0.
         14    1    1    2    0    0 -0.24705976551E-02 -0.13317775264E-01 -0.26667649464E-02  0.13805021769E-01  0.00000000000E+00 0.  1.
     999901    1    3    3    0    0  0.63910572531E-01 -0.47879774514E-01  0.10334936612E+00  0.88963932330E+00  0.88000000000E+00 0.  1.
        -11    1    4    4    0    0 -0.30481981107E-01  0.39831328806E-02 -0.46891577772E-01  0.56072254340E-01  0.51100000000E-03 0.  1.
         11    1    4    4    0    0 -0.30957993768E-01  0.57214416898E-01 -0.53791023403E-01  0.84413400588E-01  0.51100000000E-03 0. -1.
</event>
<event>
 8    1  0.2877139E+004  0.1043930E+01  0.7957747E-01            NaN
         13   -1    0    0    0    0  0.00000000000E+00  0.00000000000E+00  0.74505805969E-08  0.10566000000E+00  0.10566000000E+00 0. -1.
     999900   -1    0    0    0    0 -0.00000000000E+00 -0.00000000000E+00 -0.74505805969E-08  0.93827000000E+00  0.93827000000E+00 0.  1.
     999902    2    1    2    0    0 -0.89971988279E-02 -0.10704082545E-02  0.12733964855E-01  0.10283015253E+01  0.10281827550E+01 0.  0.
     999903    2    3    3    0    0 -0.29045212257E-01  0.77481094818E-01 -0.10014085314E+00  0.13739581423E+00  0.44749021111E-01 0.  0.
         14    1    1    2    0    0  0.89971988279E-02  0.10704082545E-02 -0.12733964855E-01  0.15628474702E-01  0.00000000000E+00 0.  1.
     999901    1    3    3    0    0  0.20048013429E-01 -0.78551503073E-01  0.11287481800E+00  0.89090571107E+00  0.88000000000E+00 0. -1.
        -11    1    4    4    0    0 -0.28643587811E-01  0.63794770948E-01 -0.51464795365E-01  0.86828072683E-01  0.51100000000E-03 0. -1.
         11    1    4    4    0    0 -0.40162444545E-03  0.13686323871E-01 -0.48676057777E-01  0.50567741546E-01  0.51100000000E-03 0.  1.
</event>
<event>
 8    1  0.2877139E+004  0.1043930E+01  0.7957747E-01            NaN
         13   -1    0    0    0    0  0.00000000000E+00  0.00000000000E+00  0.74505805969E-08  0.10566000000E+00  0.10566000000E+00 0. -1.
     999900   -1    0    0    0    0 -0.00000000000E+00 -0.00000000000E+00 -0.74505805969E-08  0.93827000000E+00  0.93827000000E+00 0.  1.
     999902    2    1    2    0    0  0.86187087518E-02 -0.52766947141E-02  0.97308667172E-02  0.10299009083E+01  0.10298053532E+01 0.  0.
     999903    2    3    3    0    0 -0.12600438971E+00 -0.13649962950E-01  0.36264269936E-01  0.13922840294E+00  0.44788650309E-01 0.  0.
         14    1    1    2    0    0 -0.86187087518E-02  0.52766947141E-02 -0.97308667172E-02  0.14029091728E-01  0.00000000000E+00 0.  1.
     999901    1    3    3    0    0  0.13462309847E+00  0.83732682357E-02 -0.26533403219E-01  0.89067250533E+00  0.88000000000E+00 0. -1.
        -11    1    4    4    0    0 -0.36902276084E-01  0.69068177116E-02 -0.67901547911E-02  0.38155595057E-01  0.51100000000E-03 0.  1.
         11    1    4    4    0    0 -0.89102113630E-01 -0.20556780661E-01  0.43054424727E-01  0.10107280789E+00  0.51100000000E-03 0. -1.
</event>
<event>
 8    1  0.2877139E+004  0.1043930E+01  0.7957747E-01            NaN
         13   -1    0    0    0    0  0.00000000000E+00  0.00000000000E+00  0.74505805969E-08  0.10566000000E+00  0.10566000000E+00 0. -1.
     999900   -1    0    0    0    0 -0.00000000000E+00 -0.00000000000E+00 -0.74505805969E-08  0.93827000000E+00  0.93827000000E+00 0.  1.
     999902    2    1    2    0    0 -0.34747915030E-03  0.87736654533E-02  0.12023156389E-01  0.10290419431E+01  0.10289342382E+01 0.  0.
     999903    2    3    3    0    0  0.10931068133E+00  0.74019862508E-01  0.88563386970E-02  0.13983330221E+00  0.45245470188E-01 0.  0.
         14    1    1    2    0    0  0.34747915030E-03 -0.87736654533E-02 -0.12023156389E-01  0.14888056851E-01  0.00000000000E+00 0.  1.
     999901    1    3    3    0    0 -0.10965816048E+00 -0.65246197055E-01  0.31668176920E-02  0.88920864094E+00  0.88000000000E+00 0.  1.
        -11    1    4    4    0    0  0.46453749401E-01  0.43467277833E-01  0.24565558593E-01  0.68198847979E-01  0.51100000000E-03 0.  1.
         11    1    4    4    0    0  0.62856931930E-01  0.30552584675E-01 -0.15709219896E-01  0.71634454229E-01  0.51100000000E-03 0. -1.
</event>
<event>
 8    1  0.2877139E+004  0.1043930E+01  0.7957747E-01            NaN
         13   -1    0    0    0    0  0.00000000000E+00  0.00000000000E+00  0.74505805969E-08  0.10566000000E+00  0.10566000000E+00 0.  1.
     999900   -1    0    0    0    0 -0.00000000000E+00 -0.00000000000E+00 -0.74505805969E-08  0.93827000000E+00  0.93827000000E+00 0.  1.
     999902    2    1    2    0    0  0.72340035959E-02  0.88500135625E-02  0.72016987698E-02  0.10304200772E+01  0.10303315086E+01 0.  0.
     999903    2    3    3    0    0  0.11022192627E+00  0.40247401103E-01  0.68198869617E-01  0.14176212109E+00  0.40947366602E-01 0.  0.
         14    1    1    2    0    0 -0.72340035959E-02 -0.88500135625E-02 -0.72016987698E-02  0.13509922770E-01  0.00000000000E+00 0.  1.
     999901    1    3    3    0    0 -0.10298792268E+00 -0.31397387540E-01 -0.60997170848E-01  0.88865795614E+00  0.88000000000E+00 0. -1.
        -11    1    4    4    0    0  0.74098202319E-01  0.20784295793E-01  0.22154820628E-01  0.80085128061E-01  0.51100000000E-03 0. -1.
         11    1    4    4    0    0  0.36123723954E-01  0.19463105310E-01  0.46044048989E-01  0.61676993028E-01  0.51100000000E-03 0.  1.
</event>
<event>
 8    1  0.2877139E+004  0.1043930E+01  0.7957747E-01            NaN
         13   -1    0    0    0    0  0.00000000000E+00  0.00000000000E+00  0.74505805969E-08  0.10566000000E+00  0.10566000000E+00 0. -1.
     999900   -1    0    0    0    0 -0.00000000000E+00 -0.00000000000E+00 -0.74505805969E-08  0.93827000000E+00  0.93827000000E+00 0.  1.
     999902    2    1    2    0    0  0.89958704562E-02  0.10554949449E-01 -0.15111895226E-01  0.10234189781E+01  0.10232134199E+01 0.  0.
     999903    2    3    3    0    0  0.54994887679E-01  0.86968891770E-01 -0.77893628311E-01  0.13668533928E+00  0.45027090014E-01 0.  0.
         14    1    1    2    0    0 -0.89958704562E-02 -0.10554949449E-01  0.15111895226E-01  0.20511021926E-01  0.00000000000E+00 0.  1.
     999901    1    3    3    0    0 -0.45999017222E-01 -0.76413942321E-01  0.62781733085E-01  0.88673363880E+00  0.88000000000E+00 0. -1.
        -11    1    4    4    0    0  0.44124339004E-01  0.64343367106E-01 -0.31910408493E-01  0.84294492550E-01  0.51100000000E-03 0.  1.
         11    1    4    4    0    0  0.10870548674E-01  0.22625524664E-01 -0.45983219818E-01  0.52390846726E-01  0.51100000000E-03 0. -1.
</event>
<event>
 8    1  0.2877139E+004  0.1043930E+01  0.7957747E-01            NaN
         13   -1    0    0    0    0  0.00000000000E+00  0.00000000000E+00  0.74505805969E-08  0.10566000000E+00  0.10566000000E+00 0. -1.
     999900   -1    0    0    0    0 -0.00000000000E+00 -0.00000000000E+00 -0.74505805969E-08  0.93827000000E+00  0.93827000000E+00 0. -1.
     999902    2    1    2    0    0 -0.90020540336E-02  0.95770773231E-02 -0.16098827988E-02  0.10306880549E+01  0.10306029873E+01 0.  0.
     999903    2    3    3    0    0 -0.63878823694E-01 -0.76265982179E-01 -0.88468665144E-01  0.14056169379E+00  0.45098568644E-01 0.  0.
         14    1    1    2    0    0  0.90020540336E-02 -0.95770773231E-02  0.16098827988E-02  0.13241945080E-01  0.00000000000E+00 0. -1.
     999901    1    3    3    0    0  0.54876769660E-01  0.85843059502E-01  0.86858782345E-01  0.89012636113E+00  0.88000000000E+00 0.  1.
        -11    1    4    4    0    0 -0.42872634368E-01 -0.31744098079E-01 -0.69929621759E-01  0.87955464076E-01  0.51100000000E-03 0.  1.
         11    1    4    4    0    0 -0.21006189326E-01 -0.44521884100E-01 -0.18539043385E-01  0.52606229711E-01  0.51100000000E-03 0. -1.
</event>
<event>
 8    1  0.2877139E+004  0.1043930E+01  0.7957747E-01            NaN
         13   -1    0    0    0    0  0.00000000000E+00  0.00000000000E+00  0.74505805969E-08  0.10566000000E+00  0.10566000000E+00 0. -1.
     999900   -1    0    0    0    0 -0.00000000000E+00 -0.00000000000E+00 -0.74505805969E-08  0.93827000000E+00  0.93827000000E+00 0. -1.
     999902    2    1    2    0    0 -0.64433439419E-02 -0.47443303427E-02  0.11573007400E-01  0.10298601794E+01  0.10297640648E+01 0.  0.
     999903    2    3    3    0    0 -0.23215520700E-02 -0.12984011960E+00  0.31094201910E-01  0.14078930332E+00  0.44619864119E-01 0.  0.
         14    1    1    2    0    0  0.64433439419E-02  0.47443303427E-02 -0.11573007400E-01  0.14069820604E-01  0.00000000000E+00 0.  1.
     999901    1    3    3    0    0 -0.41217918719E-02  0.12509578926E+00 -0.19521194510E-01  0.88907087608E+00  0.88000000000E+00 0.  1.
        -11    1    4    4    0    0 -0.17642393487E-01 -0.21153509285E-01  0.60621635575E-02  0.28208792087E-01  0.51100000000E-03 0.  1.
         11    1    4    4    0    0  0.15320841417E-01 -0.10868661032E+00  0.25032038352E-01  0.11258051123E+00  0.51100000000E-03 0. -1.
</event>
<event>
 8    1  0.2877139E+004  0.1043930E+01  0.7957747E-01            NaN
         13   -1    0    0    0    0  0.00000000000E+00  0.00000000000E+00  0.74505805969E-08  0.10566000000E+00  0.10566000000E+00 0. -1.
     999900   -1    0    0    0    0 -0.00000000000E+00 -0.00000000000E+00 -0.74505805969E-08  0.93827000000E+00  0.93827000000E+00 0.  1.
     999902    2    1    2    0    0  0.19782492812E-02  0.11761674512E-01 -0.50110309604E-02  0.10309931963E+01  0.10309120283E+01 0.  0.
     999903    2    3    3    0    0  0.90295893279E-01 -0.22217408798E-01  0.95090400604E-01  0.14027725905E+00  0.44593312542E-01 0.  0.
         14    1    1    2    0    0 -0.19782492812E-02 -0.11761674512E-01  0.50110309604E-02  0.12936803656E-01  0.00000000000E+00 0.  1.
     999901    1    3    3    0    0 -0.88317643998E-01  0.33979083310E-01 -0.10010143156E+00  0.89071593729E+00  0.88000000000E+00 0.  1.
        -11    1    4    4    0    0  0.17455584278E-01 -0.18685496973E-01  0.45144829331E-01  0.51886047797E-01  0.51100000000E-03 0. -1.
         11    1    4    4    0    0  0.72840309001E-01 -0.35319118249E-02  0.49945571273E-01  0.88391211256E-01  0.51100000000E-03 0.  1.
</event>
<event>
 8    1  0.2877139E+004  0.1043930E+01  0.7957747E-01            NaN
         13   -1    0    0    0    0  0.00000000000E+00  0.00000000000E+00  0.74505805969E-08  0.10566000000E+00  0.10566000000E+00 0.  1.
     999900   -1    0    0    0    0 -0.00000000000E+00 -0.00000000000E+00 -0.74505805969E-08  0.93827000000E+00  0.93827000000E+00 0.  1.
     999902    2    1    2    0    0 -0.13455056112E-01  0.32354829272E-04  0.36561846135E-02  0.10299869993E+01  0.10298926214E+01 0.  0.
     999903    2    3    3    0    0 -0.64497763590E-01  0.10783117847E+00  0.48499816350E-01  0.14080934797E+00  0.41079383285E-01 0.  0.
         14    1    1    2    0    0  0.13455056112E-01 -0.32354829272E-04 -0.36561846135E-02  0.13943000672E-01  0.00000000000E+00 0. -1.
     999901    1    3    3    0    0  0.51042707478E-01 -0.10779882364E+00 -0.44843631736E-01  0.88917765136E+00  0.88000000000E+00 0.  1.
        -11    1    4    4    0    0 -0.26491916069E-01  0.14722337931E-01  0.19873973295E-01  0.36246445159E-01  0.51100000000E-03 0. -1.
         11    1    4    4    0    0 -0.38005847521E-01  0.93108840541E-01  0.28625843055E-01  0.10456290281E+00  0.51100000000E-03 0.  1.
</event>
<event>
 8    1  0.2877139E+004  0.1043930E+01  0.7957747E-01            NaN
         13   -1    0    0    0    0  0.00000000000E+00  0.00000000000E+00  0.74505805969E-08  0.10566000000E+00  0.10566000000E+00 0.  1.
     999900   -1    0    0    0    0 -0.00000000000E+00 -0.00000000000E+00 -0.74505805969E-08  0.93827000000E+00  0.93827000000E+00 0.  1.
     999902    2    1    2    0    0  0.87397136677E-02 -0.11352408240E-01  0.16781804528E-02  0.10295051583E+01  0.10294040970E+01 0.  0.
     999903    2    3    3    0    0 -0.55857266114E-01  0.11471581538E+00  0.25236563237E-02  0.13817655358E+00  0.52977718360E-01 0.  0.
         14    1    1    2    0    0 -0.87397136677E-02  0.11352408240E-01 -0.16781804528E-02  0.14424841680E-01  0.00000000000E+00 0. -1.
     999901    1    3    3    0    0  0.64596979781E-01 -0.12606822362E+00 -0.84547587085E-03  0.89132860474E+00  0.88000000000E+00 0. -1.
        -11    1    4    4    0    0 -0.59923134099E-01  0.68618803928E-01 -0.52330235741E-02  0.91252221395E-01  0.51100000000E-03 0.  1.
         11    1    4    4    0    0  0.40658679854E-02  0.46097011447E-01  0.77566798978E-02  0.46924332183E-01  0.51100000000E-03 0. -1.
</event>
<event>
 8    1  0.2877139E+004  0.1043930E+01  0.7957747E-01            NaN
         13   -1    0    0    0    0  0.00000000000E+00  0.00000000000E+00  0.74505805969E-08  0.10566000000E+00  0.10566000000E+00 0.  1.
     999900   -1    0    0    0    0 -0.00000000000E+00 -0.00000000000E+00 -0.74505805969E-08  0.93827000000E+00  0.93827000000E+00 0. -1.
     999902    2    1    2    0    0 -0.10979792110E-01  0.73461291936E-03 -0.93135231515E-02  0.10295134399E+01  0.10294124954E+01 0.  0.
     999903    2    3    3    0    0 -0.77183183653E-01 -0.92788669012E-01 -0.56958656532E-01  0.14080676613E+00  0.44891824397E-01 0.  0.
         14    1    1    2    0    0  0.10979792110E-01 -0.73461291936E-03  0.93135231515E-02  0.14416560076E-01  0.00000000000E+00 0.  1.
     999901    1    3    3    0    0  0.66203391542E-01  0.93523281931E-01  0.47645133380E-01  0.88870667380E+00  0.88000000000E+00 0. -1.
        -11    1    4    4    0    0 -0.34473014295E-01 -0.71982417188E-01 -0.25351807341E-01  0.83742655530E-01  0.51100000000E-03 0.  1.
         11    1    4    4    0    0 -0.42710169358E-01 -0.20806251825E-01 -0.31606849191E-01  0.57064110598E-01  0.51100000000E-03 0. -1.
</event>
<event>
 8    1  0.2877139E+004  0.1043930E+01  0.7957747E-01            NaN
         13   -1    0    0    0    0  0.00000000000E+00  0.00000000000E+00  0.74505805969E-08  0.10566000000E+00  0.10566000000E+00 0.  1.
     999900   -1    0    0    0    0 -0.00000000000E+00 -0.00000000000E+00 -0.74505805969E-08  0.93827000000E+00  0.93827000000E+00 0.  1.
     999902    2    1    2    0    0 -0.46707619204E-02 -0.46088585618E-02  0.12351909243E-01  0.10299433186E+01  0.10298483443E+01 0.  0.
     999903    2    3    3    0    0  0.76522042774E-01  0.28442490238E-02  0.10921176046E+00  0.14088221210E+00  0.45352797926E-01 0.  0.
         14    1    1    2    0    0  0.46707619204E-02  0.46088585618E-02 -0.12351909243E-01  0.13986681383E-01  0.00000000000E+00 0.  1.
     999901    1    3    3    0    0 -0.81192804695E-01 -0.74531075856E-02 -0.96859851218E-01  0.88906110652E+00  0.88000000000E+00 0.  1.
        -11    1    4    4    0    0  0.24050165371E-01  0.21984077278E-01  0.47991366304E-01  0.58009848034E-01  0.51100000000E-03 0.  1.
         11    1    4    4    0    0  0.52471877403E-01 -0.19139828255E-01  0.61220394157E-01  0.82872364064E-01  0.51100000000E-03 0. -1.
</event>
<event>
 8    1  0.2877139E+004  0.1043930E+01  0.7957747E-01            NaN
         13   -1    0    0    0    0  0.00000000000E+00  0.00000000000E+00  0.74505805969E-08  0.10566000000E+00  0.10566000000E+00 0. -1.
     999900   -1    0    0    0    0 -0.00000000000E+00 -0.00000000000E+00 -0.74505805969E-08  0.93827000000E+00  0.93827000000E+00 0. -1.
     999902    2    1    2    0    0 -0.11551612581E-01 -0.65815346511E-02 -0.10447954230E-01  0.10270209462E+01  0.10268817400E+01 0.  0.
     999903    2    3    3    0    0 -0.12698281984E+00  0.33177523822E-01  0.39941873987E-02  0.13847509948E+00  0.43977437629E-01 0.  0.
         14    1    1    2    0    0  0.11551612581E-01  0.65815346511E-02  0.10447954230E-01  0.16909053764E-01  0.00000000000E+00 0. -1.
     999901    1    3    3    0    0  0.11543120726E+00 -0.39759058474E-01 -0.14442141629E-01  0.88854584676E+00  0.88000000000E+00 0. -1.
        -11    1    4    4    0    0 -0.11106073047E+00  0.20854280699E-01  0.17323978569E-01  0.11432308704E+00  0.51100000000E-03 0. -1.
         11    1    4    4    0    0 -0.15922089366E-01  0.12323243123E-01 -0.13329791170E-01  0.24152012432E-01  0.51100000000E-03 0.  1.
</event>
<event>
 8    1  0.2877139E+004  0.1043930E+01  0.7957747E-01            NaN
         13   -1    0    0    0    0  0.00000000000E+00  0.00000000000E+00  0.74505805969E-08  0.10566000000E+00  0.10566000000E+00 0.  1.
     999900   -1    0    0    0    0 -0.00000000000E+00 -0.00000000000E+00 -0.74505805969E-08  0.93827000000E+00  0.93827000000E+00 0.  1.
     999902    2    1    2    0    0 -0.11850800343E-01  0.55971956730E-02 -0.55163201394E-02  0.10297103004E+01  0.10296121129E+01 0.  0.
     999903    2    3    3    0    0 -0.81860527784E-01  0.59334977316E-01 -0.88420541346E-01  0.14141855724E+00  0.44263197557E-01 0.  0.
         14    1    1    2    0    0  0.11850800343E-01 -0.55971956730E-02  0.55163201394E-02  0.14219699576E-01  0.00000000000E+00 0.  1.
     999901    1    3    3    0    0  0.70009727442E-01 -0.53737781643E-01  0.82904221206E-01  0.88829174318E+00  0.88000000000E+00 0. -1.
        -11    1    4    4    0    0 -0.93148619954E-02  0.29022148696E-01 -0.34722778888E-01  0.46205889924E-01  0.51100000000E-03 0. -1.
         11    1    4    4    0    0 -0.72545665789E-01  0.30312828620E-01 -0.53697762458E-01  0.95212667317E-01  0.51100000000E-03 0.  1.
</event>
<event>
 8    1  0.2877139E+004  0.1043930E+01  0.7957747E-01            NaN
         13   -1    0    0    0    0  0.00000000000E+00  0.00000000000E+00  0.74505805969E-08  0.10566000000E+00  0.10566000000E+00 0.  1.
     999900   -1    0    0    0    0 -0.00000000000E+00 -0.00000000000E+00 -0.74505805969E-08  0.93827000000E+00  0.93827000000E+00 0.  1.
     999902    2    1    2    0    0  0.48460937684E-02  0.59699035077E-02  0.99970259169E-02  0.10313179066E+01  0.10312407864E+01 0.  0.
     999903    2    3    3    0    0 -0.12088082420E+00 -0.14667125466E-01  0.55325232908E-01  0.14098774806E+00  0.44602303490E-01 0.  0.
         14    1    1    2    0    0 -0.48460937684E-02 -0.59699035077E-02 -0.99970259169E-02  0.12612093398E-01  0.00000000000E+00 0. -1.
     999901    1    3    3    0    0  0.12572691797E+00  0.20637028974E-01 -0.45328206992E-01  0.89033015855E+00  0.88000000000E+00 0. -1.
        -11    1    4    4    0    0 -0.55230527109E-01 -0.27096469825E-01  0.36640455335E-01  0.71605962670E-01  0.51100000000E-03 0. -1.
         11    1    4    4    0    0 -0.65650297092E-01  0.12429344359E-01  0.18684777574E-01  0.69381785386E-01  0.51100000000E-03 0.  1.
</event>
<event>
 8    1  0.2877139E+004  0.1043930E+01  0.7957747E-01            NaN
         13   -1    0    0    0    0  0.00000000000E+00  0.00000000000E+00  0.74505805969E-08  0.10566000000E+00  0.10566000000E+00 0. -1.
     999900   -1    0    0    0    0 -0.00000000000E+00 -0.00000000000E+00 -0.74505805969E-08  0.93827000000E+00  0.93827000000E+00 0. -1.
     999902    2    1    2    0    0  0.29403378390E-02 -0.12528236148E-01 -0.45946019039E-03  0.10310531451E+01  0.10309727323E+01 0.  0.
     999903    2    3    3    0    0 -0.61808706194E-01 -0.71213685105E-01 -0.95783486470E-01  0.14160213996E+00  0.44553166583E-01 0.  0.
         14    1    1    2    0    0 -0.29403378390E-02  0.12528236148E-01  0.45946019039E-03  0.12876854867E-01  0.00000000000E+00 0. -1.
     999901    1    3    3    0    0  0.64749044033E-01  0.58685448956E-01  0.95324026279E-01  0.88945100518E+00  0.88000000000E+00 0.  1.
        -11    1    4    4    0    0 -0.50868356061E-01 -0.25032368558E-01 -0.55684634654E-01  0.79468539570E-01  0.51100000000E-03 0.  1.
         11    1    4    4    0    0 -0.10940350133E-01 -0.46181316547E-01 -0.40098851816E-01  0.62133600387E-01  0.51100000000E-03 0. -1.
</event>
<event>
 7    1  0.2877139E+004  0.1043930E+01  0.7957747E-01            NaN
         13   -1    0    0    0    0  0.00000000000E+00  0.00000000000E+00  0.74505805969E-08  0.10566000000E+00  0.10566000000E+00 0. -1.
     999900   -1    0    0    0    0 -0.00000000000E+00 -0.00000000000E+00 -0.74505805969E-08  0.93827000000E+00  0.93827000000E+00 0.  1.
     999902    2    1    2    0    0  0.41946749621E-02 -0.21311916467E-02  0.12187984239E-01  0.10308653823E+01  0.10307825921E+01 0.  0.
         14    1    1    2    0    0 -0.41946749621E-02  0.21311916467E-02 -0.12187984239E-01  0.13064617702E-01  0.00000000000E+00 0. -1.
     999901    1    3    3    0    0 -0.98931022820E-01 -0.36727151173E-01 -0.55561032918E-01  0.88804462686E+00  0.88000000000E+00 0. -1.
        -11    1    3    3    0    0  0.16570941281E-01 -0.15288003578E-01  0.81069146380E-03  0.22566291011E-01  0.51100000000E-03 0.  1.
         11    1    3    3    0    0  0.86554756500E-01  0.49883963105E-01  0.66938325694E-01  0.12025446443E+00  0.51100000000E-03 0. -1.
</event>
<event>
 8    1  0.2877139E+004  0.1043930E+01  0.7957747E-01            NaN
         13   -1    0    0    0    0  0.00000000000E+00  0.00000000000E+00  0.74505805969E-08  0.10566000000E+00  0.10566000000E+00 0.  1.
     999900   -1    0    0    0    0 -0.00000000000E+00 -0.00000000000E+00 -0.74505805969E-08  0.93827000000E+00  0.93827000000E+00 0. -1.
     999902    2    1    2    0    0  0.17208235786E-02 -0.12830035399E-01 -0.39015472726E-02  0.10304098997E+01  0.10303211966E+01 0.  0.
     999903    2    3    3    0    0 -0.35524563218E-02 -0.92399128451E-01 -0.97494943646E-01  0.14186121113E+00  0.45487584032E-01 0.  0.
         14    1    1    2    0    0 -0.17208235786E-02  0.12830035399E-01  0.39015472726E-02  0.13520100341E-01  0.00000000000E+00 0. -1.
     999901    1    3    3    0    0  0.52732799003E-02  0.79569093052E-01  0.93593396373E-01  0.88854868853E+00  0.88000000000E+00 0.  1.
        -11    1    4    4    0    0 -0.11187131317E-01 -0.10706101536E-02 -0.13178880727E-01  0.17327496398E-01  0.51100000000E-03 0.  1.
         11    1    4    4    0    0  0.76346749952E-02 -0.91328518297E-01 -0.84316062918E-01  0.12453371473E+00  0.51100000000E-03 0. -1.
</event>
<event>
 7    1  0.2877139E+004  0.1043930E+01  0.7957747E-01            NaN
         13   -1    0    0    0    0  0.00000000000E+00  0.00000000000E+00  0.74505805969E-08  0.10566000000E+00  0.10566000000E+00 0. -1.
     999900   -1    0    0    0    0 -0.00000000000E+00 -0.00000000000E+00 -0.74505805969E-08  0.93827000000E+00  0.93827000000E+00 0.  1.
     999902    2    1    2    0    0  0.33345136163E-02 -0.11639867568E-01  0.59575185187E-02  0.10304356484E+01  0.10303472851E+01 0.  0.
         14    1    1    2    0    0 -0.33345136163E-02  0.11639867568E-01 -0.59575185187E-02  0.13494351595E-01  0.00000000000E+00 0.  1.
     999901    1    3    3    0    0  0.14749942920E-01  0.97376885360E-01 -0.78498695156E-01  0.88896673940E+00  0.88000000000E+00 0. -1.
        -11    1    3    3    0    0 -0.40420428101E-03 -0.39864970953E-01  0.14330503964E-01  0.42367484644E-01  0.51100000000E-03 0.  1.
         11    1    3    3    0    0 -0.11011225023E-01 -0.69151781975E-01  0.70125709711E-01  0.99101424361E-01  0.51100000000E-03 0. -1.
</event>
<event>
 8    1  0.2877139E+004  0.1043930E+01  0.7957747E-01            NaN
         13   -1    0    0    0    0  0.00000000000E+00  0.00000000000E+00  0.74505805969E-08  0.10566000000E+00  0.10566000000E+00 0.  1.
     999900   -1    0    0    0    0 -0.00000000000E+00 -0.00000000000E+00 -0.74505805969E-08  0.93827000000E+00  0.93827000000E+00 0.  1.
     999902    2    1    2    0    0 -0.13537460531E-01 -0.42173798986E-02 -0.13346537908E-02  0.10296881451E+01  0.10295896492E+01 0.  0.
     999903    2    3    3    0    0  0.66224434953E-01  0.91055201663E-01 -0.67641145194E-01  0.13848930331E+00  0.43900308355E-01 0.  0.
         14    1    1    2    0    0  0.13537460531E-01  0.42173798986E-02  0.13346537908E-02  0.14241854920E-01  0.00000000000E+00 0. -1.
     999901    1    3    3    0    0 -0.79761895484E-01 -0.95272581561E-01  0.66306491403E-01  0.89119884177E+00  0.88000000000E+00 0. -1.
        -11    1    4    4    0    0  0.33725067393E-01  0.60636707970E-01 -0.17741916357E-01  0.71618623564E-01  0.51100000000E-03 0. -1.
         11    1    4    4    0    0  0.32499367560E-01  0.30418493692E-01 -0.49899228837E-01  0.66870679747E-01  0.51100000000E-03 0.  1.
</event>
<event>
 8    1  0.2877139E+004  0.1043930E+01  0.7957747E-01            NaN
         13   -1    0    0    0    0  0.00000000000E+00  0.00000000000E+00  0.74505805969E-08  0.10566000000E+00  0.10566000000E+00 0.  1.
     999900   -1    0    0    0    0 -0.00000000000E+00 -0.00000000000E+00 -0.74505805969E-08  0.93827000000E+00  0.93827000000E+00 0. -1.
     999902    2    1    2    0    0  0.21393041324E-02  0.14602466310E-01  0.48554424375E-02  0.10283934635E+01  0.10282760971E+01 0.  0.
     999903    2    3    3    0    0 -0.54051056870E-01  0.11873413747E+00  0.26560398196E-01  0.14020887307E+00  0.43974551584E-01 0.  0.
         14    1    1    2    0    0 -0.21393041324E-02 -0.14602466310E-01 -0.48554424375E-02  0.15536536479E-01  0.00000000000E+00 0.  1.
     999901    1    3    3    0    0  0.56190361002E-01 -0.10413167116E+00 -0.21704955758E-01  0.88818459045E+00  0.88000000000E+00 0.  1.
        -11    1    4    4    0    0 -0.26036356234E-01  0.57118181169E-01  0.35203470956E-01  0.71971688561E-01  0.51100000000E-03 0. -1.
         11    1    4    4    0    0 -0.28014700636E-01  0.61615956298E-01 -0.86430727600E-02  0.68237184510E-01  0.51100000000E-03 0.  1.
</event>
<event>
 8    1  0.2877139E+004  0.1043930E+01  0.7957747E-01            NaN
         13   -1    0    0    0    0  0.00000000000E+00  0.00000000000E+00  0.74505805969E-08  0.10566000000E+00  0.10566000000E+00 0. -1.
     999900   -1    0    0    0    0 -0.00000000000E+00 -0.00000000000E+00 -0.74505805969E-08  0.93827000000E+00  0.93827000000E+00 0.  1.
     999902    2    1    2    0    0 -0.35192771222E-02 -0.21158855665E-02  0.12004232869E-01  0.10312428455E+01  0.10311647989E+01 0.  0.
     999903    2    3    3    0    0  0.37166976482E-01 -0.88108253840E-01  0.94277123521E-01  0.14230027862E+00  0.47082318758E-01 0.  0.
         14    1    1    2    0    0  0.35192771222E-02  0.21158855665E-02 -0.12004232869E-01  0.12687154526E-01  0.00000000000E+00 0.  1.
     999901    1    3    3    0    0 -0.40686253604E-01  0.85992368274E-01 -0.82272890652E-01  0.88894256686E+00  0.88000000000E+00 0.  1.
        -11    1    4    4    0    0 -0.94858093500E-03 -0.29929827707E-01  0.54469667501E-01  0.62160278241E-01  0.51100000000E-03 0.  1.
         11    1    4    4    0    0  0.38115557417E-01 -0.58178426134E-01  0.39807456020E-01  0.80140000377E-01  0.51100000000E-03 0. -1.
</event>
<event>
 8    1  0.2877139E+004  0.1043930E+01  0.7957747E-01            NaN
         13   -1    0    0    0    0  0.00000000000E+00  0.00000000000E+00  0.74505805969E-08  0.10566000000E+00  0.10566000000E+00 0. -1.
     999900   -1    0    0    0    0 -0.00000000000E+00 -0.00000000000E+00 -0.74505805969E-08  0.93827000000E+00  0.93827000000E+00 0.  1.
     999902    2    1    2    0    0  0.14925635152E-01 -0.53398877203E-02 -0.30957207625E-02  0.10277784529E+01  0.10276515342E+01 0.  0.
     999903    2    3    3    0    0 -0.47977488417E-01 -0.55434570395E-02  0.12031554404E+00  0.13694334772E+00  0.44103072889E-01 0.  0.
         14    1    1    2    0    0 -0.14925635152E-01  0.53398877203E-02  0.30957207625E-02  0.16151547065E-01  0.00000000000E+00 0. -1.
     999901    1    3    3    0    0  0.62903123570E-01  0.20356931924E-03 -0.12341126480E+00  0.89083510521E+00  0.88000000000E+00 0.  1.
        -11    1    4    4    0    0 -0.35299265602E-01 -0.23983988980E-01  0.72097936721E-01  0.83783312657E-01  0.51100000000E-03 0. -1.
         11    1    4    4    0    0 -0.12678222816E-01  0.18440531941E-01  0.48217607317E-01  0.53160035067E-01  0.51100000000E-03 0.  1.
</event>
<event>
 8    1  0.2877139E+004  0.1043930E+01  0.7957747E-01            NaN
         13   -1    0    0    0    0  0.00000000000E+00  0.00000000000E+00  0.74505805969E-08  0.10566000000E+00  0.10566000000E+00 0.  1.
     999900   -1    0    0    0    0 -0.00000000000E+00 -0.00000000000E+00 -0.74505805969E-08  0.93827000000E+00  0.93827000000E+00 0.  1.
     999902    2    1    2    0    0 -0.12408095722E-01 -0.56091432255E-02  0.15650911181E-02  0.10302233287E+01  0.10301321441E+01 0.  0.
     999903    2    3    3    0    0  0.50831259120E-01  0.12042339755E+00  0.13801302455E-01  0.13891353847E+00  0.44954239408E-01 0.  0.
         14    1    1    2    0    0  0.12408095722E-01  0.56091432255E-02 -0.15650911181E-02  0.13706671273E-01  0.00000000000E+00 0.  1.
     999901    1    3    3    0    0 -0.63239354842E-01 -0.12603254077E+00 -0.12236211337E-01  0.89130979025E+00  0.88000000000E+00 0. -1.
        -11    1    4    4    0    0  0.51897485109E-01  0.80385325080E-01  0.21634566566E-01  0.98099261161E-01  0.51100000000E-03 0.  1.
         11    1    4    4    0    0 -0.10662259887E-02  0.40038072469E-01 -0.78332641113E-02  0.40814277313E-01  0.51100000000E-03 0. -1.
</event>
<event>
 8    1  0.2877139E+004  0.1043930E+01  0.7957747E-01            NaN
         13   -1    0    0    0    0  0.00000000000E+00  0.00000000000E+00  0.74505805969E-08  0.10566000000E+00  0.10566000000E+00 0.  1.
     999900   -1    0    0    0    0 -0.00000000000E+00 -0.00000000000E+00 -0.74505805969E-08  0.93827000000E+00  0.93827000000E+00 0. -1.
     999902    2    1    2    0    0 -0.13796290472E-02  0.11316208555E-01 -0.61386434015E-02  0.10309823015E+01  0.10309009958E+01 0.  0.
     999903    2    3    3    0    0 -0.15713321870E-01  0.11512914431E+00  0.67657000564E-01  0.14169698319E+00  0.44709472879E-01 0.  0.
         14    1    1    2    0    0  0.13796290472E-02 -0.11316208555E-01  0.61386434015E-02  0.12947698451E-01  0.00000000000E+00 0.  1.
     999901    1    3    3    0    0  0.14333692823E-01 -0.10381293576E+00 -0.73795643966E-01  0.88928531836E+00  0.88000000000E+00 0.  1.
        -11    1    4    4    0    0 -0.22969169790E-01  0.41325441787E-01  0.41941339542E-01  0.63203733935E-01  0.51100000000E-03 0.  1.
         11    1    4    4    0    0  0.72558479201E-02  0.73803702528E-01  0.25715661022E-01  0.78493249255E-01  0.51100000000E-03 0. -1.
</event>
<event>
 8    1  0.2877139E+004  0.1043930E+01  0.7957747E-01            NaN
         13   -1    0    0    0    0  0.00000000000E+00  0.00000000000E+00  0.74505805969E-08  0.10566000000E+00  0.10566000000E+00 0. -1.
     999900   -1    0    0    0    0 -0.00000000000E+00 -0.00000000000E+00 -0.74505805969E-08  0.93827000000E+00  0.93827000000E+00 0. -1.
     999902    2    1    2    0    0 -0.97411629657E-03 -0.16854024287E-01  0.13602071274E-01  0.10222499774E+01  0.10220200550E+01 0.  0.
     999903    2    3    3    0    0  0.49009972252E-01  0.11170215883E+00 -0.21030589713E-01  0.13083283456E+00  0.42374464355E-01 0.  0.
         14    1    1    2    0    0  0.97411629657E-03  0.16854024287E-01 -0.13602071274E-01  0.21680022606E-01  0.00000000000E+00 0. -1.
     999901    1    3    3    0    0 -0.49984088549E-01 -0.12855618311E+00  0.34632660988E-01  0.89141714283E+00  0.88000000000E+00 0.  1.
        -11    1    4    4    0    0  0.35666866010E-01  0.30787326107E-01 -0.72586290411E-02  0.47675293354E-01  0.51100000000E-03 0.  1.
         11    1    4    4    0    0  0.13343106242E-01  0.80914832720E-01 -0.13771960672E-01  0.83157541210E-01  0.51100000000E-03 0. -1.
</event>
<event>
 8    1  0.2877139E+004  0.1043930E+01  0.7957747E-01            NaN
         13   -1    0    0    0    0  0.00000000000E+00  0.00000000000E+00  0.74505805969E-08  0.10566000000E+00  0.10566000000E+00 0.  1.
     999900   -1    0    0    0    0 -0.00000000000E+00 -0.00000000000E+00 -0.74505805969E-08  0.93827000000E+00  0.93827000000E+00 0.  1.
     999902    2    1    2    0    0 -0.12761568136E-01 -0.26718720544E-02  0.69308578576E-02  0.10291640489E+01  0.10290581161E+01 0.  0.
     999903    2    3    3    0    0  0.40371747613E-01 -0.12337333770E+00 -0.20450480356E-01  0.13891592014E+00  0.45039452287E-01 0.  0.
         14    1    1    2    0    0  0.12761568136E-01  0.26718720544E-02 -0.69308578576E-02  0.14765951111E-01  0.00000000000E+00 0. -1.
     999901    1    3    3    0    0 -0.53133315749E-01  0.12070146565E+00  0.27381338214E-01  0.89024812874E+00  0.88000000000E+00 0. -1.
        -11    1    4    4    0    0  0.42215974678E-01 -0.10545681287E+00 -0.27048443684E-02  0.11362616425E+00  0.51100000000E-03 0.  1.
         11    1    4    4    0    0 -0.18442270648E-02 -0.17916524828E-01 -0.17745635988E-01  0.25289755890E-01  0.51100000000E-03 0. -1.
</event>
<event>
 8    1  0.2877139E+004  0.1043930E+01  0.7957747E-01            NaN
         13   -1    0    0    0    0  0.00000000000E+00  0.00000000000E+00  0.74505805969E-08  0.10566000000E+00  0.10566000000E+00 0. -1.
     999900   -1    0    0    0    0 -0.00000000000E+00 -0.00000000000E+00 -0.74505805969E-08  0.93827000000E+00  0.93827000000E+00 0.  1.
     999902    2    1    2    0    0 -0.37048370907E-02  0.27951971577E-02 -0.10622866464E-01  0.10323375785E+01  0.10322724891E+01 0.  0.
     999903    2    3    3    0    0 -0.28072082664E-01  0.93361306269E-01 -0.95092485181E-01  0.14333189836E+00  0.44688667659E-01 0.  0.
         14    1    1    2    0    0  0.37048370907E-02 -0.27951971577E-02  0.10622866464E-01  0.11592421530E-01  0.00000000000E+00 0. -1.
     999901    1    3    3    0    0  0.24367245573E-01 -0.90566109111E-01  0.84469618717E-01  0.88900568011E+00  0.88000000000E+00 0.  1.
        -11    1    4    4    0    0 -0.18871377952E-01  0.65306462698E-01 -0.35194499064E-01  0.76550485703E-01  0.51100000000E-03 0.  1.
         11    1    4    4    0    0 -0.92007047115E-02  0.28054843570E-01 -0.59897986118E-01  0.66781412660E-01  0.51100000000E-03 0. -1.
</event>
<event>
 8    1  0.2877139E+004  0.1043930E+01  0.7957747E-01            NaN
         13   -1    0    0    0    0  0.00000000000E+00  0.00000000000E+00  0.74505805969E-08  0.10566000000E+00  0.10566000000E+00 0. -1.
     999900   -1    0    0    0    0 -0.00000000000E+00 -0.00000000000E+00 -0.74505805969E-08  0.93827000000E+00  0.93827000000E+00 0. -1.
     999902    2    1    2    0    0  0.11458154981E-01 -0.56697975083E-02 -0.64573127889E-02  0.10296075418E+01  0.10295079200E+01 0.  0.
     999903    2    3    3    0    0 -0.26937811770E-01 -0.55217911578E-02 -0.12982953171E+00  0.14017234095E+00  0.45126954068E-01 0.  0.
         14    1    1    2    0    0 -0.11458154981E-01  0.56697975083E-02  0.64573127889E-02  0.14322458162E-01  0.00000000000E+00 0. -1.
     999901    1    3    3    0    0  0.38395966751E-01 -0.14800635046E-03  0.12337221892E+00  0.88943520088E+00  0.88000000000E+00 0.  1.
        -11    1    4    4    0    0  0.27308546156E-02  0.20693181989E-02 -0.89319868302E-01  0.89387021649E-01  0.51100000000E-03 0.  1.
         11    1    4    4    0    0 -0.29668666386E-01 -0.75911093567E-02 -0.40509663410E-01  0.50785319305E-01  0.51100000000E-03 0. -1.
</event>
<event>
 8    1  0.2877139E+004  0.1043930E+01  0.7957747E-01            NaN
         13   -1    0    0    0    0  0.00000000000E+00  0.00000000000E+00  0.74505805969E-08  0.10566000000E+00  0.10566000000E+00 0.  1.
     999900   -1    0    0    0    0 -0.00000000000E+00 -0.00000000000E+00 -0.74505805969E-08  0.93827000000E+00  0.93827000000E+00 0. -1.
     999902    2    1    2    0    0  0.12702700936E-02  0.11961964061E-01  0.70728179745E-02  0.10299755411E+01  0.10298810068E+01 0.  0.
     999903    2    3    3    0    0 -0.65068415495E-01  0.44388103484E-01 -0.10623599327E+00  0.13964348928E+00  0.44833195358E-01 0.  0.
         14    1    1    2    0    0 -0.12702700936E-02 -0.11961964061E-01 -0.70728179745E-02  0.13954458943E-01  0.00000000000E+00 0. -1.
     999901    1    3    3    0    0  0.66338685589E-01 -0.32426139423E-01  0.11330881124E+00  0.89033205178E+00  0.88000000000E+00 0.  1.
        -11    1    4    4    0    0 -0.18635334656E-02  0.21709438363E-01 -0.38630165145E-01  0.44354517821E-01  0.51100000000E-03 0.  1.
         11    1    4    4    0    0 -0.63204882030E-01  0.22678665121E-01 -0.67605828121E-01  0.95288971455E-01  0.51100000000E-03 0. -1.
</event>
<event>
 8    1  0.2877139E+004  0.1043930E+01  0.7957747E-01            NaN
         13   -1    0    0    0    0  0.00000000000E+00  0.00000000000E+00  0.74505805969E-08  0.10566000000E+00  0.10566000000E+00 0. -1.
     999900   -1    0    0    0    0 -0.00000000000E+00 -0.00000000000E+00 -0.74505805969E-08  0.93827000000E+00  0.93827000000E+00 0.  1.
     999902    2    1    2    0    0  0.11683757855E-01 -0.83255351144E-02  0.38663561498E-02  0.10290715532E+01  0.10289642793E+01 0.  0.
     999903    2    3    3    0    0 -0.73994833840E-01  0.49796609405E-01  0.95771998722E-01  0.13824853376E+00  0.44558316897E-01 0.  0.
         14    1    1    2    0    0 -0.11683757855E-01  0.83255351144E-02 -0.38663561498E-02  0.14858446838E-01  0.00000000000E+00 0.  1.
     999901    1    3    3    0    0  0.85678591695E-01 -0.58122144519E-01 -0.91905642572E-01  0.89082301940E+00  0.88000000000E+00 0.  1.
        -11    1    4    4    0    0 -0.37233086561E-01  0.49195308297E-01  0.49220116878E-01  0.78926308161E-01  0.51100000000E-03 0.  1.
         11    1    4    4    0    0 -0.36761747279E-01  0.60130110724E-03  0.46551881843E-01  0.59322225601E-01  0.51100000000E-03 0. -1.
</event>
<event>
 8    1  0.2877139E+004  0.1043930E+01  0.7957747E-01            NaN
         13   -1    0    0    0    0  0.00000000000E+00  0.00000000000E+00  0.74505805969E-08  0.10566000000E+00  0.10566000000E+00 0. -1.
     999900   -1    0    0    0    0 -0.00000000000E+00 -0.00000000000E+00 -0.74505805969E-08  0.93827000000E+00  0.93827000000E+00 0. -1.
     999902    2    1    2    0    0 -0.50344465085E-02 -0.12951752696E-01 -0.53197668401E-02  0.10290507034E+01  0.10289431260E+01 0.  0.
     999903    2    3    3    0    0 -0.91099216311E-01  0.86234345539E-01 -0.38521200536E-01  0.13868709118E+00  0.44886488002E-01 0.  0.
         14    1    1    2    0    0  0.50344465085E-02  0.12951752696E-01  0.53197668401E-02  0.14879296650E-01  0.00000000000E+00 0. -1.
     999901    1    3    3    0    0  0.86064769803E-01 -0.99186098235E-01  0.33201433696E-01  0.89036361217E+00  0.88000000000E+00 0.  1.
        -11    1    4    4    0    0 -0.54152498606E-01  0.75061837705E-01 -0.15808552124E-01  0.93898583729E-01  0.51100000000E-03 0.  1.
         11    1    4    4    0    0 -0.36946717705E-01  0.11172507833E-01 -0.22712648412E-01  0.44788507448E-01  0.51100000000E-03 0. -1.
</event>
<event>
 8    1  0.2877139E+004  0.1043930E+01  0.7957747E-01            NaN
         13   -1    0    0    0    0  0.00000000000E+00  0.00000000000E+00  0.74505805969E-08  0.10566000000E+00  0.10566000000E+00 0. -1.
     999900   -1    0    0    0    0 -0.00000000000E+00 -0.00000000000E+00 -0.74505805969E-08  0.93827000000E+00  0.93827000000E+00 0. -1.
     999902    2    1    2    0    0  0.44371514461E-03  0.14740741577E-01 -0.17624381342E-02  0.10290776422E+01  0.10289704568E+01 0.  0.
     999903    2    3    3    0    0 -0.12137517918E+00  0.62508268301E-02 -0.50141924275E-01  0.13932908422E+00  0.46123466742E-01 0.  0.
         14    1    1    2    0    0 -0.44371514461E-03 -0.14740741577E-01  0.17624381342E-02  0.14852357844E-01  0.00000000000E+00 0.  1.
     999901    1    3    3    0    0  0.12181889432E+00  0.84899147466E-02  0.48379486141E-01  0.88974855793E+00  0.88000000000E+00 0.  1.
        -11    1    4    4    0    0 -0.60841260004E-01 -0.18466407580E-01 -0.33443346245E-01  0.71842784306E-01  0.51100000000E-03 0.  1.
         11    1    4    4    0    0 -0.60533919171E-01  0.24717234410E-01 -0.16698578030E-01  0.67486299916E-01  0.51100000000E-03 0. -1.
</event>
<event>
 8    1  0.2877139E+004  0.1043930E+01  0.7957747E-01            NaN
         13   -1    0    0    0    0  0.00000000000E+00  0.00000000000E+00  0.74505805969E-08  0.10566000000E+00  0.10566000000E+00 0. -1.
     999900   -1    0    0    0    0 -0.00000000000E+00 -0.00000000000E+00 -0.74505805969E-08  0.93827000000E+00  0.93827000000E+00 0.  1.
     999902    2    1    2    0    0 -0.12699016427E-01  0.57879962276E-02  0.69026089175E-03  0.10299570841E+01  0.10298622979E+01 0.  0.
     999903    2    3    3    0    0 -0.32665743225E-01  0.40805689346E-01  0.12224338580E+00  0.14068768106E+00  0.46015466609E-01 0.  0.
         14    1    1    2    0    0  0.12699016427E-01 -0.57879962276E-02 -0.69026089175E-03  0.13972915896E-01  0.00000000000E+00 0. -1.
     999901    1    3    3    0    0  0.19966726798E-01 -0.35017693118E-01 -0.12155312491E+00  0.88926940304E+00  0.88000000000E+00 0.  1.
        -11    1    4    4    0    0 -0.26984461045E-01  0.37088976091E-01  0.48965585449E-01  0.67094284144E-01  0.51100000000E-03 0. -1.
         11    1    4    4    0    0 -0.56812821796E-02  0.37167132542E-02  0.73277800352E-01  0.73593396918E-01  0.51100000000E-03 0.  1.
</event>
<event>
 8    1  0.2877139E+004  0.1043930E+01  0.7957747E-01            NaN
         13   -1    0    0    0    0  0.00000000000E+00  0.00000000000E+00  0.74505805969E-08  0.10566000000E+00  0.10566000000E+00 0. -1.
     999900   -1    0    0    0    0 -0.00000000000E+00 -0.00000000000E+00 -0.74505805969E-08  0.93827000000E+00  0.93827000000E+00 0. -1.
     999902    2    1    2    0    0  0.10846850096E-01 -0.11436395179E-01 -0.86073542880E-03  0.10281443686E+01  0.10280231790E+01 0.  0.
     999903    2    3    3    0    0  0.47252361877E-01  0.84207400772E-01 -0.87791230516E-01  0.13795899022E+00  0.44740482555E-01 0.  0.
         14    1    1    2    0    0 -0.10846850096E-01  0.11436395179E-01  0.86073542880E-03  0.15785631352E-01  0.00000000000E+00 0.  1.
     999901    1    3    3    0    0 -0.36405511781E-01 -0.95643795951E-01  0.86930495087E-01  0.89018537843E+00  0.88000000000E+00 0.  1.
        -11    1    4    4    0    0  0.34125474172E-01  0.56353668146E-01 -0.84262495426E-01  0.10696126943E+00  0.51100000000E-03 0.  1.
         11    1    4    4    0    0  0.13126887705E-01  0.27853732626E-01 -0.35287350898E-02  0.30997720793E-01  0.51100000000E-03 0. -1.
</event>
<event>
 8    1  0.2877139E+004  0.1043930E+01  0.7957747E-01            NaN
         13   -1    0    0    0    0  0.00000000000E+00  0.00000000000E+00  0.74505805969E-08  0.10566000000E+00  0.10566000000E+00 0.  1.
     999900   -1    0    0    0    0 -0.00000000000E+00 -0.00000000000E+00 -0.74505805969E-08  0.93827000000E+00  0.93827000000E+00 0. -1.
     999902    2    1    2    0    0  0.10297723288E-01  0.37769604810E-02  0.87331963722E-02  0.10299093989E+01  0.10298139603E+01 0.  0.
     999903    2    3    3    0    0  0.12786700128E+00 -0.83275645293E-03 -0.37953397506E-01  0.14085179525E+00  0.45255986812E-01 0.  0.
         14    1    1    2    0    0 -0.10297723288E-01 -0.37769604810E-02 -0.87331963722E-02  0.14020601066E-01  0.00000000000E+00 0. -1.
     999901    1    3    3    0    0 -0.11756927800E+00  0.46097169339E-02  0.46686593878E-01  0.88905760368E+00  0.88000000000E+00 0. -1.
        -11    1    4    4    0    0  0.19243750578E-01  0.14511055756E-01 -0.16112448776E-01  0.28995944579E-01  0.51100000000E-03 0. -1.
         11    1    4    4    0    0  0.10862325071E+00 -0.15343812209E-01 -0.21840948730E-01  0.11185585067E+00  0.51100000000E-03 0.  1.
</event>
<event>
 8    1  0.2877139E+004  0.1043930E+01  0.7957747E-01            NaN
         13   -1    0    0    0    0  0.00000000000E+00  0.00000000000E+00  0.74505805969E-08  0.10566000000E+00  0.10566000000E+00 0. -1.
     999900   -1    0    0    0    0 -0.00000000000E+00 -0.00000000000E+00 -0.74505805969E-08  0.93827000000E+00  0.93827000000E+00 0.  1.
     999902    2    1    2    0    0  0.56938685129E-02  0.11451036300E-01  0.43268888650E-02  0.10304293208E+01  0.10303408741E+01 0.  0.
     999903    2    3    3    0    0  0.43634999520E-02  0.10096576703E+00 -0.87697240615E-01  0.14111323680E+00  0.44822018526E-01 0.  0.
         14    1    1    2    0    0 -0.56938685129E-02 -0.11451036300E-01 -0.43268888650E-02  0.13500679177E-01  0.00000000000E+00 0.  1.
     999901    1    3    3    0    0  0.13303685609E-02 -0.89514730729E-01  0.92024129480E-01  0.88931608402E+00  0.88000000000E+00 0.  1.
        -11    1    4    4    0    0  0.19554713723E-01  0.38137898630E-01 -0.51589335391E-01  0.67071654131E-01  0.51100000000E-03 0. -1.
         11    1    4    4    0    0 -0.15191213771E-01  0.62827868399E-01 -0.36107905224E-01  0.74041582668E-01  0.51100000000E-03 0.  1.
</event>
<event>
 8    1  0.2877139E+004  0.1043930E+01  0.7957747E-01            NaN
         13   -1    0    0    0    0  0.00000000000E+00  0.00000000000E+00  0.74505805969E-08  0.10566000000E+00  0.10566000000E+00 0.  1.
     999900   -1    0    0    0    0 -0.00000000000E+00 -0.00000000000E+00 -0.74505805969E-08  0.93827000000E+00  0.93827000000E+00 0. -1.
     999902    2    1    2    0    0  0.14431341075E-01  0.57453965630E-02  0.13152820422E-01  0.10235763794E+01  0.10233739955E+01 0.  0.
     999903    2    3    3    0    0 -0.63142730677E-01  0.10911647255E+00 -0.50890003570E-02  0.13394944635E+00  0.44979409017E-01 0.  0.
         14    1    1    2    0    0 -0.14431341075E-01 -0.57453965630E-02 -0.13152820422E-01  0.20353620611E-01  0.00000000000E+00 0. -1.
     999901    1    3    3    0    0  0.77574071753E-01 -0.10337107598E+00  0.18241820779E-01  0.88962693304E+00  0.88000000000E+00 0.  1.
        -11    1    4    4    0    0  0.70429502754E-02  0.13566060834E-01 -0.51801519260E-03  0.15302634279E-01  0.51100000000E-03 0. -1.
         11    1    4    4    0    0 -0.70185680953E-01  0.95550411712E-01 -0.45709851644E-02  0.11864681207E+00  0.51100000000E-03 0.  1.
</event>
<event>
 8    1  0.2877139E+004  0.1043930E+01  0.7957747E-01            NaN
         13   -1    0    0    0    0  0.00000000000E+00  0.00000000000E+00  0.74505805969E-08  0.10566000000E+00  0.10566000000E+00 0.  1.
     999900   -1    0    0    0    0 -0.00000000000E+00 -0.00000000000E+00 -0.74505805969E-08  0.93827000000E+00  0.93827000000E+00 0.  1.
     999902    2    1    2    0    0 -0.32052774419E-02 -0.93363865371E-02  0.15494661265E-02  0.10339378650E+01  0.10338895811E+01 0.  0.
     999903    2    3    3    0    0  0.45911139387E-01  0.12494915279E+00 -0.21799407433E-01  0.14209135443E+00  0.44661116626E-01 0.  0.
         14    1    1    2    0    0  0.32052774419E-02  0.93363865371E-02 -0.15494661265E-02  0.99921350234E-02  0.00000000000E+00 0. -1.
     999901    1    3    3    0    0 -0.49116416829E-01 -0.13428553932E+00  0.23348873559E-01  0.89184651054E+00  0.88000000000E+00 0.  1.
        -11    1    4    4    0    0  0.25976462686E-01  0.52868616382E-01  0.11840307368E-01  0.60085948535E-01  0.51100000000E-03 0. -1.
         11    1    4    4    0    0  0.19934676701E-01  0.72080536404E-01 -0.33639714801E-01  0.82005405897E-01  0.51100000000E-03 0.  1.
</event>
<event>
 8    1  0.2877139E+004  0.1043930E+01  0.7957747E-01            NaN
         13   -1    0    0    0    0  0.00000000000E+00  0.00000000000E+00  0.74505805969E-08  0.10566000000E+00  0.10566000000E+00 0.  1.
     999900   -1    0    0    0    0 -0.00000000000E+00 -0.00000000000E+00 -0.74505805969E-08  0.93827000000E+00  0.93827000000E+00 0.  1.
     999902    2    1    2    0    0  0.12308429943E-01 -0.55769517272E-02  0.24119236875E-02  0.10302034850E+01  0.10301120343E+01 0.  0.
     999903    2    3    3    0    0 -0.50086274507E-01 -0.32102267564E-01  0.11845583769E+00  0.13999964233E+00  0.45043577696E-01 0.  0.
         14    1    1    2    0    0 -0.12308429943E-01  0.55769517272E-02 -0.24119236875E-02  0.13726515002E-01  0.00000000000E+00 0. -1.
     999901    1    3    3    0    0  0.62394704451E-01  0.26525315837E-01 -0.11604391401E+00  0.89020384267E+00  0.88000000000E+00 0.  1.
        -11    1    4    4    0    0 -0.34717407978E-02 -0.18984915469E-01  0.65287247922E-01  0.68082052420E-01  0.51100000000E-03 0. -1.
         11    1    4    4    0    0 -0.46614533709E-01 -0.13117352096E-01  0.53168589772E-01  0.71917589909E-01  0.51100000000E-03 0.  1.
</event>
<event>
 8    1  0.2877139E+004  0.1043930E+01  0.7957747E-01            NaN
         13   -1    0    0    0    0  0.00000000000E+00  0.00000000000E+00  0.74505805969E-08  0.10566000000E+00  0.10566000000E+00 0. -1.
     999900   -1    0    0    0    0 -0.00000000000E+00 -0.00000000000E+00 -0.74505805969E-08  0.93827000000E+00  0.93827000000E+00 0. -1.
     999902    2    1    2    0    0  0.12904996784E-01  0.37439578023E-03  0.13191583065E-01  0.10254720213E+01  0.10253058907E+01 0.  0.
     999903    2    3    3    0    0  0.10694644018E+00 -0.56235624226E-01  0.48868066209E-01  0.13793537479E+00  0.45145245866E-01 0.  0.
         14    1    1    2    0    0 -0.12904996784E-01 -0.37439578023E-03 -0.13191583065E-01  0.18457978707E-01  0.00000000000E+00 0.  1.
     999901    1    3    3    0    0 -0.94041443392E-01  0.56610020007E-01 -0.35676483144E-01  0.88753664651E+00  0.88000000000E+00 0. -1.
        -11    1    4    4    0    0  0.25386649975E-01  0.23809373323E-02 -0.15524158709E-02  0.25550381124E-01  0.51100000000E-03 0.  1.
         11    1    4    4    0    0  0.81559790201E-01 -0.58616561559E-01  0.50420482080E-01  0.11238499366E+00  0.51100000000E-03 0. -1.
</event>
<event>
 8    1  0.2877139E+004  0.1043930E+01  0.7957747E-01            NaN
         13   -1    0    0    0    0  0.00000000000E+00  0.00000000000E+00  0.74505805969E-08  0.10566000000E+00  0.10566000000E+00 0. -1.
     999900   -1    0    0    0    0 -0.00000000000E+00 -0.00000000000E+00 -0.74505805969E-08  0.93827000000E+00  0.93827000000E+00 0. -1.
     999902    2    1    2    0    0 -0.46147393374E-02 -0.12327385883E-01 -0.55430208325E-02  0.10296476563E+01  0.10295485956E+01 0.  0.
     999903    2    3    3    0    0 -0.75283009952E-01 -0.73147878239E-01 -0.83831666486E-01  0.14126584153E+00  0.43705217068E-01 0.  0.
         14    1    1    2    0    0  0.46147393374E-02  0.12327385883E-01  0.55430208325E-02  0.14282343708E-01  0.00000000000E+00 0. -1.
     999901    1    3    3    0    0  0.70668270615E-01  0.60820492356E-01  0.78288645653E-01  0.88838181476E+00  0.88000000000E+00 0.  1.
        -11    1    4    4    0    0 -0.53206522751E-01 -0.36494913667E-01 -0.26562185921E-01  0.69775523135E-01  0.51100000000E-03 0. -1.
         11    1    4    4    0    0 -0.22076487201E-01 -0.36652964572E-01 -0.57269480564E-01  0.71490318395E-01  0.51100000000E-03 0.  1.
</event>
<event>
 8    1  0.2877139E+004  0.1043930E+01  0.7957747E-01            NaN
         13   -1    0    0    0    0  0.00000000000E+00  0.00000000000E+00  0.74505805969E-08  0.10566000000E+00  0.10566000000E+00 0. -1.
     999900   -1    0    0    0    0 -0.00000000000E+00 -0.00000000000E+00 -0.74505805969E-08  0.93827000000E+00  0.93827000000E+00 0. -1.
     999902    2    1    2    0    0  0.46501217087E-02  0.90512365660E-02 -0.92020613678E-02  0.10302104356E+01  0.10301190781E+01 0.  0.
     999903    2    3    3    0    0  0.17555124972E-01  0.13264034468E+00  0.73045981552E-02  0.14132727306E+00  0.44926579054E-01 0.  0.
         14    1    1    2    0    0 -0.46501217087E-02 -0.90512365660E-02  0.92020613678E-02  0.13719564450E-01  0.00000000000E+00 0. -1.
     999901    1    3    3    0    0 -0.12905003263E-01 -0.12358910812E+00 -0.16506659523E-01  0.88888316249E+00  0.88000000000E+00 0. -1.
        -11    1    4    4    0    0  0.32276303424E-01  0.98483912456E-01  0.94430329993E-02  0.10406859646E+00  0.51100000000E-03 0.  1.
         11    1    4    4    0    0 -0.14721178452E-01  0.34156432226E-01 -0.21384348441E-02  0.37258676600E-01  0.51100000000E-03 0. -1.
</event>
<event>
 8    1  0.2877139E+004  0.1043930E+01  0.7957747E-01            NaN
         13   -1    0    0    0    0  0.00000000000E+00  0.00000000000E+00  0.74505805969E-08  0.10566000000E+00  0.10566000000E+00 0. -1.
     999900   -1    0    0    0    0 -0.00000000000E+00 -0.00000000000E+00 -0.74505805969E-08  0.93827000000E+00  0.93827000000E+00 0. -1.
     999902    2    1    2    0    0  0.77897650293E-02 -0.13142604297E-01  0.46607316087E-02  0.10279571823E+01  0.10278330787E+01 0.  0.
     999903    2    3    3    0    0 -0.46979668476E-01  0.79827135996E-01 -0.89553255935E-01  0.13637469091E+00  0.44708050522E-01 0.  0.
         14    1    1    2    0    0 -0.77897650293E-02  0.13142604297E-01 -0.46607316087E-02  0.15972817724E-01  0.00000000000E+00 0.  1.
     999901    1    3    3    0    0  0.54769433506E-01 -0.92969740293E-01  0.94213987543E-01  0.89158249136E+00  0.88000000000E+00 0.  1.
        -11    1    4    4    0    0 -0.26723647426E-01  0.13336247225E-01 -0.44307790281E-01  0.53436412888E-01  0.51100000000E-03 0. -1.
         11    1    4    4    0    0 -0.20256021050E-01  0.66490888771E-01 -0.45245465654E-01  0.82938278024E-01  0.51100000000E-03 0.  1.
</event>
<event>
 8    1  0.2877139E+004  0.1043930E+01  0.7957747E-01            NaN
         13   -1    0    0    0    0  0.00000000000E+00  0.00000000000E+00  0.74505805969E-08  0.10566000000E+00  0.10566000000E+00 0.  1.
     999900   -1    0    0    0    0 -0.00000000000E+00 -0.00000000000E+00 -0.74505805969E-08  0.93827000000E+00  0.93827000000E+00 0. -1.
     999902    2    1    2    0    0  0.10023454299E-01 -0.70408626715E-02 -0.62070229703E-02  0.10301979019E+01  0.10301063764E+01 0.  0.
     999903    2    3    3    0    0  0.10802816551E+00 -0.61263635813E-01  0.50148122529E-01  0.14131043157E+00  0.45060917196E-01 0.  0.
         14    1    1    2    0    0 -0.10023454299E-01  0.70408626715E-02  0.62070229703E-02  0.13732098070E-01  0.00000000000E+00 0.  1.
     999901    1    3    3    0    0 -0.98004711216E-01  0.54222773142E-01 -0.56355145499E-01  0.88888747036E+00  0.88000000000E+00 0. -1.
        -11    1    4    4    0    0  0.17617547404E-01 -0.13049166992E-01 -0.81817698138E-02  0.23406435312E-01  0.51100000000E-03 0. -1.
         11    1    4    4    0    0  0.90410618111E-01 -0.48214468821E-01  0.58329892343E-01  0.11790399625E+00  0.51100000000E-03 0.  1.
</event>
<event>
 8    1  0.2877139E+004  0.1043930E+01  0.7957747E-01            NaN
         13   -1    0    0    0    0  0.00000000000E+00  0.00000000000E+00  0.74505805969E-08  0.10566000000E+00  0.10566000000E+00 0.  1.
     999900   -1    0    0    0    0 -0.00000000000E+00 -0.00000000000E+00 -0.74505805969E-08  0.93827000000E+00  0.93827000000E+00 0.  1.
     999902    2    1    2    0    0 -0.48164623512E-02  0.31065659242E-02  0.12526417358E-01  0.10301546527E+01  0.10300625458E+01 0.  0.
     999903    2    3    3    0    0 -0.12436234683E+00 -0.38896439888E-01  0.28654535262E-01  0.14093275285E+00  0.45409603498E-01 0.  0.
         14    1    1    2    0    0  0.48164623512E-02 -0.31065659242E-02 -0.12526417358E-01  0.13775347300E-01  0.00000000000E+00 0. -1.
     999901    1    3    3    0    0  0.11954588447E+00  0.42003005813E-01 -0.16128117904E-01  0.88922189985E+00  0.88000000000E+00 0. -1.
        -11    1    4    4    0    0 -0.80607059125E-01 -0.30694422070E-01  0.39866479313E-01  0.95022328012E-01  0.51100000000E-03 0.  1.
         11    1    4    4    0    0 -0.43755287700E-01 -0.82020178179E-02 -0.11211944051E-01  0.45910424834E-01  0.51100000000E-03 0. -1.
</event>
<event>
 8    1  0.2877139E+004  0.1043930E+01  0.7957747E-01            NaN
         13   -1    0    0    0    0  0.00000000000E+00  0.00000000000E+00  0.74505805969E-08  0.10566000000E+00  0.10566000000E+00 0. -1.
     999900   -1    0    0    0    0 -0.00000000000E+00 -0.00000000000E+00 -0.74505805969E-08  0.93827000000E+00  0.93827000000E+00 0.  1.
     999902    2    1    2    0    0 -0.12985283417E-01  0.70270821035E-02 -0.28010841102E-02  0.10289019083E+01  0.10287921526E+01 0.  0.
     999903    2    3    3    0    0 -0.12594570318E+00  0.60128058484E-02 -0.43818900954E-01  0.14073326074E+00  0.44578925671E-01 0.  0.
         14    1    1    2    0    0  0.12985283417E-01 -0.70270821035E-02  0.28010841102E-02  0.15028091712E-01  0.00000000000E+00 0. -1.
     999901    1    3    3    0    0  0.11296041976E+00  0.10142762551E-02  0.41017816844E-01  0.88816864755E+00  0.88000000000E+00 0. -1.
        -11    1    4    4    0    0 -0.80627574001E-01  0.14241314834E-01 -0.77758883777E-02  0.82245646077E-01  0.51100000000E-03 0. -1.
         11    1    4    4    0    0 -0.45318129178E-01 -0.82285089855E-02 -0.36043012576E-01  0.58487614663E-01  0.51100000000E-03 0.  1.
</event>
<event>
 8    1  0.2877139E+004  0.1043930E+01  0.7957747E-01            NaN
         13   -1    0    0    0    0  0.00000000000E+00  0.00000000000E+00  0.74505805969E-08  0.10566000000E+00  0.10566000000E+00 0.  1.
     999900   -1    0    0    0    0 -0.00000000000E+00 -0.00000000000E+00 -0.74505805969E-08  0.93827000000E+00  0.93827000000E+00 0.  1.
     999902    2    1    2    0    0 -0.11069368934E-01  0.58207606258E-02 -0.52273701510E-02  0.10303750164E+01  0.10302858520E+01 0.  0.
     999903    2    3    3    0    0 -0.11755548625E+00  0.65408864369E-01 -0.12975484486E-02  0.14194635924E+00  0.45271109826E-01 0.  0.
         14    1    1    2    0    0  0.11069368934E-01 -0.58207606258E-02  0.52273701510E-02  0.13554983643E-01  0.00000000000E+00 0. -1.
     999901    1    3    3    0    0  0.10648611731E+00 -0.59588103743E-01 -0.39298217024E-02  0.88842865712E+00  0.88000000000E+00 0.  1.
        -11    1    4    4    0    0 -0.55174433653E-01  0.56329985859E-01  0.11260584951E-02  0.78859460844E-01  0.51100000000E-03 0.  1.
         11    1    4    4    0    0 -0.62381052594E-01  0.90788785099E-02 -0.24236069437E-02  0.63086898397E-01  0.51100000000E-03 0. -1.
</event>
<event>
 8    1  0.2877139E+004  0.1043930E+01  0.7957747E-01            NaN
         13   -1    0    0    0    0  0.00000000000E+00  0.00000000000E+00  0.74505805969E-08  0.10566000000E+00  0.10566000000E+00 0. -1.
     999900   -1    0    0    0    0 -0.00000000000E+00 -0.00000000000E+00 -0.74505805969E-08  0.93827000000E+00  0.93827000000E+00 0. -1.
     999902    2    1    2    0    0 -0.15730398031E-01  0.94884669343E-03  0.74338161402E-02  0.10265056677E+01  0.10263577732E+01 0.  0.
     999903    2    3    3    0    0  0.95456302230E-01  0.26598158119E-01 -0.79824609434E-01  0.13485865108E+00  0.44671241851E-01 0.  0.
         14    1    1    2    0    0  0.15730398031E-01 -0.94884669343E-03 -0.74338161402E-02  0.17424332259E-01  0.00000000000E+00 0. -1.
     999901    1    3    3    0    0 -0.11118670026E+00 -0.25649311425E-01  0.87258425574E-01  0.89164701666E+00  0.88000000000E+00 0.  1.
        -11    1    4    4    0    0  0.91107045807E-01  0.34855613890E-01 -0.78906722341E-01  0.12546688634E+00  0.51100000000E-03 0.  1.
         11    1    4    4    0    0  0.43492564233E-02 -0.82574557711E-02 -0.91788709291E-03  0.93917647416E-02  0.51100000000E-03 0. -1.
</event>
<event>
 8    1  0.2877139E+004  0.1043930E+01  0.7957747E-01            NaN
         13   -1    0    0    0    0  0.00000000000E+00  0.00000000000E+00  0.74505805969E-08  0.10566000000E+00  0.10566000000E+00 0.  1.
     999900   -1    0    0    0    0 -0.00000000000E+00 -0.00000000000E+00 -0.74505805969E-08  0.93827000000E+00  0.93827000000E+00 0. -1.
     999902    2    1    2    0    0  0.12147523850E-01  0.28540918019E-02  0.27060310656E-02  0.10311616493E+01  0.10310825943E+01 0.  0.
     999903    2    3    3    0    0 -0.12487756295E+00 -0.44725620807E-02 -0.39604114581E-01  0.13952287563E+00  0.47788465057E-01 0.  0.
         14    1    1    2    0    0 -0.12147523850E-01 -0.28540918019E-02 -0.27060310656E-02  0.12768350709E-01  0.00000000000E+00 0. -1.
     999901    1    3    3    0    0  0.13702508680E+00  0.73266538826E-02  0.42310145647E-01  0.89163877366E+00  0.88000000000E+00 0.  1.
        -11    1    4    4    0    0 -0.19400191246E-01 -0.92096968239E-02  0.89969487407E-02  0.23289313936E-01  0.51100000000E-03 0. -1.
         11    1    4    4    0    0 -0.10547737170E+00  0.47371347432E-02 -0.48601063322E-01  0.11623356169E+00  0.51100000000E-03 0.  1.
</event>
<event>
 8    1  0.2877139E+004  0.1043930E+01  0.7957747E-01            NaN
         13   -1    0    0    0    0  0.00000000000E+00  0.00000000000E+00  0.74505805969E-08  0.10566000000E+00  0.10566000000E+00 0.  1.
     999900   -1    0    0    0    0 -0.00000000000E+00 -0.00000000000E+00 -0.74505805969E-08  0.93827000000E+00  0.93827000000E+00 0. -1.
     999902    2    1    2    0    0 -0.12425227194E-01 -0.61711998322E-02  0.33279452011E-03  0.10300526541E+01  0.10299591688E+01 0.  0.
     999903    2    3    3    0    0 -0.10559004998E+00 -0.18972147733E-02 -0.82012157932E-01  0.14130148396E+00  0.45686510504E-01 0.  0.
         14    1    1    2    0    0  0.12425227194E-01  0.61711998322E-02 -0.33279452011E-03  0.13877345942E-01  0.00000000000E+00 0.  1.
     999901    1    3    3    0    0  0.93164822789E-01 -0.42739850589E-02  0.82344952452E-01  0.88875117010E+00  0.88000000000E+00 0.  1.
        -11    1    4    4    0    0 -0.18304448806E-01 -0.60686422723E-02 -0.39853272081E-01  0.44276694566E-01  0.51100000000E-03 0.  1.
         11    1    4    4    0    0 -0.87285601177E-01  0.41714274991E-02 -0.42158885850E-01  0.97024789396E-01  0.51100000000E-03 0. -1.
</event>
<event>
 8    1  0.2877139E+004  0.1043930E+01  0.7957747E-01            NaN
         13   -1    0    0    0    0  0.00000000000E+00  0.00000000000E+00  0.74505805969E-08  0.10566000000E+00  0.10566000000E+00 0.  1.
     999900   -1    0    0    0    0 -0.00000000000E+00 -0.00000000000E+00 -0.74505805969E-08  0.93827000000E+00  0.93827000000E+00 0. -1.
     999902    2    1    2    0    0 -0.36179981735E-02  0.11859718574E-01  0.70364333769E-02  0.10296732742E+01  0.10295745711E+01 0.  0.
     999903    2    3    3    0    0  0.63163017933E-01 -0.10726259205E+00  0.40452682609E-01  0.13851308956E+00  0.45327982093E-01 0.  0.
         14    1    1    2    0    0  0.36179981735E-02 -0.11859718574E-01 -0.70364333769E-02  0.14256725785E-01  0.00000000000E+00 0. -1.
     999901    1    3    3    0    0 -0.66781016106E-01  0.11912231063E+00 -0.33416249232E-01  0.89116018466E+00  0.88000000000E+00 0.  1.
        -11    1    4    4    0    0  0.35750345230E-02 -0.48742632458E-01  0.12643194244E-01  0.50485013345E-01  0.51100000000E-03 0. -1.
         11    1    4    4    0    0  0.59587983410E-01 -0.58519959597E-01  0.27809488365E-01  0.88028076215E-01  0.51100000000E-03 0.  1.
</event>
<event>
 8    1  0.2877139E+004  0.1043930E+01  0.7957747E-01            NaN
         13   -1    0    0    0    0  0.00000000000E+00  0.00000000000E+00  0.74505805969E-08  0.10566000000E+00  0.10566000000E+00 0.  1.
     999900   -1    0    0    0    0 -0.00000000000E+00 -0.00000000000E+00 -0.74505805969E-08  0.93827000000E+00  0.93827000000E+00 0.  1.
     999902    2    1    2    0    0 -0.76545104703E-02  0.11286798428E-01  0.51301099457E-02  0.10293594346E+01  0.10292563063E+01 0.  0.
     999903    2    3    3    0    0  0.24183968288E-01 -0.23331467082E-01  0.12755108683E+00  0.13964093491E+00  0.45837640339E-01 0.  0.
         14    1    1    2    0    0  0.76545104703E-02 -0.11286798428E-01 -0.51301099457E-02  0.14570565444E-01  0.00000000000E+00 0. -1.
     999901    1    3    3    0    0 -0.31838478758E-01  0.34618265510E-01 -0.12242097688E+00  0.88971849965E+00  0.88000000000E+00 0.  1.
        -11    1    4    4    0    0 -0.41089788221E-02 -0.18792271377E-02  0.80825783564E-01  0.80953589243E-01  0.51100000000E-03 0. -1.
         11    1    4    4    0    0  0.28292947110E-01 -0.21452239944E-01  0.46725303266E-01  0.58687345664E-01  0.51100000000E-03 0.  1.
</event>
<event>
 8    1  0.2877139E+004  0.1043930E+01  0.7957747E-01            NaN
         13   -1    0    0    0    0  0.00000000000E+00  0.00000000000E+00  0.74505805969E-08  0.10566000000E+00  0.10566000000E+00 0.  1.
     999900   -1    0    0    0    0 -0.00000000000E+00 -0.00000000000E+00 -0.74505805969E-08  0.93827000000E+00  0.93827000000E+00 0. -1.
     999902    2    1    2    0    0 -0.34400334154E-02 -0.26402031206E-02 -0.12718627439E-01  0.10304924412E+01  0.10304048250E+01 0.  0.
     999903    2    3    3    0    0 -0.31754932690E-01 -0.12811386092E+00  0.18951405853E-01  0.14057763442E+00  0.44512676927E-01 0.  0.
         14    1    1    2    0    0  0.34400334154E-02  0.26402031206E-02  0.12718627439E-01  0.13437558794E-01  0.00000000000E+00 0.  1.
     999901    1    3    3    0    0  0.28314899275E-01  0.12547365780E+00 -0.31670033292E-01  0.88991480678E+00  0.88000000000E+00 0.  1.
        -11    1    4    4    0    0 -0.27441516886E-01 -0.39257238310E-01  0.19225678710E-01  0.51614488776E-01  0.51100000000E-03 0. -1.
         11    1    4    4    0    0 -0.43134158039E-02 -0.88856622606E-01 -0.27427285693E-03  0.88963145647E-01  0.51100000000E-03 0.  1.
</event>
<event>
 8    1  0.2877139E+004  0.1043930E+01  0.7957747E-01            NaN
         13   -1    0    0    0    0  0.00000000000E+00  0.00000000000E+00  0.74505805969E-08  0.10566000000E+00  0.10566000000E+00 0. -1.
     999900   -1    0    0    0    0 -0.00000000000E+00 -0.00000000000E+00 -0.74505805969E-08  0.93827000000E+00  0.93827000000E+00 0.  1.
     999902    2    1    2    0    0  0.10589949792E-01  0.10539483965E-01  0.52217555752E-02  0.10281029823E+01  0.10279811514E+01 0.  0.
     999903    2    3    3    0    0  0.59277239154E-01  0.42371189325E-01 -0.10872231070E+00  0.13885219658E+00  0.46371142797E-01 0.  0.
         14    1    1    2    0    0 -0.10589949792E-01 -0.10539483965E-01 -0.52217555752E-02  0.15827017727E-01  0.00000000000E+00 0.  1.
     999901    1    3    3    0    0 -0.48687289362E-01 -0.31831705360E-01  0.11394406628E+00  0.88925078569E+00  0.88000000000E+00 0. -1.
        -11    1    4    4    0    0  0.46961656617E-01  0.63214421601E-02 -0.69981871380E-01  0.84516751393E-01  0.51100000000E-03 0. -1.
         11    1    4    4    0    0  0.12315582537E-01  0.36049747165E-01 -0.38740439325E-01  0.54335445189E-01  0.51100000000E-03 0.  1.
</event>
<event>
 8    1  0.2877139E+004  0.1043930E+01  0.7957747E-01            NaN
         13   -1    0    0    0    0  0.00000000000E+00  0.00000000000E+00  0.74505805969E-08  0.10566000000E+00  0.10566000000E+00 0. -1.
     999900   -1    0    0    0    0 -0.00000000000E+00 -0.00000000000E+00 -0.74505805969E-08  0.93827000000E+00  0.93827000000E+00 0. -1.
     999902    2    1    2    0    0  0.30343421418E-03 -0.14596856027E-02  0.12387694634E-01  0.10314529117E+01  0.10313774437E+01 0.  0.
     999903    2    3    3    0    0  0.12212699557E+00  0.48979782336E-01 -0.26255431936E-01  0.14079112893E+00  0.42647065037E-01 0.  0.
         14    1    1    2    0    0 -0.30343421418E-03  0.14596856027E-02 -0.12387694634E-01  0.12477088311E-01  0.00000000000E+00 0.  1.
     999901    1    3    3    0    0 -0.12182356135E+00 -0.50439467939E-01  0.38643126570E-01  0.89066178275E+00  0.88000000000E+00 0.  1.
        -11    1    4    4    0    0  0.16999187668E-01  0.24469504698E-01 -0.11026246417E-01  0.31773704106E-01  0.51100000000E-03 0. -1.
         11    1    4    4    0    0  0.10512780790E+00  0.24510277639E-01 -0.15229185518E-01  0.10901742483E+00  0.51100000000E-03 0.  1.
</event>
<event>
 8    1  0.2877139E+004  0.1043930E+01  0.7957747E-01            NaN
         13   -1    0    0    0    0  0.00000000000E+00  0.00000000000E+00  0.74505805969E-08  0.10566000000E+00  0.10566000000E+00 0.  1.
     999900   -1    0    0    0    0 -0.00000000000E+00 -0.00000000000E+00 -0.74505805969E-08  0.93827000000E+00  0.93827000000E+00 0.  1.
     999902    2    1    2    0    0 -0.10245692099E-01 -0.58685164820E-02  0.76757218909E-02  0.10298470174E+01  0.10297507217E+01 0.  0.
     999903    2    3    3    0    0  0.82568793042E-01 -0.58277711732E-01 -0.83799573073E-01  0.13870786890E+00  0.44761670872E-01 0.  0.
         14    1    1    2    0    0  0.10245692099E-01  0.58685164820E-02 -0.76757218909E-02  0.14082982598E-01  0.00000000000E+00 0. -1.
     999901    1    3    3    0    0 -0.92814485142E-01  0.52409195250E-01  0.91475294964E-01  0.89113914850E+00  0.88000000000E+00 0. -1.
        -11    1    4    4    0    0  0.55434762733E-01 -0.55443277076E-01 -0.78429065404E-01  0.11089792294E+00  0.51100000000E-03 0. -1.
         11    1    4    4    0    0  0.27134030309E-01 -0.28344346563E-02 -0.53705076698E-02  0.27809945959E-01  0.51100000000E-03 0.  1.
</event>
<event>
 8    1  0.2877139E+004  0.1043930E+01  0.7957747E-01            NaN
         13   -1    0    0    0    0  0.00000000000E+00  0.00000000000E+00  0.74505805969E-08  0.10566000000E+00  0.10566000000E+00 0. -1.
     999900   -1    0    0    0    0 -0.00000000000E+00 -0.00000000000E+00 -0.74505805969E-08  0.93827000000E+00  0.93827000000E+00 0.  1.
     999902    2    1    2    0    0 -0.57888594756E-02 -0.11346656502E-01 -0.56836167404E-02  0.10299814873E+01  0.10298870342E+01 0.  0.
     999903    2    3    3    0    0  0.86670943621E-01 -0.14602020809E-02 -0.10044712795E+00  0.14002267912E+00  0.44751988744E-01 0.  0.
         14    1    1    2    0    0  0.57888594756E-02  0.11346656502E-01  0.56836167404E-02  0.13948512718E-01  0.00000000000E+00 0. -1.
     999901    1    3    3    0    0 -0.92459803097E-01 -0.98864544206E-02  0.94763511207E-01  0.88995880816E+00  0.88000000000E+00 0. -1.
        -11    1    4    4    0    0  0.55747478988E-02  0.13792418205E-01 -0.12670732308E-01  0.19547818095E-01  0.51100000000E-03 0.  1.
         11    1    4    4    0    0  0.81096195723E-01 -0.15252620286E-01 -0.87776395640E-01  0.12047486102E+00  0.51100000000E-03 0. -1.
</event>
<event>
 8    1  0.2877139E+004  0.1043930E+01  0.7957747E-01            NaN
         13   -1    0    0    0    0  0.00000000000E+00  0.00000000000E+00  0.74505805969E-08  0.10566000000E+00  0.10566000000E+00 0.  1.
     999900   -1    0    0    0    0 -0.00000000000E+00 -0.00000000000E+00 -0.74505805969E-08  0.93827000000E+00  0.93827000000E+00 0. -1.
     999902    2    1    2    0    0  0.11538866378E-01  0.62997404703E-02 -0.27792592076E-02  0.10304928705E+01  0.10304052599E+01 0.  0.
     999903    2    3    3    0    0  0.29582689848E-01  0.83468082910E-01 -0.99871159903E-01  0.14161303058E+00  0.47306928113E-01 0.  0.
         14    1    1    2    0    0 -0.11538866378E-01 -0.62997404703E-02  0.27792592076E-02  0.13437129494E-01  0.00000000000E+00 0.  1.
     999901    1    3    3    0    0 -0.18043823469E-01 -0.77168342440E-01  0.97091900695E-01  0.88887983992E+00  0.88000000000E+00 0.  1.
        -11    1    4    4    0    0  0.40126532991E-01  0.66203658719E-01 -0.91117947900E-01  0.11956506441E+00  0.51100000000E-03 0. -1.
         11    1    4    4    0    0 -0.10543843143E-01  0.17264424191E-01 -0.87532120022E-02  0.22047966170E-01  0.51100000000E-03 0.  1.
</event>
<event>
 8    1  0.2877139E+004  0.1043930E+01  0.7957747E-01            NaN
         13   -1    0    0    0    0  0.00000000000E+00  0.00000000000E+00  0.74505805969E-08  0.10566000000E+00  0.10566000000E+00 0. -1.
     999900   -1    0    0    0    0 -0.00000000000E+00 -0.00000000000E+00 -0.74505805969E-08  0.93827000000E+00  0.93827000000E+00 0. -1.
     999902    2    1    2    0    0  0.31515060797E-02 -0.10047598296E-01  0.12741987717E-01  0.10273998919E+01  0.10272669047E+01 0.  0.
     999903    2    3    3    0    0  0.69562257632E-01 -0.11067208599E+00 -0.12104949158E-01  0.13883191719E+00  0.45172482020E-01 0.  0.
         14    1    1    2    0    0 -0.31515060797E-02  0.10047598296E-01 -0.12741987717E-01  0.16530108078E-01  0.00000000000E+00 0.  1.
     999901    1    3    3    0    0 -0.66410751552E-01  0.10062448770E+00  0.24846936876E-01  0.88856797473E+00  0.88000000000E+00 0. -1.
        -11    1    4    4    0    0  0.84317173359E-02 -0.51620759321E-01 -0.12729383046E-01  0.53833957349E-01  0.51100000000E-03 0. -1.
         11    1    4    4    0    0  0.61130540296E-01 -0.59051326672E-01  0.62443388727E-03  0.84997959841E-01  0.51100000000E-03 0.  1.
</event>
<event>
 7    1  0.2877139E+004  0.1043930E+01  0.7957747E-01            NaN
         13   -1    0    0    0    0  0.00000000000E+00  0.00000000000E+00  0.74505805969E-08  0.10566000000E+00  0.10566000000E+00 0. -1.
     999900   -1    0    0    0    0 -0.00000000000E+00 -0.00000000000E+00 -0.74505805969E-08  0.93827000000E+00  0.93827000000E+00 0. -1.
     999903    2    1    2    0    0 -0.15764704839E-01  0.11662954294E+00 -0.27675834354E-01  0.12963813175E+00  0.46788002637E-01 0.  0.
         14    1    1    2    0    0 -0.48242515503E-02 -0.23343029080E-01  0.16609553655E-01  0.29052498726E-01  0.00000000000E+00 0. -1.
     999901    1    1    2    0    0  0.20588956390E-01 -0.93286513859E-01  0.11066280699E-01  0.88523936953E+00  0.88000000000E+00 0.  1.
        -11    1    3    3    0    0  0.76700800905E-02  0.40967125605E-01 -0.28377263502E-01  0.50424852145E-01  0.51100000000E-03 0.  1.
         11    1    3    3    0    0 -0.23434784930E-01  0.75662417333E-01  0.70142914761E-03  0.79213279601E-01  0.51100000000E-03 0. -1.
</event>
<event>
 8    1  0.2877139E+004  0.1043930E+01  0.7957747E-01            NaN
         13   -1    0    0    0    0  0.00000000000E+00  0.00000000000E+00  0.74505805969E-08  0.10566000000E+00  0.10566000000E+00 0. -1.
     999900   -1    0    0    0    0 -0.00000000000E+00 -0.00000000000E+00 -0.74505805969E-08  0.93827000000E+00  0.93827000000E+00 0. -1.
     999902    2    1    2    0    0 -0.44706813397E-02  0.88061445363E-02 -0.50566517000E-02  0.10328347353E+01  0.10327751379E+01 0.  0.
     999903    2    3    3    0    0  0.11508020493E+00  0.37443039283E-01  0.59318600431E-01  0.14196063684E+00  0.44594745181E-01 0.  0.
         14    1    1    2    0    0  0.44706813397E-02 -0.88061445363E-02  0.50566517000E-02  0.11095264740E-01  0.00000000000E+00 0.  1.
     999901    1    3    3    0    0 -0.11955088627E+00 -0.28636894747E-01 -0.64375252131E-01  0.89087409842E+00  0.88000000000E+00 0.  1.
        -11    1    4    4    0    0  0.26319423836E-01  0.36120119599E-02 -0.52735639978E-02  0.27089302311E-01  0.51100000000E-03 0. -1.
         11    1    4    4    0    0  0.88760781093E-01  0.33831027323E-01  0.64592164428E-01  0.11487133453E+00  0.51100000000E-03 0.  1.
</event>
<event>
 8    1  0.2877139E+004  0.1043930E+01  0.7957747E-01            NaN
         13   -1    0    0    0    0  0.00000000000E+00  0.00000000000E+00  0.74505805969E-08  0.10566000000E+00  0.10566000000E+00 0.  1.
     999900   -1    0    0    0    0 -0.00000000000E+00 -0.00000000000E+00 -0.74505805969E-08  0.93827000000E+00  0.93827000000E+00 0. -1.
     999902    2    1    2    0    0 -0.10179403702E-01  0.27770259539E-02 -0.71213994639E-02  0.10312002528E+01  0.10311216781E+01 0.  0.
     999903    2    3    3    0    0  0.42958395295E-01  0.65275623591E-02 -0.12671213241E+00  0.14151511997E+00  0.45634766189E-01 0.  0.
         14    1    1    2    0    0  0.10179403702E-01 -0.27770259539E-02  0.71213994639E-02  0.12729747177E-01  0.00000000000E+00 0.  1.
     999901    1    3    3    0    0 -0.53137798997E-01 -0.37505364052E-02  0.11959073294E+00  0.88968513285E+00  0.88000000000E+00 0.  1.
        -11    1    4    4    0    0  0.47842801311E-01 -0.33436772745E-02 -0.11828161874E+00  0.12763587375E+00  0.51100000000E-03 0.  1.
         11    1    4    4    0    0 -0.48844060159E-02  0.98712396336E-02 -0.84305136660E-02  0.13879246222E-01  0.51100000000E-03 0. -1.
</event>
<event>
 8    1  0.2877139E+004  0.1043930E+01  0.7957747E-01            NaN
         13   -1    0    0    0    0  0.00000000000E+00  0.00000000000E+00  0.74505805969E-08  0.10566000000E+00  0.10566000000E+00 0. -1.
     999900   -1    0    0    0    0 -0.00000000000E+00 -0.00000000000E+00 -0.74505805969E-08  0.93827000000E+00  0.93827000000E+00 0.  1.
     999902    2    1    2    0    0 -0.12921328526E-01 -0.82548704333E-03 -0.12756228269E-02  0.10309196436E+01  0.10308375440E+01 0.  0.
     999903    2    3    3    0    0  0.12601552854E+00  0.38733293117E-03 -0.38100432375E-01  0.13925771901E+00  0.45398302804E-01 0.  0.
         14    1    1    2    0    0  0.12921328526E-01  0.82548704333E-03  0.12756228269E-02  0.13010356388E-01  0.00000000000E+00 0.  1.
     999901    1    3    3    0    0 -0.13893685707E+00 -0.12128199745E-02  0.36824809548E-01  0.89166192460E+00  0.88000000000E+00 0. -1.
        -11    1    4    4    0    0  0.39418383454E-01 -0.20254627656E-01 -0.18920113710E-01  0.48190151685E-01  0.51100000000E-03 0. -1.
         11    1    4    4    0    0  0.86597145085E-01  0.20641960587E-01 -0.19180318665E-01  0.91067567327E-01  0.51100000000E-03 0.  1.
</event>
<event>
 8    1  0.2877139E+004  0.1043930E+01  0.7957747E-01            NaN
         13   -1    0    0    0    0  0.00000000000E+00  0.00000000000E+00  0.74505805969E-08  0.10566000000E+00  0.10566000000E+00 0.  1.
     999900   -1    0    0    0    0 -0.00000000000E+00 -0.00000000000E+00 -0.74505805969E-08  0.93827000000E+00  0.93827000000E+00 0.  1.
     999902    2    1    2    0    0 -0.69350069107E-02  0.93957466287E-02  0.11283830579E-01  0.10276911821E+01  0.10275628771E+01 0.  0.
     999903    2    3    3    0    0 -0.25180838091E-01 -0.89286651739E-01  0.92355120768E-01  0.13828481813E+00  0.44576247127E-01 0.  0.
         14    1    1    2    0    0  0.69350069107E-02 -0.93957466287E-02 -0.11283830579E-01  0.16238817940E-01  0.00000000000E+00 0. -1.
     999901    1    3    3    0    0  0.18245831181E-01  0.98682398368E-01 -0.81071290189E-01  0.88940636393E+00  0.88000000000E+00 0.  1.
        -11    1    4    4    0    0  0.73757456876E-02 -0.30689059505E-01  0.49539181356E-01  0.58741906746E-01  0.51100000000E-03 0.  1.
         11    1    4    4    0    0 -0.32556583779E-01 -0.58597592234E-01  0.42815939412E-01  0.79542911386E-01  0.51100000000E-03 0. -1.
</event>
<event>
 8    1  0.2877139E+004  0.1043930E+01  0.7957747E-01            NaN
         13   -1    0    0    0    0  0.00000000000E+00  0.00000000000E+00  0.74505805969E-08  0.10566000000E+00  0.10566000000E+00 0.  1.
     999900   -1    0    0    0    0 -0.00000000000E+00 -0.00000000000E+00 -0.74505805969E-08  0.93827000000E+00  0.93827000000E+00 0. -1.
     999902    2    1    2    0    0 -0.11109470468E-01  0.72464969751E-02  0.25761516103E-02  0.10304182048E+01  0.10303296114E+01 0.  0.
     999903    2    3    3    0    0  0.33265004744E-01  0.99386218518E-01 -0.82492175823E-01  0.14042076510E+00  0.43918688814E-01 0.  0.
         14    1    1    2    0    0  0.11109470468E-01 -0.72464969751E-02 -0.25761516103E-02  0.13511795203E-01  0.00000000000E+00 0. -1.
     999901    1    3    3    0    0 -0.44374475212E-01 -0.92139721543E-01  0.85068327433E-01  0.88999743970E+00  0.88000000000E+00 0.  1.
        -11    1    4    4    0    0  0.36649569625E-02  0.68733054305E-01 -0.37237801933E-01  0.78259693824E-01  0.51100000000E-03 0.  1.
         11    1    4    4    0    0  0.29600047782E-01  0.30653164213E-01 -0.45254373889E-01  0.62161071275E-01  0.51100000000E-03 0. -1.
</event>
<event>
 8    1  0.2877139E+004  0.1043930E+01  0.7957747E-01            NaN
         13   -1    0    0    0    0  0.00000000000E+00  0.00000000000E+00  0.74505805969E-08  0.10566000000E+00  0.10566000000E+00 0. -1.
     999900   -1    0    0    0    0 -0.00000000000E+00 -0.00000000000E+00 -0.74505805969E-08  0.93827000000E+00  0.93827000000E+00 0. -1.
     999902    2    1    2    0    0  0.88769704662E-02 -0.39450221272E-02  0.96909347572E-02  0.10302085562E+01  0.10301171735E+01 0.  0.
     999903    2    3    3    0    0  0.12351412810E+00  0.24609174338E-01 -0.43535745164E-01  0.14071988311E+00  0.45225801198E-01 0.  0.
         14    1    1    2    0    0 -0.88769704662E-02  0.39450221272E-02 -0.96909347572E-02  0.13721443828E-01  0.00000000000E+00 0.  1.
     999901    1    3    3    0    0 -0.11463715764E+00 -0.28554196465E-01  0.53226679922E-01  0.88948867306E+00  0.88000000000E+00 0.  1.
        -11    1    4    4    0    0  0.42406665582E-01  0.30883508261E-01 -0.17395274124E-01  0.55271810637E-01  0.51100000000E-03 0.  1.
         11    1    4    4    0    0  0.81107462520E-01 -0.62743339229E-02 -0.26140471040E-01  0.85448072475E-01  0.51100000000E-03 0. -1.
</event>
<event>
 8    1  0.2877139E+004  0.1043930E+01  0.7957747E-01            NaN
         13   -1    0    0    0    0  0.00000000000E+00  0.00000000000E+00  0.74505805969E-08  0.10566000000E+00  0.10566000000E+00 0.  1.
     999900   -1    0    0    0    0 -0.00000000000E+00 -0.00000000000E+00 -0.74505805969E-08  0.93827000000E+00  0.93827000000E+00 0. -1.
     999902    2    1    2    0    0  0.65977126327E-02 -0.77195894331E-02 -0.88112966126E-02  0.10304852679E+01  0.10303975575E+01 0.  0.
     999903    2    3    3    0    0  0.10508990147E+00  0.36815960637E-01 -0.74116733179E-01  0.14146956134E+00  0.46054796701E-01 0.  0.
         14    1    1    2    0    0 -0.65977126327E-02  0.77195894331E-02  0.88112966126E-02  0.13444732091E-01  0.00000000000E+00 0.  1.
     999901    1    3    3    0    0 -0.98492188841E-01 -0.44535550070E-01  0.65305436566E-01  0.88901570657E+00  0.88000000000E+00 0.  1.
        -11    1    4    4    0    0  0.81187408504E-01  0.93162286578E-02 -0.37860615992E-01  0.90065946840E-01  0.51100000000E-03 0.  1.
         11    1    4    4    0    0  0.23902492969E-01  0.27499731979E-01 -0.36256117187E-01  0.51403614499E-01  0.51100000000E-03 0. -1.
</event>
<event>
 8    1  0.2877139E+004  0.1043930E+01  0.7957747E-01            NaN
         13   -1    0    0    0    0  0.00000000000E+00  0.00000000000E+00  0.74505805969E-08  0.10566000000E+00  0.10566000000E+00 0. -1.
     999900   -1    0    0    0    0 -0.00000000000E+00 -0.00000000000E+00 -0.74505805969E-08  0.93827000000E+00  0.93827000000E+00 0. -1.
     999902    2    1    2    0    0 -0.10292986670E-01 -0.11176760011E-02  0.89758745888E-02  0.10302274054E+01  0.10301362753E+01 0.  0.
     999903    2    3    3    0    0 -0.85811339331E-01 -0.40858218015E-01  0.95111413786E-01  0.14191346124E+00  0.45390191804E-01 0.  0.
         14    1    1    2    0    0  0.10292986670E-01  0.11176760011E-02 -0.89758745888E-02  0.13702594603E-01  0.00000000000E+00 0.  1.
     999901    1    3    3    0    0  0.75518352661E-01  0.39740542014E-01 -0.86135539197E-01  0.88831394416E+00  0.88000000000E+00 0. -1.
        -11    1    4    4    0    0 -0.58749836077E-01 -0.95778047843E-02  0.75473305934E-01  0.96123663128E-01  0.51100000000E-03 0. -1.
         11    1    4    4    0    0 -0.27061503254E-01 -0.31280413230E-01  0.19638107852E-01  0.45789798113E-01  0.51100000000E-03 0.  1.
</event>
<event>
 8    1  0.2877139E+004  0.1043930E+01  0.7957747E-01            NaN
         13   -1    0    0    0    0  0.00000000000E+00  0.00000000000E+00  0.74505805969E-08  0.10566000000E+00  0.10566000000E+00 0.  1.
     999900   -1    0    0    0    0 -0.00000000000E+00 -0.00000000000E+00 -0.74505805969E-08  0.93827000000E+00  0.93827000000E+00 0.  1.
     999902    2    1    2    0    0 -0.67603617380E-03  0.18863742534E-02 -0.15758073589E-01  0.10280450286E+01  0.10279222969E+01 0.  0.
     999903    2    3    3    0    0 -0.68840504665E-01 -0.54804372649E-01  0.94152339363E-01  0.13678719026E+00  0.45864344188E-01 0.  0.
         14    1    1    2    0    0  0.67603617380E-03 -0.18863742534E-02  0.15758073589E-01  0.15884971387E-01  0.00000000000E+00 0.  1.
     999901    1    3    3    0    0  0.68164468492E-01  0.56690746902E-01 -0.10991041295E+00  0.89125783835E+00  0.88000000000E+00 0.  1.
        -11    1    4    4    0    0 -0.64522302732E-01 -0.61066449959E-01  0.75324387205E-01  0.11647430313E+00  0.51100000000E-03 0. -1.
         11    1    4    4    0    0 -0.43182019332E-02  0.62620773104E-02  0.18827952157E-01  0.20312887132E-01  0.51100000000E-03 0.  1.
</event>
<event>
 8    1  0.2877139E+004  0.1043930E+01  0.7957747E-01            NaN
         13   -1    0    0    0    0  0.00000000000E+00  0.00000000000E+00  0.74505805969E-08  0.10566000000E+00  0.10566000000E+00 0. -1.
     999900   -1    0    0    0    0 -0.00000000000E+00 -0.00000000000E+00 -0.74505805969E-08  0.93827000000E+00  0.93827000000E+00 0. -1.
     999902    2    1    2    0    0  0.64109055900E-02  0.85736781381E-02  0.89769703252E-02  0.10299588274E+01  0.10298640651E+01 0.  0.
     999903    2    3    3    0    0  0.66040534688E-01 -0.82905917733E-02 -0.11334122425E+00  0.13934003298E+00  0.46252843621E-01 0.  0.
         14    1    1    2    0    0 -0.64109055900E-02 -0.85736781381E-02 -0.89769703252E-02  0.13971172589E-01  0.00000000000E+00 0.  1.
     999901    1    3    3    0    0 -0.59629629098E-01  0.16864269911E-01  0.12231819458E+00  0.89061879443E+00  0.88000000000E+00 0.  1.
        -11    1    4    4    0    0  0.39501865490E-01 -0.27389359565E-01 -0.61697117300E-01  0.78213616453E-01  0.51100000000E-03 0.  1.
         11    1    4    4    0    0  0.26538669198E-01  0.19098767792E-01 -0.51644106950E-01  0.61126416529E-01  0.51100000000E-03 0. -1.
</event>
<event>
 8    1  0.2877139E+004  0.1043930E+01  0.7957747E-01            NaN
         13   -1    0    0    0    0  0.00000000000E+00  0.00000000000E+00  0.74505805969E-08  0.10566000000E+00  0.10566000000E+00 0.  1.
     999900   -1    0    0    0    0 -0.00000000000E+00 -0.00000000000E+00 -0.74505805969E-08  0.93827000000E+00  0.93827000000E+00 0.  1.
     999902    2    1    2    0    0 -0.78238331331E-02  0.96954886908E-02 -0.82335516555E-03  0.10314442970E+01  0.10313687241E+01 0.  0.
     999903    2    3    3    0    0  0.69001096163E-02 -0.16405574994E-01 -0.13227584723E+00  0.14117590056E+00  0.46010658924E-01 0.  0.
         14    1    1    2    0    0  0.78238331331E-02 -0.96954886908E-02  0.82335516555E-03  0.12485703007E-01  0.00000000000E+00 0.  1.
     999901    1    3    3    0    0 -0.14723942749E-01  0.26101063685E-01  0.13145249207E+00  0.89026839643E+00  0.88000000000E+00 0. -1.
        -11    1    4    4    0    0 -0.11176916931E-01 -0.22944990751E-01 -0.10324145367E+00  0.10635062271E+00  0.51100000000E-03 0. -1.
         11    1    4    4    0    0  0.18077026548E-01  0.65394157574E-02 -0.29034393560E-01  0.34825277855E-01  0.51100000000E-03 0.  1.
</event>
<event>
 8    1  0.2877139E+004  0.1043930E+01  0.7957747E-01            NaN
         13   -1    0    0    0    0  0.00000000000E+00  0.00000000000E+00  0.74505805969E-08  0.10566000000E+00  0.10566000000E+00 0. -1.
     999900   -1    0    0    0    0 -0.00000000000E+00 -0.00000000000E+00 -0.74505805969E-08  0.93827000000E+00  0.93827000000E+00 0. -1.
     999902    2    1    2    0    0 -0.60421927359E-02 -0.11344859409E-01 -0.66220402845E-02  0.10294709079E+01  0.10293693627E+01 0.  0.
     999903    2    3    3    0    0  0.84925535881E-02  0.12846266483E+00  0.19703930399E-01  0.13792704499E+00  0.45396532299E-01 0.  0.
         14    1    1    2    0    0  0.60421927359E-02  0.11344859409E-01  0.66220402845E-02  0.14459092143E-01  0.00000000000E+00 0. -1.
     999901    1    3    3    0    0 -0.14534746324E-01 -0.13980752424E+00 -0.26325970684E-01  0.89154386287E+00  0.88000000000E+00 0. -1.
        -11    1    4    4    0    0 -0.16382285683E-01  0.39676376032E-01  0.15444730385E-01  0.45622307229E-01  0.51100000000E-03 0. -1.
         11    1    4    4    0    0  0.24874839272E-01  0.88786288798E-01  0.42592000141E-02  0.92304737760E-01  0.51100000000E-03 0.  1.
</event>
<event>
 8    1  0.2877139E+004  0.1043930E+01  0.7957747E-01            NaN
         13   -1    0    0    0    0  0.00000000000E+00  0.00000000000E+00  0.74505805969E-08  0.10566000000E+00  0.10566000000E+00 0. -1.
     999900   -1    0    0    0    0 -0.00000000000E+00 -0.00000000000E+00 -0.74505805969E-08  0.93827000000E+00  0.93827000000E+00 0. -1.
     999902    2    1    2    0    0 -0.10144696230E-02 -0.12226619839E-01 -0.93042124374E-02  0.10285323459E+01  0.10284170841E+01 0.  0.
     999903    2    3    3    0    0  0.56062147339E-01 -0.92689818758E-02  0.11702809955E+00  0.13767526376E+00  0.45055785174E-01 0.  0.
         14    1    1    2    0    0  0.10144696230E-02  0.12226619839E-01  0.93042124374E-02  0.15397654055E-01  0.00000000000E+00 0. -1.
     999901    1    3    3    0    0 -0.57076616962E-01 -0.29576379632E-02 -0.12633231199E+00  0.89085708218E+00  0.88000000000E+00 0. -1.
        -11    1    4    4    0    0  0.45430500537E-01 -0.16438436289E-01  0.11492831760E+00  0.12467129531E+00  0.51100000000E-03 0. -1.
         11    1    4    4    0    0  0.10631646802E-01  0.71694544135E-02  0.20997819550E-02  0.13003968455E-01  0.51100000000E-03 0.  1.
</event>
<event>
 8    1  0.2877139E+004  0.1043930E+01  0.7957747E-01            NaN
         13   -1    0    0    0    0  0.00000000000E+00  0.00000000000E+00  0.74505805969E-08  0.10566000000E+00  0.10566000000E+00 0. -1.
     999900   -1    0    0    0    0 -0.00000000000E+00 -0.00000000000E+00 -0.74505805969E-08  0.93827000000E+00  0.93827000000E+00 0. -1.
     999902    2    1    2    0    0  0.45603445027E-02  0.16342729421E-02  0.11316186937E-01  0.10316205046E+01  0.10315470624E+01 0.  0.
     999903    2    3    3    0    0  0.75744279883E-01 -0.10300228564E+00  0.42527054512E-01  0.14201942530E+00  0.44880953808E-01 0.  0.
         14    1    1    2    0    0 -0.45603445027E-02 -0.16342729421E-02 -0.11316186937E-01  0.12309495393E-01  0.00000000000E+00 0.  1.
     999901    1    3    3    0    0 -0.71183935380E-01  0.10463655858E+00 -0.31210867575E-01  0.88960107931E+00  0.88000000000E+00 0.  1.
        -11    1    4    4    0    0  0.30049882957E-01 -0.32851962302E-01 -0.65026302692E-02  0.44997691210E-01  0.51100000000E-03 0.  1.
         11    1    4    4    0    0  0.45694396926E-01 -0.70150323340E-01  0.49029684782E-01  0.97021734091E-01  0.51100000000E-03 0. -1.
</event>
<event>
 8    1  0.2877139E+004  0.1043930E+01  0.7957747E-01            NaN
         13   -1    0    0    0    0  0.00000000000E+00  0.00000000000E+00  0.74505805969E-08  0.10566000000E+00  0.10566000000E+00 0.  1.
     999900   -1    0    0    0    0 -0.00000000000E+00 -0.00000000000E+00 -0.74505805969E-08  0.93827000000E+00  0.93827000000E+00 0. -1.
     999902    2    1    2    0    0 -0.23195486390E-01 -0.35587527214E-02 -0.76532238992E-02  0.10192466626E+01  0.10189477376E+01 0.  0.
     999903    2    3    3    0    0  0.96219784266E-01 -0.11993492349E-01 -0.75013052130E-01  0.12859044487E+00  0.38813061965E-01 0.  0.
         14    1    1    2    0    0  0.23195486390E-01  0.35587527214E-02  0.76532238992E-02  0.24683337413E-01  0.00000000000E+00 0.  1.
     999901    1    3    3    0    0 -0.11941527066E+00  0.84347396278E-02  0.67359828231E-01  0.89065621772E+00  0.88000000000E+00 0.  1.
        -11    1    4    4    0    0  0.53287589269E-01  0.11157736143E-02 -0.18508769056E-01  0.56423822751E-01  0.51100000000E-03 0.  1.
         11    1    4    4    0    0  0.42932194996E-01 -0.13109265964E-01 -0.56504283074E-01  0.72166622119E-01  0.51100000000E-03 0. -1.
</event>
<event>
 8    1  0.2877139E+004  0.1043930E+01  0.7957747E-01            NaN
         13   -1    0    0    0    0  0.00000000000E+00  0.00000000000E+00  0.74505805969E-08  0.10566000000E+00  0.10566000000E+00 0. -1.
     999900   -1    0    0    0    0 -0.00000000000E+00 -0.00000000000E+00 -0.74505805969E-08  0.93827000000E+00  0.93827000000E+00 0. -1.
     999902    2    1    2    0    0 -0.63077095543E-02  0.76547406313E-02 -0.12851793027E-01  0.10276957511E+01  0.10275675189E+01 0.  0.
     999903    2    3    3    0    0  0.26046555752E-01 -0.12525687927E+00 -0.20391186272E-02  0.13706158875E+00  0.49132598486E-01 0.  0.
         14    1    1    2    0    0  0.63077095543E-02 -0.76547406313E-02  0.12851793027E-01  0.16234248919E-01  0.00000000000E+00 0. -1.
     999901    1    3    3    0    0 -0.32354265306E-01  0.13291161990E+00 -0.10812674400E-01  0.89063416233E+00  0.88000000000E+00 0.  1.
        -11    1    4    4    0    0 -0.10322284736E-01 -0.50799041373E-01  0.11489403331E-01  0.53097642852E-01  0.51100000000E-03 0.  1.
         11    1    4    4    0    0  0.36368840488E-01 -0.74457837898E-01 -0.13528521959E-01  0.83963945895E-01  0.51100000000E-03 0. -1.
</event>
<event>
 8    1  0.2877139E+004  0.1043930E+01  0.7957747E-01            NaN
         13   -1    0    0    0    0  0.00000000000E+00  0.00000000000E+00  0.74505805969E-08  0.10566000000E+00  0.10566000000E+00 0.  1.
     999900   -1    0    0    0    0 -0.00000000000E+00 -0.00000000000E+00 -0.74505805969E-08  0.93827000000E+00  0.93827000000E+00 0.  1.
     999902    2    1    2    0    0 -0.12109702676E-02 -0.11279251864E-01  0.86081303564E-02  0.10296896391E+01  0.10295911640E+01 0.  0.
     999903    2    3    3    0    0 -0.72171448362E-01 -0.10069536671E+00  0.53815462213E-01  0.14116595682E+00  0.41029849565E-01 0.  0.
         14    1    1    2    0    0  0.12109702676E-02  0.11279251864E-01 -0.86081303564E-02  0.14240360945E-01  0.00000000000E+00 0. -1.
     999901    1    3    3    0    0  0.70960478094E-01  0.89416114845E-01 -0.45207331857E-01  0.88852368224E+00  0.88000000000E+00 0. -1.
        -11    1    4    4    0    0 -0.99874096242E-02 -0.45611537295E-01  0.12258857600E-01  0.48277338328E-01  0.51100000000E-03 0.  1.
         11    1    4    4    0    0 -0.62184038738E-01 -0.55083829414E-01  0.41556604613E-01  0.92888618488E-01  0.51100000000E-03 0. -1.
</event>
<event>
 8    1  0.2877139E+004  0.1043930E+01  0.7957747E-01            NaN
         13   -1    0    0    0    0  0.00000000000E+00  0.00000000000E+00  0.74505805969E-08  0.10566000000E+00  0.10566000000E+00 0. -1.
     999900   -1    0    0    0    0 -0.00000000000E+00 -0.00000000000E+00 -0.74505805969E-08  0.93827000000E+00  0.93827000000E+00 0.  1.
     999902    2    1    2    0    0  0.11107011574E-01 -0.37378154700E-02  0.18193786249E-02  0.10320705266E+01  0.10320023860E+01 0.  0.
     999903    2    3    3    0    0  0.58854892964E-01  0.36251508114E-01  0.11620056866E+00  0.14248519466E+00  0.44959851817E-01 0.  0.
         14    1    1    2    0    0 -0.11107011574E-01  0.37378154700E-02 -0.18193786249E-02  0.11859473393E-01  0.00000000000E+00 0.  1.
     999901    1    3    3    0    0 -0.47747881390E-01 -0.39989323584E-01 -0.11438119003E+00  0.88958533194E+00  0.88000000000E+00 0.  1.
        -11    1    4    4    0    0  0.40421321763E-01 -0.96337132780E-03  0.65083265343E-01  0.76621823824E-01  0.51100000000E-03 0.  1.
         11    1    4    4    0    0  0.18433571200E-01  0.37214879442E-01  0.51117303313E-01  0.65863370838E-01  0.51100000000E-03 0. -1.
</event>
<event>
 7    1  0.2877139E+004  0.1043930E+01  0.7957747E-01            NaN
         13   -1    0    0    0    0  0.00000000000E+00  0.00000000000E+00  0.74505805969E-08  0.10566000000E+00  0.10566000000E+00 0. -1.
     999900   -1    0    0    0    0 -0.00000000000E+00 -0.00000000000E+00 -0.74505805969E-08  0.93827000000E+00  0.93827000000E+00 0.  1.
     999903    2    1    2    0    0 -0.98229538248E-01  0.60624399814E-01  0.25077370076E-01  0.12638110637E+00  0.44932722156E-01 0.  0.
         14    1    1    2    0    0  0.12510620466E-01  0.13234590116E-02  0.26897140679E-01  0.29693826714E-01  0.00000000000E+00 0. -1.
     999901    1    1    2    0    0  0.85718917782E-01 -0.61947858826E-01 -0.51974510755E-01  0.88785506692E+00  0.88000000000E+00 0.  1.
        -11    1    3    3    0    0 -0.51860025190E-01  0.55028732129E-01  0.25095899114E-01  0.79672384461E-01  0.51100000000E-03 0.  1.
         11    1    3    3    0    0 -0.46369513058E-01  0.55956676856E-02 -0.18529037919E-04  0.46708721910E-01  0.51100000000E-03 0. -1.
</event>
<event>
 8    1  0.2877139E+004  0.1043930E+01  0.7957747E-01            NaN
         13   -1    0    0    0    0  0.00000000000E+00  0.00000000000E+00  0.74505805969E-08  0.10566000000E+00  0.10566000000E+00 0.  1.
     999900   -1    0    0    0    0 -0.00000000000E+00 -0.00000000000E+00 -0.74505805969E-08  0.93827000000E+00  0.93827000000E+00 0. -1.
     999902    2    1    2    0    0  0.55302151552E-03 -0.70450838462E-02 -0.10522825346E-01  0.10312544766E+01  0.10311765740E+01 0.  0.
     999903    2    3    3    0    0  0.37063385084E-01 -0.10827783229E-01  0.12731367298E+00  0.13976907814E+00  0.42844935218E-01 0.  0.
         14    1    1    2    0    0 -0.55302151552E-03  0.70450838462E-02  0.10522825346E-01  0.12675523360E-01  0.00000000000E+00 0.  1.
     999901    1    3    3    0    0 -0.36510363569E-01  0.37826993832E-02 -0.13783649833E+00  0.89148539850E+00  0.88000000000E+00 0. -1.
        -11    1    4    4    0    0  0.26260215807E-01  0.14437793042E-01  0.60272993167E-01  0.67313769976E-01  0.51100000000E-03 0.  1.
         11    1    4    4    0    0  0.10803169277E-01 -0.25265576272E-01  0.67040679813E-01  0.72455308166E-01  0.51100000000E-03 0. -1.
</event>
<event>
 8    1  0.2877139E+004  0.1043930E+01  0.7957747E-01            NaN
         13   -1    0    0    0    0  0.00000000000E+00  0.00000000000E+00  0.74505805969E-08  0.10566000000E+00  0.10566000000E+00 0. -1.
     999900   -1    0    0    0    0 -0.00000000000E+00 -0.00000000000E+00 -0.74505805969E-08  0.93827000000E+00  0.93827000000E+00 0.  1.
     999902    2    1    2    0    0 -0.53701699692E-02  0.10324109098E-01 -0.73580891800E-02  0.10301616511E+01  0.10300696384E+01 0.  0.
     999903    2    3    3    0    0  0.13113670321E+00 -0.12662649531E-01 -0.41414186600E-02  0.13933458348E+00  0.45164113864E-01 0.  0.
         14    1    1    2    0    0  0.53701699692E-02 -0.10324109098E-01  0.73580891800E-02  0.13768348868E-01  0.00000000000E+00 0. -1.
     999901    1    3    3    0    0 -0.13650687318E+00  0.22986758629E-01 -0.32166705200E-02  0.89082706766E+00  0.88000000000E+00 0. -1.
        -11    1    4    4    0    0  0.10224829152E+00 -0.21507686536E-01 -0.18111112077E-01  0.10604511870E+00  0.51100000000E-03 0.  1.
         11    1    4    4    0    0  0.28888411693E-01  0.88450370053E-02  0.13969693417E-01  0.33289464774E-01  0.51100000000E-03 0. -1.
</event>
<event>
 8    1  0.2877139E+004  0.1043930E+01  0.7957747E-01            NaN
         13   -1    0    0    0    0  0.00000000000E+00  0.00000000000E+00  0.74505805969E-08  0.10566000000E+00  0.10566000000E+00 0.  1.
     999900   -1    0    0    0    0 -0.00000000000E+00 -0.00000000000E+00 -0.74505805969E-08  0.93827000000E+00  0.93827000000E+00 0.  1.
     999902    2    1    2    0    0 -0.35800895938E-02  0.10719223066E-01 -0.86943801548E-02  0.10296712823E+01  0.10295725514E+01 0.  0.
     999903    2    3    3    0    0  0.44723500302E-02  0.53532667542E-01 -0.12245105214E+00  0.14128036989E+00  0.45608489743E-01 0.  0.
         14    1    1    2    0    0  0.35800895938E-02 -0.10719223066E-01  0.86943801548E-02  0.14258717716E-01  0.00000000000E+00 0.  1.
     999901    1    3    3    0    0 -0.80524396240E-02 -0.42813444476E-01  0.11375667198E+00  0.88839091240E+00  0.88000000000E+00 0. -1.
        -11    1    4    4    0    0  0.34167875093E-02  0.58210170271E-01 -0.12329090092E+00  0.13638550411E+00  0.51100000000E-03 0. -1.
         11    1    4    4    0    0  0.10555625209E-02 -0.46775027293E-02  0.83984878253E-03  0.48948657792E-02  0.51100000000E-03 0.  1.
</event>
<event>
 8    1  0.2877139E+004  0.1043930E+01  0.7957747E-01            NaN
         13   -1    0    0    0    0  0.00000000000E+00  0.00000000000E+00  0.74505805969E-08  0.10566000000E+00  0.10566000000E+00 0.  1.
     999900   -1    0    0    0    0 -0.00000000000E+00 -0.00000000000E+00 -0.74505805969E-08  0.93827000000E+00  0.93827000000E+00 0.  1.
     999902    2    1    2    0    0 -0.41985588006E-02 -0.89530694364E-03  0.13349365094E-01  0.10299073391E+01  0.10298118722E+01 0.  0.
     999903    2    3    3    0    0 -0.10687408364E+00  0.22166334594E-01  0.78136037719E-01  0.14127275972E+00  0.44037893968E-01 0.  0.
         14    1    1    2    0    0  0.41985588006E-02  0.89530694364E-03 -0.13349365094E-01  0.14022660908E-01  0.00000000000E+00 0. -1.
     999901    1    3    3    0    0  0.10267552484E+00 -0.23061641537E-01 -0.64786672625E-01  0.88863457937E+00  0.88000000000E+00 0. -1.
        -11    1    4    4    0    0 -0.36962186827E-01 -0.52448639412E-02  0.73063757856E-02  0.38044133594E-01  0.51100000000E-03 0. -1.
         11    1    4    4    0    0 -0.69911896810E-01  0.27411198535E-01  0.70829661933E-01  0.10322862612E+00  0.51100000000E-03 0.  1.
</event>
<event>
 8    1  0.2877139E+004  0.1043930E+01  0.7957747E-01            NaN
         13   -1    0    0    0    0  0.00000000000E+00  0.00000000000E+00  0.74505805969E-08  0.10566000000E+00  0.10566000000E+00 0.  1.
     999900   -1    0    0    0    0 -0.00000000000E+00 -0.00000000000E+00 -0.74505805969E-08  0.93827000000E+00  0.93827000000E+00 0. -1.
     999902    2    1    2    0    0  0.48194921355E-02  0.99393975824E-02 -0.93864097002E-02  0.10294343518E+01  0.10293322889E+01 0.  0.
     999903    2    3    3    0    0  0.14677175029E-01  0.11314602744E+00  0.68709833055E-01  0.13991324163E+00  0.42862933107E-01 0.  0.
         14    1    1    2    0    0 -0.48194921355E-02 -0.99393975824E-02  0.93864097002E-02  0.14495648168E-01  0.00000000000E+00 0.  1.
     999901    1    3    3    0    0 -0.98576828938E-02 -0.10320662985E+00 -0.78096242755E-01  0.88952111020E+00  0.88000000000E+00 0. -1.
        -11    1    4    4    0    0  0.18435186223E-01  0.85676333969E-01  0.30694189357E-01  0.92858411976E-01  0.51100000000E-03 0.  1.
         11    1    4    4    0    0 -0.37580111942E-02  0.27469693467E-01  0.38015643697E-01  0.47054829657E-01  0.51100000000E-03 0. -1.
</event>
<event>
 8    1  0.2877139E+004  0.1043930E+01  0.7957747E-01            NaN
         13   -1    0    0    0    0  0.00000000000E+00  0.00000000000E+00  0.74505805969E-08  0.10566000000E+00  0.10566000000E+00 0.  1.
     999900   -1    0    0    0    0 -0.00000000000E+00 -0.00000000000E+00 -0.74505805969E-08  0.93827000000E+00  0.93827000000E+00 0.  1.
     999902    2    1    2    0    0 -0.54790537663E-02  0.11342647266E-01 -0.41484781965E-02  0.10306678151E+01  0.10305824855E+01 0.  0.
     999903    2    3    3    0    0 -0.15930585343E-01  0.13515120825E+00  0.59564413153E-02  0.14188218082E+00  0.39691830399E-01 0.  0.
         14    1    1    2    0    0  0.54790537663E-02 -0.11342647266E-01  0.41484781965E-02  0.13262184908E-01  0.00000000000E+00 0. -1.
     999901    1    3    3    0    0  0.10451531577E-01 -0.12380856099E+00 -0.10104919512E-01  0.88878563427E+00  0.88000000000E+00 0. -1.
        -11    1    4    4    0    0  0.90921153996E-02  0.68104887292E-01 -0.73057348092E-02  0.69098314868E-01  0.51100000000E-03 0. -1.
         11    1    4    4    0    0 -0.25022700743E-01  0.67046320960E-01  0.13262176124E-01  0.72783865955E-01  0.51100000000E-03 0.  1.
</event>
<event>
 8    1  0.2877139E+004  0.1043930E+01  0.7957747E-01            NaN
         13   -1    0    0    0    0  0.00000000000E+00  0.00000000000E+00  0.74505805969E-08  0.10566000000E+00  0.10566000000E+00 0.  1.
     999900   -1    0    0    0    0 -0.00000000000E+00 -0.00000000000E+00 -0.74505805969E-08  0.93827000000E+00  0.93827000000E+00 0. -1.
     999902    2    1    2    0    0  0.10872896910E-02  0.13142638327E-01 -0.43717006738E-02  0.10300367316E+01  0.10299430302E+01 0.  0.
     999903    2    3    3    0    0  0.10408719193E+00  0.10647612868E-01 -0.82662186912E-01  0.14057363213E+00  0.44501614822E-01 0.  0.
         14    1    1    2    0    0 -0.10872896910E-02 -0.13142638327E-01  0.43717006738E-02  0.13893268436E-01  0.00000000000E+00 0.  1.
     999901    1    3    3    0    0 -0.10299990224E+00  0.24950254590E-02  0.78290486238E-01  0.88946309943E+00  0.88000000000E+00 0.  1.
        -11    1    4    4    0    0  0.47660116731E-01 -0.83717669693E-02 -0.15500237894E-01  0.50814286424E-01  0.51100000000E-03 0.  1.
         11    1    4    4    0    0  0.56427075201E-01  0.19019379837E-01 -0.67161949018E-01  0.89759345709E-01  0.51100000000E-03 0. -1.
</event>
<event>
 8    1  0.2877139E+004  0.1043930E+01  0.7957747E-01            NaN
         13   -1    0    0    0    0  0.00000000000E+00  0.00000000000E+00  0.74505805969E-08  0.10566000000E+00  0.10566000000E+00 0. -1.
     999900   -1    0    0    0    0 -0.00000000000E+00 -0.00000000000E+00 -0.74505805969E-08  0.93827000000E+00  0.93827000000E+00 0.  1.
     999902    2    1    2    0    0 -0.96203210717E-02  0.38608904287E-02 -0.11125814364E-01  0.10287233962E+01  0.10286109980E+01 0.  0.
     999903    2    3    3    0    0 -0.96863438465E-01  0.88955679906E-01 -0.18836083944E-01  0.14029110677E+00  0.45068368971E-01 0.  0.
         14    1    1    2    0    0  0.96203210717E-02 -0.38608904287E-02  0.11125814364E-01  0.15206603753E-01  0.00000000000E+00 0. -1.
     999901    1    3    3    0    0  0.87243117394E-01 -0.85094789477E-01  0.77102695798E-02  0.88843228948E+00  0.88000000000E+00 0.  1.
        -11    1    4    4    0    0 -0.79107662257E-01  0.45007423926E-01 -0.18553230108E-01  0.92887964262E-01  0.51100000000E-03 0. -1.
         11    1    4    4    0    0 -0.17755776208E-01  0.43948255979E-01 -0.28285383546E-03  0.47403142509E-01  0.51100000000E-03 0.  1.
</event>
<event>
 8    1  0.2877139E+004  0.1043930E+01  0.7957747E-01            NaN
         13   -1    0    0    0    0  0.00000000000E+00  0.00000000000E+00  0.74505805969E-08  0.10566000000E+00  0.10566000000E+00 0. -1.
     999900   -1    0    0    0    0 -0.00000000000E+00 -0.00000000000E+00 -0.74505805969E-08  0.93827000000E+00  0.93827000000E+00 0.  1.
     999902    2    1    2    0    0  0.10274148920E-02 -0.96200553060E-02 -0.17711800308E-01  0.10237481043E+01  0.10235491547E+01 0.  0.
     999903    2    3    3    0    0 -0.39347716065E-01 -0.11795111879E+00 -0.31881531807E-01  0.13607330356E+00  0.45153102748E-01 0.  0.
         14    1    1    2    0    0 -0.10274148920E-02  0.96200553060E-02  0.17711800308E-01  0.20181895739E-01  0.00000000000E+00 0. -1.
     999901    1    3    3    0    0  0.40375130957E-01  0.10833106348E+00  0.14169731499E-01  0.88767480070E+00  0.88000000000E+00 0.  1.
        -11    1    4    4    0    0 -0.11479847296E-01 -0.45344842667E-01  0.98616239512E-02  0.47806426329E-01  0.51100000000E-03 0. -1.
         11    1    4    4    0    0 -0.27867868769E-01 -0.72606276121E-01 -0.41743155758E-01  0.88266877227E-01  0.51100000000E-03 0.  1.
</event>
<event>
 8    1  0.2877139E+004  0.1043930E+01  0.7957747E-01            NaN
         13   -1    0    0    0    0  0.00000000000E+00  0.00000000000E+00  0.74505805969E-08  0.10566000000E+00  0.10566000000E+00 0.  1.
     999900   -1    0    0    0    0 -0.00000000000E+00 -0.00000000000E+00 -0.74505805969E-08  0.93827000000E+00  0.93827000000E+00 0.  1.
     999902    2    1    2    0    0  0.87528200558E-02 -0.46311879196E-02 -0.50542025112E-03  0.10340145973E+01  0.10339670557E+01 0.  0.
     999903    2    3    3    0    0  0.21255574606E-01  0.12549437863E+00  0.48695239446E-01  0.14299849935E+00  0.43320964372E-01 0.  0.
         14    1    1    2    0    0 -0.87528200558E-02  0.46311879196E-02  0.50542025112E-03  0.99154026699E-02  0.00000000000E+00 0. -1.
     999901    1    3    3    0    0 -0.12502754551E-01 -0.13012556654E+00 -0.49200659697E-01  0.89101609798E+00  0.88000000000E+00 0.  1.
        -11    1    4    4    0    0 -0.90063322133E-02  0.52772085367E-01  0.32346982182E-01  0.62550742531E-01  0.51100000000E-03 0. -1.
         11    1    4    4    0    0  0.30261906820E-01  0.72722293258E-01  0.16348257264E-01  0.80447756821E-01  0.51100000000E-03 0.  1.
</event>
<event>
 8    1  0.2877139E+004  0.1043930E+01  0.7957747E-01            NaN
         13   -1    0    0    0    0  0.00000000000E+00  0.00000000000E+00  0.74505805969E-08  0.10566000000E+00  0.10566000000E+00 0.  1.
     999900   -1    0    0    0    0 -0.00000000000E+00 -0.00000000000E+00 -0.74505805969E-08  0.93827000000E+00  0.93827000000E+00 0.  1.
     999902    2    1    2    0    0 -0.13559232891E-01 -0.52126989196E-02 -0.29071571496E-02  0.10291152577E+01  0.10290086185E+01 0.  0.
     999903    2    3    3    0    0 -0.24447399978E-01 -0.11443317986E-02  0.12946493487E+00  0.13913914873E+00  0.44716311220E-01 0.  0.
         14    1    1    2    0    0  0.13559232891E-01  0.52126989196E-02  0.29071571496E-02  0.14814742296E-01  0.00000000000E+00 0.  1.
     999901    1    3    3    0    0  0.10888167087E-01 -0.40683671210E-02 -0.13237209202E+00  0.88997610897E+00  0.88000000000E+00 0.  1.
        -11    1    4    4    0    0 -0.27929965783E-01  0.15384138549E-01  0.63690139881E-01  0.71228152767E-01  0.51100000000E-03 0.  1.
         11    1    4    4    0    0  0.34825658052E-02 -0.16528470348E-01  0.65774794986E-01  0.67910995966E-01  0.51100000000E-03 0. -1.
</event>
<event>
 8    1  0.2877139E+004  0.1043930E+01  0.7957747E-01            NaN
         13   -1    0    0    0    0  0.00000000000E+00  0.00000000000E+00  0.74505805969E-08  0.10566000000E+00  0.10566000000E+00 0.  1.
     999900   -1    0    0    0    0 -0.00000000000E+00 -0.00000000000E+00 -0.74505805969E-08  0.93827000000E+00  0.93827000000E+00 0.  1.
     999902    2    1    2    0    0  0.64238215920E-02 -0.10161606171E-01  0.66281417747E-02  0.10302020727E+01  0.10301106031E+01 0.  0.
     999903    2    3    3    0    0  0.99005052192E-01 -0.74087693924E-01  0.52968582277E-01  0.14182981664E+00  0.44933722636E-01 0.  0.
         14    1    1    2    0    0 -0.64238215920E-02  0.10161606171E-01 -0.66281417747E-02  0.13727927273E-01  0.00000000000E+00 0. -1.
     999901    1    3    3    0    0 -0.92581230600E-01  0.63926087753E-01 -0.46340440502E-01  0.88837225608E+00  0.88000000000E+00 0. -1.
        -11    1    4    4    0    0  0.75086238881E-01 -0.39006339971E-01  0.17280114286E-01  0.86361457248E-01  0.51100000000E-03 0.  1.
         11    1    4    4    0    0  0.23918813311E-01 -0.35081353953E-01  0.35688467991E-01  0.55468359394E-01  0.51100000000E-03 0. -1.
</event>
<event>
 8    1  0.2877139E+004  0.1043930E+01  0.7957747E-01            NaN
         13   -1    0    0    0    0  0.00000000000E+00  0.00000000000E+00  0.74505805969E-08  0.10566000000E+00  0.10566000000E+00 0.  1.
     999900   -1    0    0    0    0 -0.00000000000E+00 -0.00000000000E+00 -0.74505805969E-08  0.93827000000E+00  0.93827000000E+00 0. -1.
     999902    2    1    2    0    0 -0.30337674715E-02  0.13718071382E-01 -0.33657302800E-02  0.10294829460E+01  0.10293815711E+01 0.  0.
     999903    2    3    3    0    0  0.25904006306E-01 -0.84950148900E-01 -0.96496581381E-01  0.13861473589E+00  0.44887742727E-01 0.  0.
         14    1    1    2    0    0  0.30337674715E-02 -0.13718071382E-01  0.33657302800E-02  0.14447053950E-01  0.00000000000E+00 0.  1.
     999901    1    3    3    0    0 -0.28937773777E-01  0.98668220282E-01  0.93130851101E-01  0.89086821016E+00  0.88000000000E+00 0. -1.
        -11    1    4    4    0    0  0.28601877321E-01 -0.21295599785E-01 -0.38123420792E-01  0.52203699968E-01  0.51100000000E-03 0.  1.
         11    1    4    4    0    0 -0.26978710158E-02 -0.63654549115E-01 -0.58373160590E-01  0.86411035923E-01  0.51100000000E-03 0. -1.
</event>
<event>
 8    1  0.2877139E+004  0.1043930E+01  0.7957747E-01            NaN
         13   -1    0    0    0    0  0.00000000000E+00  0.00000000000E+00  0.74505805969E-08  0.10566000000E+00  0.10566000000E+00 0.  1.
     999900   -1    0    0    0    0 -0.00000000000E+00 -0.00000000000E+00 -0.74505805969E-08  0.93827000000E+00  0.93827000000E+00 0.  1.
     999902    2    1    2    0    0 -0.30899828150E-02 -0.37914371029E-02 -0.12128581425E-01  0.10308523291E+01  0.10307693723E+01 0.  0.
     999903    2    3    3    0    0  0.82367430279E-01  0.96842147768E-01 -0.38311820651E-01  0.14061884855E+00  0.46293302006E-01 0.  0.
         14    1    1    2    0    0  0.30899828150E-02  0.37914371029E-02  0.12128581425E-01  0.13077670912E-01  0.00000000000E+00 0.  1.
     999901    1    3    3    0    0 -0.85457413094E-01 -0.10063358487E+00  0.26183239226E-01  0.89023348054E+00  0.88000000000E+00 0.  1.
        -11    1    4    4    0    0  0.55051519389E-01  0.85144732180E-01 -0.43709387052E-01  0.11041316426E+00  0.51100000000E-03 0.  1.
         11    1    4    4    0    0  0.27315910889E-01  0.11697415588E-01  0.53975664009E-02  0.30205684286E-01  0.51100000000E-03 0. -1.
</event>
<event>
 8    1  0.2877139E+004  0.1043930E+01  0.7957747E-01            NaN
         13   -1    0    0    0    0  0.00000000000E+00  0.00000000000E+00  0.74505805969E-08  0.10566000000E+00  0.10566000000E+00 0.  1.
     999900   -1    0    0    0    0 -0.00000000000E+00 -0.00000000000E+00 -0.74505805969E-08  0.93827000000E+00  0.93827000000E+00 0. -1.
     999902    2    1    2    0    0  0.68392152326E-02 -0.10676599035E-01 -0.65131788796E-02  0.10296756627E+01  0.10295769929E+01 0.  0.
     999903    2    3    3    0    0 -0.95834284898E-01  0.94452223084E-02 -0.90191357164E-01  0.13953591368E+00  0.45413301043E-01 0.  0.
         14    1    1    2    0    0 -0.68392152326E-02  0.10676599035E-01  0.65131788796E-02  0.14254337272E-01  0.00000000000E+00 0. -1.
     999901    1    3    3    0    0  0.10267350013E+00 -0.20121821343E-01  0.83678178284E-01  0.89013974905E+00  0.88000000000E+00 0.  1.
        -11    1    4    4    0    0 -0.52104909896E-01 -0.15924008357E-01 -0.58107183438E-01  0.79656773507E-01  0.51100000000E-03 0.  1.
         11    1    4    4    0    0 -0.43729375002E-01  0.25369230665E-01 -0.32084173726E-01  0.59879140168E-01  0.51100000000E-03 0. -1.
</event>
<event>
 8    1  0.2877139E+004  0.1043930E+01  0.7957747E-01            NaN
         13   -1    0    0    0    0  0.00000000000E+00  0.00000000000E+00  0.74505805969E-08  0.10566000000E+00  0.10566000000E+00 0. -1.
     999900   -1    0    0    0    0 -0.00000000000E+00 -0.00000000000E+00 -0.74505805969E-08  0.93827000000E+00  0.93827000000E+00 0. -1.
     999902    2    1    2    0    0 -0.22963505332E-02  0.54118285110E-02 -0.12726583950E-01  0.10299111893E+01  0.10298157752E+01 0.  0.
     999903    2    3    3    0    0  0.35537621846E-01 -0.88061765912E-01  0.90401325116E-01  0.13816902483E+00  0.43594525541E-01 0.  0.
         14    1    1    2    0    0  0.22963505332E-02 -0.54118285110E-02  0.12726583950E-01  0.14018810671E-01  0.00000000000E+00 0. -1.
     999901    1    3    3    0    0 -0.37833972379E-01  0.93473594422E-01 -0.10312790907E+00  0.89174216450E+00  0.88000000000E+00 0. -1.
        -11    1    4    4    0    0  0.13912715145E-01 -0.17672855578E-01  0.48452980517E-01  0.53421399354E-01  0.51100000000E-03 0. -1.
         11    1    4    4    0    0  0.21624906701E-01 -0.70388910334E-01  0.41948344600E-01  0.84747625474E-01  0.51100000000E-03 0.  1.
</event>
<event>
 8    1  0.2877139E+004  0.1043930E+01  0.7957747E-01            NaN
         13   -1    0    0    0    0  0.00000000000E+00  0.00000000000E+00  0.74505805969E-08  0.10566000000E+00  0.10566000000E+00 0.  1.
     999900   -1    0    0    0    0 -0.00000000000E+00 -0.00000000000E+00 -0.74505805969E-08  0.93827000000E+00  0.93827000000E+00 0.  1.
     999902    2    1    2    0    0 -0.84158825977E-02  0.68038932997E-02  0.10490671792E-01  0.10288576996E+01  0.10287472925E+01 0.  0.
     999903    2    3    3    0    0  0.72725038714E-01 -0.33777776276E-01  0.10524543322E+00  0.13913348065E+00  0.43030858665E-01 0.  0.
         14    1    1    2    0    0  0.84158825977E-02 -0.68038932997E-02 -0.10490671792E-01  0.15072300375E-01  0.00000000000E+00 0. -1.
     999901    1    3    3    0    0 -0.81140921311E-01  0.40581669576E-01 -0.94754761431E-01  0.88972421897E+00  0.88000000000E+00 0.  1.
        -11    1    4    4    0    0  0.32372717618E-01 -0.34182334305E-01  0.37134372491E-01  0.59963718746E-01  0.51100000000E-03 0.  1.
         11    1    4    4    0    0  0.40352321096E-01  0.40455802822E-03  0.68111060732E-01  0.79169761905E-01  0.51100000000E-03 0. -1.
</event>
<event>
 8    1  0.2877139E+004  0.1043930E+01  0.7957747E-01            NaN
         13   -1    0    0    0    0  0.00000000000E+00  0.00000000000E+00  0.74505805969E-08  0.10566000000E+00  0.10566000000E+00 0. -1.
     999900   -1    0    0    0    0 -0.00000000000E+00 -0.00000000000E+00 -0.74505805969E-08  0.93827000000E+00  0.93827000000E+00 0.  1.
     999902    2    1    2    0    0  0.18954181069E-02  0.11469527961E-01 -0.98317823404E-03  0.10322634101E+01  0.10321974803E+01 0.  0.
     999903    2    3    3    0    0 -0.66086848055E-01 -0.10772055223E+00  0.42761695814E-01  0.14055635181E+00  0.44230493383E-01 0.  0.
         14    1    1    2    0    0 -0.18954181069E-02 -0.11469527961E-01  0.98317823404E-03  0.11666589943E-01  0.00000000000E+00 0. -1.
     999901    1    3    3    0    0  0.67982266162E-01  0.11919008019E+00 -0.43744874048E-01  0.89170705825E+00  0.88000000000E+00 0.  1.
        -11    1    4    4    0    0 -0.66398310910E-02 -0.19849457887E-01  0.25622547855E-01  0.33088735469E-01  0.51100000000E-03 0.  1.
         11    1    4    4    0    0 -0.59447016964E-01 -0.87871094346E-01  0.17139147958E-01  0.10746761634E+00  0.51100000000E-03 0. -1.
</event>
<event>
 8    1  0.2877139E+004  0.1043930E+01  0.7957747E-01            NaN
         13   -1    0    0    0    0  0.00000000000E+00  0.00000000000E+00  0.74505805969E-08  0.10566000000E+00  0.10566000000E+00 0. -1.
     999900   -1    0    0    0    0 -0.00000000000E+00 -0.00000000000E+00 -0.74505805969E-08  0.93827000000E+00  0.93827000000E+00 0. -1.
     999902    2    1    2    0    0  0.76375379912E-02  0.10250494981E-01  0.72538076640E-02  0.10292323009E+01  0.10291273521E+01 0.  0.
     999903    2    3    3    0    0  0.18289355232E-01 -0.12868888840E+00 -0.91348241941E-02  0.13811715640E+00  0.45799272546E-01 0.  0.
         14    1    1    2    0    0 -0.76375379912E-02 -0.10250494981E-01 -0.72538076640E-02  0.14697699125E-01  0.00000000000E+00 0.  1.
     999901    1    3    3    0    0 -0.10651817241E-01  0.13893938338E+00  0.16388631858E-01  0.89111514448E+00  0.88000000000E+00 0.  1.
        -11    1    4    4    0    0 -0.25488993550E-02 -0.57221558857E-01 -0.24166229444E-01  0.62169698829E-01  0.51100000000E-03 0. -1.
         11    1    4    4    0    0  0.20838254587E-01 -0.71467329542E-01  0.15031405250E-01  0.75947457567E-01  0.51100000000E-03 0.  1.
</event>
<event>
 8    1  0.2877139E+004  0.1043930E+01  0.7957747E-01            NaN
         13   -1    0    0    0    0  0.00000000000E+00  0.00000000000E+00  0.74505805969E-08  0.10566000000E+00  0.10566000000E+00 0. -1.
     999900   -1    0    0    0    0 -0.00000000000E+00 -0.00000000000E+00 -0.74505805969E-08  0.93827000000E+00  0.93827000000E+00 0. -1.
     999902    2    1    2    0    0 -0.68601355519E-02  0.12297301071E-01  0.14480635542E-02  0.10297743664E+01  0.10296770677E+01 0.  0.
     999903    2    3    3    0    0  0.92779686893E-01  0.91161680188E-01  0.27645719351E-01  0.14026101540E+00  0.44613276140E-01 0.  0.
         14    1    1    2    0    0  0.68601355519E-02 -0.12297301071E-01 -0.14480635542E-02  0.14155633560E-01  0.00000000000E+00 0. -1.
     999901    1    3    3    0    0 -0.99639822445E-01 -0.78864379117E-01 -0.26197655796E-01  0.88951335104E+00  0.88000000000E+00 0. -1.
        -11    1    4    4    0    0  0.54343893404E-01  0.80966911325E-01  0.15966972845E-01  0.98813485024E-01  0.51100000000E-03 0. -1.
         11    1    4    4    0    0  0.38435793489E-01  0.10194768863E-01  0.11678746506E-01  0.41447530375E-01  0.51100000000E-03 0.  1.
</event>
<event>
 8    1  0.2877139E+004  0.1043930E+01  0.7957747E-01            NaN
         13   -1    0    0    0    0  0.00000000000E+00  0.00000000000E+00  0.74505805969E-08  0.10566000000E+00  0.10566000000E+00 0. -1.
     999900   -1    0    0    0    0 -0.00000000000E+00 -0.00000000000E+00 -0.74505805969E-08  0.93827000000E+00  0.93827000000E+00 0. -1.
     999902    2    1    2    0    0  0.98487694614E-02 -0.92244460871E-02 -0.29162574446E-02  0.10301244496E+01  0.10300319356E+01 0.  0.
     999903    2    3    3    0    0  0.67510349839E-01 -0.36791587371E-01  0.10896917315E+00  0.14074086825E+00  0.44971580601E-01 0.  0.
         14    1    1    2    0    0 -0.98487694614E-02  0.92244460871E-02  0.29162574446E-02  0.13805550442E-01  0.00000000000E+00 0. -1.
     999901    1    3    3    0    0 -0.57661580377E-01  0.27567141284E-01 -0.11188543059E+00  0.88938358131E+00  0.88000000000E+00 0. -1.
        -11    1    4    4    0    0  0.34231366638E-01 -0.28905780014E-01  0.92494749654E-01  0.10277582602E+00  0.51100000000E-03 0.  1.
         11    1    4    4    0    0  0.33278983201E-01 -0.78858073572E-02  0.16474423491E-01  0.37965042222E-01  0.51100000000E-03 0. -1.
</event>
<event>
 7    1  0.2877139E+004  0.1043930E+01  0.7957747E-01            NaN
         13   -1    0    0    0    0  0.00000000000E+00  0.00000000000E+00  0.74505805969E-08  0.10566000000E+00  0.10566000000E+00 0. -1.
     999900   -1    0    0    0    0 -0.00000000000E+00 -0.00000000000E+00 -0.74505805969E-08  0.93827000000E+00  0.93827000000E+00 0. -1.
     999903    2    1    2    0    0  0.20705472686E-01 -0.55707709624E-01 -0.83883813854E-02  0.78214185404E-01  0.50150058279E-01 0.  0.
         14    1    1    2    0    0 -0.66193794952E-01  0.29210942165E-03  0.48230461148E-01  0.81901655665E-01  0.00000000000E+00 0. -1.
     999901    1    1    2    0    0  0.45488322266E-01  0.55415600202E-01 -0.39842079762E-01  0.88381415893E+00  0.88000000000E+00 0. -1.
        -11    1    3    3    0    0 -0.42732280362E-02 -0.35294461640E-01  0.14768452503E-01  0.38501010515E-01  0.51100000000E-03 0.  1.
         11    1    3    3    0    0  0.24978700722E-01 -0.20413247984E-01 -0.23156833888E-01  0.39713174889E-01  0.51100000000E-03 0. -1.
</event>
<event>
 8    1  0.2877139E+004  0.1043930E+01  0.7957747E-01            NaN
         13   -1    0    0    0    0  0.00000000000E+00  0.00000000000E+00  0.74505805969E-08  0.10566000000E+00  0.10566000000E+00 0. -1.
     999900   -1    0    0    0    0 -0.00000000000E+00 -0.00000000000E+00 -0.74505805969E-08  0.93827000000E+00  0.93827000000E+00 0. -1.
     999902    2    1    2    0    0  0.11184364014E-01 -0.87743170193E-02  0.65827713767E-03  0.10296993301E+01  0.10296009899E+01 0.  0.
     999903    2    3    3    0    0  0.99567701559E-01 -0.20476622836E-01 -0.86204337962E-01  0.14093970441E+00  0.45823499646E-01 0.  0.
         14    1    1    2    0    0 -0.11184364014E-01  0.87743170193E-02 -0.65827713767E-03  0.14230669919E-01  0.00000000000E+00 0. -1.
     999901    1    3    3    0    0 -0.88383337545E-01  0.11702305817E-01  0.86862615099E-01  0.88875962567E+00  0.88000000000E+00 0.  1.
        -11    1    4    4    0    0  0.53028122048E-01  0.11810852127E-01 -0.35366665350E-01  0.64827001279E-01  0.51100000000E-03 0.  1.
         11    1    4    4    0    0  0.46539579511E-01 -0.32287474963E-01 -0.50837672612E-01  0.76112703133E-01  0.51100000000E-03 0. -1.
</event>
<event>
 8    1  0.2877139E+004  0.1043930E+01  0.7957747E-01            NaN
         13   -1    0    0    0    0  0.00000000000E+00  0.00000000000E+00  0.74505805969E-08  0.10566000000E+00  0.10566000000E+00 0.  1.
     999900   -1    0    0    0    0 -0.00000000000E+00 -0.00000000000E+00 -0.74505805969E-08  0.93827000000E+00  0.93827000000E+00 0.  1.
     999902    2    1    2    0    0 -0.40631529620E-02  0.12566994809E-01 -0.16305593451E-01  0.10229464124E+01  0.10227311727E+01 0.  0.
     999903    2    3    3    0    0  0.58487832264E-01 -0.63546516505E-01  0.88154803026E-01  0.13130866826E+00  0.44852098951E-01 0.  0.
         14    1    1    2    0    0  0.40631529620E-02 -0.12566994809E-01  0.16305593451E-01  0.20983587594E-01  0.00000000000E+00 0.  1.
     999901    1    3    3    0    0 -0.62550985226E-01  0.76113511314E-01 -0.10446039648E+00  0.89163774415E+00  0.88000000000E+00 0.  1.
        -11    1    4    4    0    0  0.13169353077E-01 -0.38329164923E-01  0.18730529596E-01  0.44650314714E-01  0.51100000000E-03 0.  1.
         11    1    4    4    0    0  0.45318479187E-01 -0.25217351582E-01  0.69424273430E-01  0.86658353544E-01  0.51100000000E-03 0. -1.
</event>
<event>
 8    1  0.2877139E+004  0.1043930E+01  0.7957747E-01            NaN
         13   -1    0    0    0    0  0.00000000000E+00  0.00000000000E+00  0.74505805969E-08  0.10566000000E+00  0.10566000000E+00 0. -1.
     999900   -1    0    0    0    0 -0.00000000000E+00 -0.00000000000E+00 -0.74505805969E-08  0.93827000000E+00  0.93827000000E+00 0.  1.
     999902    2    1    2    0    0 -0.11420038926E-01  0.16145477807E-02 -0.10167040493E-01  0.10285549304E+01  0.10284400090E+01 0.  0.
     999903    2    3    3    0    0  0.83601569599E-01  0.10006910549E+00 -0.15990395882E-02  0.13793951581E+00  0.44963371541E-01 0.  0.
         14    1    1    2    0    0  0.11420038926E-01 -0.16145477807E-02  0.10167040493E-01  0.15375069626E-01  0.00000000000E+00 0. -1.
     999901    1    3    3    0    0 -0.95021608524E-01 -0.98454557714E-01 -0.85680009053E-02  0.89061541456E+00  0.88000000000E+00 0. -1.
        -11    1    4    4    0    0  0.29794685753E-01  0.22889974374E-01  0.18265523412E-01  0.41779955630E-01  0.51100000000E-03 0.  1.
         11    1    4    4    0    0  0.53806883846E-01  0.77179131121E-01 -0.19864563000E-01  0.96159560179E-01  0.51100000000E-03 0. -1.
</event>
<event>
 8    1  0.2877139E+004  0.1043930E+01  0.7957747E-01            NaN
         13   -1    0    0    0    0  0.00000000000E+00  0.00000000000E+00  0.74505805969E-08  0.10566000000E+00  0.10566000000E+00 0.  1.
     999900   -1    0    0    0    0 -0.00000000000E+00 -0.00000000000E+00 -0.74505805969E-08  0.93827000000E+00  0.93827000000E+00 0. -1.
     999902    2    1    2    0    0 -0.11732913167E-01  0.55347402126E-02 -0.81468765494E-02  0.10286111816E+01  0.10284971058E+01 0.  0.
     999903    2    3    3    0    0 -0.68687006986E-01 -0.11110256726E+00 -0.15923513700E-01  0.13905595204E+00  0.44959027210E-01 0.  0.
         14    1    1    2    0    0  0.11732913167E-01 -0.55347402126E-02  0.81468765494E-02  0.15318818431E-01  0.00000000000E+00 0.  1.
     999901    1    3    3    0    0  0.56954093818E-01  0.11663730748E+00  0.77766371510E-02  0.88955522953E+00  0.88000000000E+00 0. -1.
        -11    1    4    4    0    0 -0.24814763863E-01 -0.76667578404E-01  0.15762058012E-02  0.80600469165E-01  0.51100000000E-03 0.  1.
         11    1    4    4    0    0 -0.43872243123E-01 -0.34434988860E-01 -0.17499719502E-01  0.58455482875E-01  0.51100000000E-03 0. -1.
</event>
<event>
 8    1  0.2877139E+004  0.1043930E+01  0.7957747E-01            NaN
         13   -1    0    0    0    0  0.00000000000E+00  0.00000000000E+00  0.74505805969E-08  0.10566000000E+00  0.10566000000E+00 0. -1.
     999900   -1    0    0    0    0 -0.00000000000E+00 -0.00000000000E+00 -0.74505805969E-08  0.93827000000E+00  0.93827000000E+00 0.  1.
     999902    2    1    2    0    0 -0.10819499643E-01 -0.44281121847E-02 -0.68007781928E-02  0.10304051956E+01  0.10303164304E+01 0.  0.
     999903    2    3    3    0    0 -0.15201529163E-01 -0.11354855948E+00  0.66375451856E-01  0.14064048803E+00  0.47430838214E-01 0.  0.
         14    1    1    2    0    0  0.10819499643E-01  0.44281121847E-02  0.68007781928E-02  0.13524804400E-01  0.00000000000E+00 0.  1.
     999901    1    3    3    0    0  0.43820295199E-02  0.10912044730E+00 -0.73176230048E-01  0.88976470757E+00  0.88000000000E+00 0. -1.
        -11    1    4    4    0    0  0.12592284937E-01 -0.58719516204E-01  0.46758756858E-01  0.76113006031E-01  0.51100000000E-03 0.  1.
         11    1    4    4    0    0 -0.27793814099E-01 -0.54829043278E-01  0.19616694998E-01  0.64527481995E-01  0.51100000000E-03 0. -1.
</event>
<event>
 8    1  0.2877139E+004  0.1043930E+01  0.7957747E-01            NaN
         13   -1    0    0    0    0  0.00000000000E+00  0.00000000000E+00  0.74505805969E-08  0.10566000000E+00  0.10566000000E+00 0. -1.
     999900   -1    0    0    0    0 -0.00000000000E+00 -0.00000000000E+00 -0.74505805969E-08  0.93827000000E+00  0.93827000000E+00 0. -1.
     999902    2    1    2    0    0  0.54159677361E-02  0.37773869450E-02 -0.12478766115E-01  0.10298118924E+01  0.10297151124E+01 0.  0.
     999903    2    3    3    0    0 -0.10582136660E+00  0.79193971296E-01 -0.33441992688E-02  0.13956201396E+00  0.44682494911E-01 0.  0.
         14    1    1    2    0    0 -0.54159677361E-02 -0.37773869450E-02  0.12478766115E-01  0.14118107607E-01  0.00000000000E+00 0. -1.
     999901    1    3    3    0    0  0.11123733434E+00 -0.75416584351E-01 -0.91345668465E-02  0.89024987844E+00  0.88000000000E+00 0.  1.
        -11    1    4    4    0    0 -0.51136716198E-01  0.14885150990E-01  0.97154813181E-02  0.54140402305E-01  0.51100000000E-03 0.  1.
         11    1    4    4    0    0 -0.54684650404E-01  0.64308820306E-01 -0.13059680587E-01  0.85421611650E-01  0.51100000000E-03 0. -1.
</event>
<event>
 8    1  0.2877139E+004  0.1043930E+01  0.7957747E-01            NaN
         13   -1    0    0    0    0  0.00000000000E+00  0.00000000000E+00  0.74505805969E-08  0.10566000000E+00  0.10566000000E+00 0. -1.
     999900   -1    0    0    0    0 -0.00000000000E+00 -0.00000000000E+00 -0.74505805969E-08  0.93827000000E+00  0.93827000000E+00 0. -1.
     999902    2    1    2    0    0  0.12248458196E-01 -0.32157180374E-02 -0.76769628732E-03  0.10312431987E+01  0.10311651564E+01 0.  0.
     999903    2    3    3    0    0 -0.85000578841E-02 -0.92260326326E-01  0.96618100071E-01  0.14116261999E+00  0.44806352500E-01 0.  0.
         14    1    1    2    0    0 -0.12248458196E-01  0.32157180374E-02  0.76769628732E-03  0.12686801341E-01  0.00000000000E+00 0.  1.
     999901    1    3    3    0    0  0.20748516081E-01  0.89044608288E-01 -0.97385796358E-01  0.89008057867E+00  0.88000000000E+00 0.  1.
        -11    1    4    4    0    0  0.11924214983E-01 -0.40633107214E-01  0.64074727329E-01  0.76805391139E-01  0.51100000000E-03 0. -1.
         11    1    4    4    0    0 -0.20424272867E-01 -0.51627219112E-01  0.32543372742E-01  0.64357228854E-01  0.51100000000E-03 0.  1.
</event>
<event>
 8    1  0.2877139E+004  0.1043930E+01  0.7957747E-01            NaN
         13   -1    0    0    0    0  0.00000000000E+00  0.00000000000E+00  0.74505805969E-08  0.10566000000E+00  0.10566000000E+00 0.  1.
     999900   -1    0    0    0    0 -0.00000000000E+00 -0.00000000000E+00 -0.74505805969E-08  0.93827000000E+00  0.93827000000E+00 0. -1.
     999902    2    1    2    0    0  0.54257080634E-02  0.10950075357E-01 -0.14341869294E-02  0.10316255557E+01  0.10315521740E+01 0.  0.
     999903    2    3    3    0    0  0.27204200761E-02  0.55167563462E-02 -0.13420785964E+00  0.14164483244E+00  0.44873975564E-01 0.  0.
         14    1    1    2    0    0 -0.54257080634E-02 -0.10950075357E-01  0.14341869294E-02  0.12304444338E-01  0.00000000000E+00 0.  1.
     999901    1    3    3    0    0  0.27052879873E-02  0.54333190108E-02  0.13277367271E+00  0.88998072322E+00  0.88000000000E+00 0.  1.
        -11    1    4    4    0    0  0.17380541347E-01  0.10869738701E-01 -0.11536200669E+00  0.11717033817E+00  0.51100000000E-03 0.  1.
         11    1    4    4    0    0 -0.14660121271E-01 -0.53529823545E-02 -0.18845852945E-01  0.24474494275E-01  0.51100000000E-03 0. -1.
</event>
<event>
 8    1  0.2877139E+004  0.1043930E+01  0.7957747E-01            NaN
         13   -1    0    0    0    0  0.00000000000E+00  0.00000000000E+00  0.74505805969E-08  0.10566000000E+00  0.10566000000E+00 0.  1.
     999900   -1    0    0    0    0 -0.00000000000E+00 -0.00000000000E+00 -0.74505805969E-08  0.93827000000E+00  0.93827000000E+00 0. -1.
     999902    2    1    2    0    0 -0.11250095171E-01 -0.46763567060E-02  0.72428816376E-02  0.10297563523E+01  0.10296588041E+01 0.  0.
     999903    2    3    3    0    0 -0.11791243636E+00 -0.62920531982E-01 -0.84800584291E-02  0.14126524388E+00  0.44962448159E-01 0.  0.
         14    1    1    2    0    0  0.11250095171E-01  0.46763567060E-02 -0.72428816376E-02  0.14173647654E-01  0.00000000000E+00 0. -1.
     999901    1    3    3    0    0  0.10666234119E+00  0.58244175276E-01  0.15722940067E-01  0.88849110847E+00  0.88000000000E+00 0. -1.
        -11    1    4    4    0    0 -0.88338250683E-01 -0.48687314413E-01 -0.25850033787E-01  0.10412774119E+00  0.51100000000E-03 0.  1.
         11    1    4    4    0    0 -0.29574185675E-01 -0.14233217569E-01  0.17369975358E-01  0.37137502684E-01  0.51100000000E-03 0. -1.
</event>
<event>
 8    1  0.2877139E+004  0.1043930E+01  0.7957747E-01            NaN
         13   -1    0    0    0    0  0.00000000000E+00  0.00000000000E+00  0.74505805969E-08  0.10566000000E+00  0.10566000000E+00 0.  1.
     999900   -1    0    0    0    0 -0.00000000000E+00 -0.00000000000E+00 -0.74505805969E-08  0.93827000000E+00  0.93827000000E+00 0.  1.
     999902    2    1    2    0    0  0.95633810839E-02  0.11481599387E-01  0.42677028022E-02  0.10283897725E+01  0.10282723499E+01 0.  0.
     999903    2    3    3    0    0 -0.43315742251E-01 -0.10587470010E+00  0.60890370843E-01  0.13722490045E+00  0.45136796462E-01 0.  0.
         14    1    1    2    0    0 -0.95633810839E-02 -0.11481599387E-01 -0.42677028022E-02  0.15540227458E-01  0.00000000000E+00 0.  1.
     999901    1    3    3    0    0  0.52879123335E-01  0.11735629948E+00 -0.56622668041E-01  0.89116487209E+00  0.88000000000E+00 0.  1.
        -11    1    4    4    0    0 -0.33179064369E-01 -0.37262462692E-01  0.42311839361E-01  0.65420901166E-01  0.51100000000E-03 0.  1.
         11    1    4    4    0    0 -0.10136677882E-01 -0.68612237405E-01  0.18578531482E-01  0.71803999284E-01  0.51100000000E-03 0. -1.
</event>
<event>
 8    1  0.2877139E+004  0.1043930E+01  0.7957747E-01            NaN
         13   -1    0    0    0    0  0.00000000000E+00  0.00000000000E+00  0.74505805969E-08  0.10566000000E+00  0.10566000000E+00 0. -1.
     999900   -1    0    0    0    0 -0.00000000000E+00 -0.00000000000E+00 -0.74505805969E-08  0.93827000000E+00  0.93827000000E+00 0. -1.
     999902    2    1    2    0    0  0.11491869991E-01 -0.14602090359E-02 -0.72034425044E-02  0.10302887072E+01  0.10301983961E+01 0.  0.
     999903    2    3    3    0    0 -0.38252733963E-01  0.73438543466E-01 -0.10409476525E+00  0.14041665053E+00  0.44995825052E-01 0.  0.
         14    1    1    2    0    0 -0.11491869991E-01  0.14602090359E-02  0.72034425044E-02  0.13641292835E-01  0.00000000000E+00 0.  1.
     999901    1    3    3    0    0  0.49744603953E-01 -0.74898752502E-01  0.96891322748E-01  0.88987205663E+00  0.88000000000E+00 0.  1.
        -11    1    4    4    0    0 -0.35702131577E-01  0.63457598656E-01 -0.57740334703E-01  0.92928555348E-01  0.51100000000E-03 0. -1.
         11    1    4    4    0    0 -0.25506023854E-02  0.99809448094E-02 -0.46354430550E-01  0.47488095186E-01  0.51100000000E-03 0.  1.
</event>
<event>
 8    1  0.2877139E+004  0.1043930E+01  0.7957747E-01            NaN
         13   -1    0    0    0    0  0.00000000000E+00  0.00000000000E+00  0.74505805969E-08  0.10566000000E+00  0.10566000000E+00 0.  1.
     999900   -1    0    0    0    0 -0.00000000000E+00 -0.00000000000E+00 -0.74505805969E-08  0.93827000000E+00  0.93827000000E+00 0.  1.
     999902    2    1    2    0    0 -0.27427875779E-02 -0.11469243699E-02  0.13946374350E-01  0.10296702778E+01  0.10295715329E+01 0.  0.
     999903    2    3    3    0    0 -0.78576022209E-01 -0.75233756197E-01 -0.73873054591E-01  0.13896730251E+00  0.44948566542E-01 0.  0.
         14    1    1    2    0    0  0.27427875779E-02  0.11469243699E-02 -0.13946374350E-01  0.14259722183E-01  0.00000000000E+00 0. -1.
     999901    1    3    3    0    0  0.75833234631E-01  0.74086831827E-01  0.87819428941E-01  0.89070297531E+00  0.88000000000E+00 0. -1.
        -11    1    4    4    0    0 -0.14031406645E-01 -0.43474271878E-01 -0.31255818726E-01  0.55354132755E-01  0.51100000000E-03 0.  1.
         11    1    4    4    0    0 -0.64544615564E-01 -0.31759484319E-01 -0.42617235865E-01  0.83613169754E-01  0.51100000000E-03 0. -1.
</event>
<event>
 8    1  0.2877139E+004  0.1043930E+01  0.7957747E-01            NaN
         13   -1    0    0    0    0  0.00000000000E+00  0.00000000000E+00  0.74505805969E-08  0.10566000000E+00  0.10566000000E+00 0. -1.
     999900   -1    0    0    0    0 -0.00000000000E+00 -0.00000000000E+00 -0.74505805969E-08  0.93827000000E+00  0.93827000000E+00 0. -1.
     999902    2    1    2    0    0 -0.11673728533E-01 -0.11608622306E-01  0.91004947732E-03  0.10274416938E+01  0.10273093838E+01 0.  0.
     999903    2    3    3    0    0 -0.15943535932E-01  0.83137771833E-01  0.98190219524E-01  0.13701564866E+00  0.44338282842E-01 0.  0.
         14    1    1    2    0    0  0.11673728533E-01  0.11608622306E-01 -0.91004947732E-03  0.16488306152E-01  0.00000000000E+00 0. -1.
     999901    1    3    3    0    0  0.42698073993E-02 -0.94746394139E-01 -0.97280170047E-01  0.89042604518E+00  0.88000000000E+00 0. -1.
        -11    1    4    4    0    0  0.14117380045E-01  0.37479681028E-01  0.50609039471E-01  0.64541172181E-01  0.51100000000E-03 0. -1.
         11    1    4    4    0    0 -0.30060915977E-01  0.45658090805E-01  0.47581180053E-01  0.72474476483E-01  0.51100000000E-03 0.  1.
</event>
<event>
 8    1  0.2877139E+004  0.1043930E+01  0.7957747E-01            NaN
         13   -1    0    0    0    0  0.00000000000E+00  0.00000000000E+00  0.74505805969E-08  0.10566000000E+00  0.10566000000E+00 0. -1.
     999900   -1    0    0    0    0 -0.00000000000E+00 -0.00000000000E+00 -0.74505805969E-08  0.93827000000E+00  0.93827000000E+00 0. -1.
     999902    2    1    2    0    0  0.46272077061E-02  0.65771487182E-02  0.16266914330E-01  0.10257838589E+01  0.10256233435E+01 0.  0.
     999903    2    3    3    0    0 -0.46151748895E-01 -0.61168521555E-01 -0.10098989162E+00  0.13397831009E+00  0.43355015976E-01 0.  0.
         14    1    1    2    0    0 -0.46272077061E-02 -0.65771487182E-02 -0.16266914330E-01  0.18146141139E-01  0.00000000000E+00 0.  1.
     999901    1    3    3    0    0  0.50778956601E-01  0.67745670273E-01  0.11725680595E+00  0.89180554877E+00  0.88000000000E+00 0.  1.
        -11    1    4    4    0    0 -0.19046186459E-01 -0.47407891487E-01 -0.86115553230E-01  0.10013198801E+00  0.51100000000E-03 0. -1.
         11    1    4    4    0    0 -0.27105562437E-01 -0.13760630067E-01 -0.14874338390E-01  0.33846322081E-01  0.51100000000E-03 0.  1.
</event>
<event>
 8    1  0.2877139E+004  0.1043930E+01  0.7957747E-01            NaN
         13   -1    0    0    0    0  0.00000000000E+00  0.00000000000E+00  0.74505805969E-08  0.10566000000E+00  0.10566000000E+00 0. -1.
     999900   -1    0    0    0    0 -0.00000000000E+00 -0.00000000000E+00 -0.74505805969E-08  0.93827000000E+00  0.93827000000E+00 0.  1.
     999902    2    1    2    0    0 -0.68919759038E-03 -0.13414163795E-01 -0.50836641020E-02  0.10295683001E+01  0.10294681278E+01 0.  0.
     999903    2    3    3    0    0 -0.26953006850E-01 -0.10894358197E-01 -0.12911111867E+00  0.14047947068E+00  0.47113152082E-01 0.  0.
         14    1    1    2    0    0  0.68919759038E-03  0.13414163795E-01  0.50836641020E-02  0.14361699911E-01  0.00000000000E+00 0. -1.
     999901    1    3    3    0    0  0.26263809259E-01 -0.25198055982E-02  0.12402745457E+00  0.88908882941E+00  0.88000000000E+00 0. -1.
        -11    1    4    4    0    0 -0.22306271147E-03  0.45867556031E-02 -0.92329632015E-01  0.92445173768E-01  0.51100000000E-03 0.  1.
         11    1    4    4    0    0 -0.26729944138E-01 -0.15481113800E-01 -0.36781486654E-01  0.48034296910E-01  0.51100000000E-03 0. -1.
</event>
<event>
 8    1  0.2877139E+004  0.1043930E+01  0.7957747E-01            NaN
         13   -1    0    0    0    0  0.00000000000E+00  0.00000000000E+00  0.74505805969E-08  0.10566000000E+00  0.10566000000E+00 0.  1.
     999900   -1    0    0    0    0 -0.00000000000E+00 -0.00000000000E+00 -0.74505805969E-08  0.93827000000E+00  0.93827000000E+00 0. -1.
     999902    2    1    2    0    0  0.94994528322E-02 -0.87858269186E-02 -0.66447357398E-02  0.10293841115E+01  0.10292813348E+01 0.  0.
     999903    2    3    3    0    0  0.75367576656E-01  0.40579230203E-01  0.99634377278E-01  0.13917583899E+00  0.45999559665E-01 0.  0.
         14    1    1    2    0    0 -0.94994528322E-02  0.87858269186E-02  0.66447357398E-02  0.14545888485E-01  0.00000000000E+00 0.  1.
     999901    1    3    3    0    0 -0.65868123823E-01 -0.49365057121E-01 -0.10627911302E+00  0.89020827252E+00  0.88000000000E+00 0. -1.
        -11    1    4    4    0    0  0.50123944004E-02  0.19914806656E-01  0.38780025198E-01  0.43884793462E-01  0.51100000000E-03 0. -1.
         11    1    4    4    0    0  0.70355182255E-01  0.20664423546E-01  0.60854352080E-01  0.95291045533E-01  0.51100000000E-03 0.  1.
</event>
<event>
 8    1  0.2877139E+004  0.1043930E+01  0.7957747E-01            NaN
         13   -1    0    0    0    0  0.00000000000E+00  0.00000000000E+00  0.74505805969E-08  0.10566000000E+00  0.10566000000E+00 0.  1.
     999900   -1    0    0    0    0 -0.00000000000E+00 -0.00000000000E+00 -0.74505805969E-08  0.93827000000E+00  0.93827000000E+00 0. -1.
     999902    2    1    2    0    0 -0.11336959645E-01 -0.77525639820E-02 -0.17366188179E-02  0.10300864186E+01  0.10299933907E+01 0.  0.
     999903    2    3    3    0    0 -0.47194886807E-01 -0.12153170668E+00  0.31836775255E-01  0.14140275322E+00  0.44540378189E-01 0.  0.
         14    1    1    2    0    0  0.11336959645E-01  0.77525639820E-02  0.17366188179E-02  0.13843581444E-01  0.00000000000E+00 0. -1.
     999901    1    3    3    0    0  0.35857927162E-01  0.11377914270E+00 -0.33573394073E-01  0.88868366534E+00  0.88000000000E+00 0.  1.
        -11    1    4    4    0    0 -0.24928891683E-02 -0.23118190447E-01 -0.10237664104E-01  0.25411338281E-01  0.51100000000E-03 0. -1.
         11    1    4    4    0    0 -0.44701997638E-01 -0.98413516233E-01  0.42074439358E-01  0.11599141493E+00  0.51100000000E-03 0.  1.
</event>
<event>
 7    1  0.2877139E+004  0.1043930E+01  0.7957747E-01            NaN
         13   -1    0    0    0    0  0.00000000000E+00  0.00000000000E+00  0.74505805969E-08  0.10566000000E+00  0.10566000000E+00 0. -1.
     999900   -1    0    0    0    0 -0.00000000000E+00 -0.00000000000E+00 -0.74505805969E-08  0.93827000000E+00  0.93827000000E+00 0. -1.
     999903    2    1    2    0    0 -0.53649015982E-01  0.84007198708E-01  0.22012647873E-01  0.11171179016E+00  0.45382166574E-01 0.  0.
         14    1    1    2    0    0  0.46185743022E-01 -0.14728462745E-01  0.70404075719E-02  0.48985894011E-01  0.00000000000E+00 0. -1.
     999901    1    1    2    0    0  0.74632729603E-02 -0.69278735962E-01 -0.29053055445E-01  0.88323231583E+00  0.88000000000E+00 0. -1.
        -11    1    3    3    0    0  0.40669488915E-02  0.19002485479E-01  0.14894842216E-01  0.24489834081E-01  0.51100000000E-03 0.  1.
         11    1    3    3    0    0 -0.57715964874E-01  0.65004713228E-01  0.71178056572E-02  0.87221956075E-01  0.51100000000E-03 0. -1.
</event>
<event>
 8    1  0.2877139E+004  0.1043930E+01  0.7957747E-01            NaN
         13   -1    0    0    0    0  0.00000000000E+00  0.00000000000E+00  0.74505805969E-08  0.10566000000E+00  0.10566000000E+00 0. -1.
     999900   -1    0    0    0    0 -0.00000000000E+00 -0.00000000000E+00 -0.74505805969E-08  0.93827000000E+00  0.93827000000E+00 0. -1.
     999902    2    1    2    0    0 -0.56450104620E-02  0.11224491385E-01  0.48529854413E-02  0.10304612652E+01  0.10303732393E+01 0.  0.
     999903    2    3    3    0    0 -0.48009904614E-01 -0.62872570906E-01  0.10788480568E+00  0.14034851115E+00  0.42434209934E-01 0.  0.
         14    1    1    2    0    0  0.56450104620E-02 -0.11224491385E-01 -0.48529854413E-02  0.13468734820E-01  0.00000000000E+00 0.  1.
     999901    1    3    3    0    0  0.42364894152E-01  0.74097062291E-01 -0.10303182024E+00  0.89011275403E+00  0.88000000000E+00 0. -1.
        -11    1    4    4    0    0 -0.37591593816E-01 -0.17013708552E-01  0.37898279861E-01  0.56027983560E-01  0.51100000000E-03 0.  1.
         11    1    4    4    0    0 -0.10418310798E-01 -0.45858862354E-01  0.69986525822E-01  0.84320527595E-01  0.51100000000E-03 0. -1.
</event>
<event>
 8    1  0.2877139E+004  0.1043930E+01  0.7957747E-01            NaN
         13   -1    0    0    0    0  0.00000000000E+00  0.00000000000E+00  0.74505805969E-08  0.10566000000E+00  0.10566000000E+00 0. -1.
     999900   -1    0    0    0    0 -0.00000000000E+00 -0.00000000000E+00 -0.74505805969E-08  0.93827000000E+00  0.93827000000E+00 0.  1.
     999902    2    1    2    0    0 -0.14034968893E-02  0.25910793558E-02  0.13291609215E-01  0.10303156557E+01  0.10302257034E+01 0.  0.
     999903    2    3    3    0    0  0.65938190458E-01  0.59869035466E-02  0.11697629392E+00  0.14166671019E+00  0.44747239705E-01 0.  0.
         14    1    1    2    0    0  0.14034968893E-02 -0.25910793558E-02 -0.13291609215E-01  0.13614344320E-01  0.00000000000E+00 0.  1.
     999901    1    3    3    0    0 -0.67341687347E-01 -0.33958241908E-02 -0.10368468471E+00  0.88864894549E+00  0.88000000000E+00 0.  1.
        -11    1    4    4    0    0  0.30629694929E-02 -0.12924576572E-01  0.12350887198E-01  0.18144751231E-01  0.51100000000E-03 0.  1.
         11    1    4    4    0    0  0.62875220965E-01  0.18911480118E-01  0.10462540672E+00  0.12352195896E+00  0.51100000000E-03 0. -1.
</event>
<event>
 8    1  0.2877139E+004  0.1043930E+01  0.7957747E-01            NaN
         13   -1    0    0    0    0  0.00000000000E+00  0.00000000000E+00  0.74505805969E-08  0.10566000000E+00  0.10566000000E+00 0. -1.
     999900   -1    0    0    0    0 -0.00000000000E+00 -0.00000000000E+00 -0.74505805969E-08  0.93827000000E+00  0.93827000000E+00 0. -1.
     999902    2    1    2    0    0 -0.53895215380E-02  0.11680034939E-01 -0.46215709267E-02  0.10302614567E+01  0.10301707820E+01 0.  0.
     999903    2    3    3    0    0  0.44855380139E-01 -0.99335605811E-01  0.72662630219E-01  0.13850932162E+00  0.45004517961E-01 0.  0.
         14    1    1    2    0    0  0.53895215380E-02 -0.11680034939E-01  0.46215709267E-02  0.13668543317E-01  0.00000000000E+00 0. -1.
     999901    1    3    3    0    0 -0.50244901677E-01  0.11101564075E+00 -0.77284201146E-01  0.89175213506E+00  0.88000000000E+00 0. -1.
        -11    1    4    4    0    0  0.30615066599E-01 -0.18849709339E-01  0.18307725241E-01  0.40348826124E-01  0.51100000000E-03 0. -1.
         11    1    4    4    0    0  0.14240313540E-01 -0.80485896472E-01  0.54354904978E-01  0.98160495500E-01  0.51100000000E-03 0.  1.
</event>
<event>
 8    1  0.2877139E+004  0.1043930E+01  0.7957747E-01            NaN
         13   -1    0    0    0    0  0.00000000000E+00  0.00000000000E+00  0.74505805969E-08  0.10566000000E+00  0.10566000000E+00 0.  1.
     999900   -1    0    0    0    0 -0.00000000000E+00 -0.00000000000E+00 -0.74505805969E-08  0.93827000000E+00  0.93827000000E+00 0.  1.
     999902    2    1    2    0    0  0.22198109637E-01 -0.13147865429E-01 -0.10714770792E-01  0.10159938451E+01  0.10156097009E+01 0.  0.
     999903    2    3    3    0    0 -0.88689716871E-02 -0.82236611652E-01 -0.87767511791E-01  0.12938483135E+00  0.46859145335E-01 0.  0.
         14    1    1    2    0    0 -0.22198109637E-01  0.13147865429E-01  0.10714770792E-01  0.27936154888E-01  0.00000000000E+00 0.  1.
     999901    1    3    3    0    0  0.31067081324E-01  0.69088746222E-01  0.77052741000E-01  0.88660901377E+00  0.88000000000E+00 0. -1.
        -11    1    4    4    0    0 -0.25128996796E-01 -0.48752150843E-01 -0.67575575147E-01  0.87034235616E-01  0.51100000000E-03 0. -1.
         11    1    4    4    0    0  0.16260025109E-01 -0.33484460809E-01 -0.20191936644E-01  0.42350595730E-01  0.51100000000E-03 0.  1.
</event>
<event>
 8    1  0.2877139E+004  0.1043930E+01  0.7957747E-01            NaN
         13   -1    0    0    0    0  0.00000000000E+00  0.00000000000E+00  0.74505805969E-08  0.10566000000E+00  0.10566000000E+00 0.  1.
     999900   -1    0    0    0    0 -0.00000000000E+00 -0.00000000000E+00 -0.74505805969E-08  0.93827000000E+00  0.93827000000E+00 0.  1.
     999902    2    1    2    0    0 -0.38403407014E-02  0.11847601562E-01  0.36677948505E-02  0.10309466800E+01  0.10308649234E+01 0.  0.
     999903    2    3    3    0    0 -0.35263694864E-02 -0.12569043767E+00 -0.39876154713E-01  0.13919958223E+00  0.44451035690E-01 0.  0.
         14    1    1    2    0    0  0.38403407014E-02 -0.11847601562E-01 -0.36677948505E-02  0.12983320012E-01  0.00000000000E+00 0. -1.
     999901    1    3    3    0    0 -0.31397121507E-03  0.13753803924E+00  0.43543949563E-01  0.89174709776E+00  0.88000000000E+00 0.  1.
        -11    1    4    4    0    0 -0.78158752023E-02 -0.74646291512E-01 -0.45331495823E-01  0.87683307284E-01  0.51100000000E-03 0. -1.
         11    1    4    4    0    0  0.42895057159E-02 -0.51044146162E-01  0.54553411108E-02  0.51516274947E-01  0.51100000000E-03 0.  1.
</event>
<event>
 8    1  0.2877139E+004  0.1043930E+01  0.7957747E-01            NaN
         13   -1    0    0    0    0  0.00000000000E+00  0.00000000000E+00  0.74505805969E-08  0.10566000000E+00  0.10566000000E+00 0.  1.
     999900   -1    0    0    0    0 -0.00000000000E+00 -0.00000000000E+00 -0.74505805969E-08  0.93827000000E+00  0.93827000000E+00 0.  1.
     999902    2    1    2    0    0  0.88437253919E-02  0.53228362254E-02  0.92886030262E-02  0.10300439563E+01  0.10299503530E+01 0.  0.
     999903    2    3    3    0    0 -0.11981680688E+00 -0.30736809194E-02 -0.51310699878E-01  0.13858654866E+00  0.46988603110E-01 0.  0.
         14    1    1    2    0    0 -0.88437253919E-02 -0.53228362254E-02 -0.92886030262E-02  0.13886043730E-01  0.00000000000E+00 0. -1.
     999901    1    3    3    0    0  0.12866053227E+00  0.83965171448E-02  0.60599302905E-01  0.89145740761E+00  0.88000000000E+00 0. -1.
        -11    1    4    4    0    0 -0.71256930285E-01 -0.15414524984E-01 -0.50108096730E-01  0.88466039660E-01  0.51100000000E-03 0. -1.
         11    1    4    4    0    0 -0.48559876598E-01  0.12340844064E-01 -0.12026031484E-02  0.50120509003E-01  0.51100000000E-03 0.  1.
</event>
<event>
 8    1  0.2877139E+004  0.1043930E+01  0.7957747E-01            NaN
         13   -1    0    0    0    0  0.00000000000E+00  0.00000000000E+00  0.74505805969E-08  0.10566000000E+00  0.10566000000E+00 0.  1.
     999900   -1    0    0    0    0 -0.00000000000E+00 -0.00000000000E+00 -0.74505805969E-08  0.93827000000E+00  0.93827000000E+00 0.  1.
     999902    2    1    2    0    0  0.74234975015E-02 -0.86904319362E-02 -0.74689702786E-02  0.10302765228E+01  0.10301860492E+01 0.  0.
     999903    2    3    3    0    0  0.80878729782E-01  0.62751021447E-01  0.83484481673E-01  0.13967443274E+00  0.45389743969E-01 0.  0.
         14    1    1    2    0    0 -0.74234975015E-02  0.86904319362E-02  0.74689702786E-02  0.13653477191E-01  0.00000000000E+00 0.  1.
     999901    1    3    3    0    0 -0.73455232281E-01 -0.71441453383E-01 -0.90953451951E-01  0.89060209007E+00  0.88000000000E+00 0. -1.
        -11    1    4    4    0    0  0.21862078698E-01  0.41531887619E-01  0.49995667612E-01  0.68576060511E-01  0.51100000000E-03 0.  1.
         11    1    4    4    0    0  0.59016651084E-01  0.21219133827E-01  0.33488814061E-01  0.71098372230E-01  0.51100000000E-03 0. -1.
</event>
<event>
 8    1  0.2877139E+004  0.1043930E+01  0.7957747E-01            NaN
         13   -1    0    0    0    0  0.00000000000E+00  0.00000000000E+00  0.74505805969E-08  0.10566000000E+00  0.10566000000E+00 0. -1.
     999900   -1    0    0    0    0 -0.00000000000E+00 -0.00000000000E+00 -0.74505805969E-08  0.93827000000E+00  0.93827000000E+00 0. -1.
     999902    2    1    2    0    0 -0.46936926518E-02  0.67755979088E-02 -0.11755775311E-01  0.10295725026E+01  0.10294723893E+01 0.  0.
     999903    2    3    3    0    0  0.80942265344E-01 -0.33712751082E-01 -0.99711775760E-01  0.14012937250E+00  0.44783958157E-01 0.  0.
         14    1    1    2    0    0  0.46936926518E-02 -0.67755979088E-02  0.11755775311E-01  0.14357497376E-01  0.00000000000E+00 0. -1.
     999901    1    3    3    0    0 -0.85635957995E-01  0.40488348991E-01  0.87956000449E-01  0.88944313012E+00  0.88000000000E+00 0.  1.
        -11    1    4    4    0    0  0.67508633183E-01 -0.35056816636E-01 -0.56228143640E-01  0.94595249379E-01  0.51100000000E-03 0.  1.
         11    1    4    4    0    0  0.13433632160E-01  0.13440655537E-02 -0.43483632120E-01  0.45534123123E-01  0.51100000000E-03 0. -1.
</event>
<event>
 8    1  0.2877139E+004  0.1043930E+01  0.7957747E-01            NaN
         13   -1    0    0    0    0  0.00000000000E+00  0.00000000000E+00  0.74505805969E-08  0.10566000000E+00  0.10566000000E+00 0. -1.
     999900   -1    0    0    0    0 -0.00000000000E+00 -0.00000000000E+00 -0.74505805969E-08  0.93827000000E+00  0.93827000000E+00 0. -1.
     999902    2    1    2    0    0 -0.14497632072E-01 -0.30829711828E-02 -0.72605228293E-02  0.10274254176E+01  0.10272928441E+01 0.  0.
     999903    2    3    3    0    0  0.28344841871E-01  0.94925489950E-01 -0.83987812744E-01  0.13763431123E+00  0.45551863151E-01 0.  0.
         14    1    1    2    0    0  0.14497632072E-01  0.30829711828E-02  0.72605228293E-02  0.16504582356E-01  0.00000000000E+00 0. -1.
     999901    1    3    3    0    0 -0.42842473943E-01 -0.98008461133E-01  0.76727289914E-01  0.88979110641E+00  0.88000000000E+00 0.  1.
        -11    1    4    4    0    0  0.19360740883E-01  0.14278906947E-01 -0.36181391036E-01  0.43452038496E-01  0.51100000000E-03 0. -1.
         11    1    4    4    0    0  0.89841009879E-02  0.80646583004E-01 -0.47806421708E-01  0.94182272739E-01  0.51100000000E-03 0.  1.
</event>
<event>
 8    1  0.2877139E+004  0.1043930E+01  0.7957747E-01            NaN
         13   -1    0    0    0    0  0.00000000000E+00  0.00000000000E+00  0.74505805969E-08  0.10566000000E+00  0.10566000000E+00 0.  1.
     999900   -1    0    0    0    0 -0.00000000000E+00 -0.00000000000E+00 -0.74505805969E-08  0.93827000000E+00  0.93827000000E+00 0.  1.
     999902    2    1    2    0    0  0.12050784429E-01 -0.37383986494E-02  0.19948941746E-02  0.10311559391E+01  0.10310768129E+01 0.  0.
     999903    2    3    3    0    0 -0.43258990805E-01 -0.12623495656E+00  0.37000860405E-02  0.14094951042E+00  0.45237918925E-01 0.  0.
         14    1    1    2    0    0 -0.12050784429E-01  0.37383986494E-02 -0.19948941746E-02  0.12774060928E-01  0.00000000000E+00 0. -1.
     999901    1    3    3    0    0  0.55309775234E-01  0.12249655791E+00 -0.17051918659E-02  0.89020642865E+00  0.88000000000E+00 0. -1.
        -11    1    4    4    0    0 -0.63460456586E-02 -0.67689725403E-01 -0.14209280017E-01  0.69457440064E-01  0.51100000000E-03 0.  1.
         11    1    4    4    0    0 -0.36912945146E-01 -0.58545231153E-01  0.17909366058E-01  0.71492070355E-01  0.51100000000E-03 0. -1.
</event>
<event>
 7    1  0.2877139E+004  0.1043930E+01  0.7957747E-01            NaN
         13   -1    0    0    0    0  0.00000000000E+00  0.00000000000E+00  0.74505805969E-08  0.10566000000E+00  0.10566000000E+00 0.  1.
     999900   -1    0    0    0    0 -0.00000000000E+00 -0.00000000000E+00 -0.74505805969E-08  0.93827000000E+00  0.93827000000E+00 0. -1.
     999903    2    1    2    0    0  0.21573906198E-01 -0.70322252054E-01  0.76209664715E-01  0.11669070367E+00  0.48970958372E-01 0.  0.
         14    1    1    2    0    0 -0.32169951107E-01  0.25950348167E-01  0.78020914230E-02  0.42061846783E-01  0.00000000000E+00 0. -1.
     999901    1    1    2    0    0  0.10596044909E-01  0.44371903888E-01 -0.84011756138E-01  0.88517744955E+00  0.88000000000E+00 0. -1.
        -11    1    3    3    0    0  0.32084759221E-01 -0.28940686343E-01  0.51982627799E-01  0.67597705687E-01  0.51100000000E-03 0. -1.
         11    1    3    3    0    0 -0.10510853023E-01 -0.41381565711E-01  0.24227036915E-01  0.49092997980E-01  0.51100000000E-03 0.  1.
</event>
<event>
 7    1  0.2877139E+004  0.1043930E+01  0.7957747E-01            NaN
         13   -1    0    0    0    0  0.00000000000E+00  0.00000000000E+00  0.74505805969E-08  0.10566000000E+00  0.10566000000E+00 0.  1.
     999900   -1    0    0    0    0 -0.00000000000E+00 -0.00000000000E+00 -0.74505805969E-08  0.93827000000E+00  0.93827000000E+00 0.  1.
     999902    2    1    2    0    0  0.23664383586E-02  0.13359400194E-01 -0.25119949059E-02  0.10301320392E+01  0.10300396276E+01 0.  0.
         14    1    1    2    0    0 -0.23664383586E-02 -0.13359400194E-01  0.25119949059E-02  0.13797960808E-01  0.00000000000E+00 0. -1.
     999901    1    3    3    0    0  0.10192462888E+00 -0.45350108745E-01  0.75595650101E-01  0.89025836960E+00  0.88000000000E+00 0. -1.
        -11    1    3    3    0    0 -0.77685782507E-01  0.43626679880E-01 -0.55387569153E-01  0.10491144808E+00  0.51100000000E-03 0. -1.
         11    1    3    3    0    0 -0.21872408016E-01  0.15082829059E-01 -0.22720075854E-01  0.34962221506E-01  0.51100000000E-03 0.  1.
</event>
<event>
 7    1  0.2877139E+004  0.1043930E+01  0.7957747E-01            NaN
         13   -1    0    0    0    0  0.00000000000E+00  0.00000000000E+00  0.74505805969E-08  0.10566000000E+00  0.10566000000E+00 0. -1.
     999900   -1    0    0    0    0 -0.00000000000E+00 -0.00000000000E+00 -0.74505805969E-08  0.93827000000E+00  0.93827000000E+00 0.  1.
     999903    2    1    2    0    0 -0.10075458495E+00  0.13111881117E-01  0.26366633400E-01  0.11439801582E+00  0.45478553756E-01 0.  0.
         14    1    1    2    0    0 -0.29755445377E-01 -0.32907657932E-02  0.24085894408E-01  0.38423247892E-01  0.00000000000E+00 0. -1.
     999901    1    1    2    0    0  0.13051003033E+00 -0.98211153242E-02 -0.50452527809E-01  0.89110873629E+00  0.88000000000E+00 0. -1.
        -11    1    3    3    0    0 -0.27794800548E-01  0.12246170971E-02 -0.12924255490E-01  0.30681397060E-01  0.51100000000E-03 0.  1.
         11    1    3    3    0    0 -0.72959784405E-01  0.11887264020E-01  0.39290888890E-01  0.83716618763E-01  0.51100000000E-03 0. -1.
</event>
<event>
 8    1  0.2877139E+004  0.1043930E+01  0.7957747E-01            NaN
         13   -1    0    0    0    0  0.00000000000E+00  0.00000000000E+00  0.74505805969E-08  0.10566000000E+00  0.10566000000E+00 0.  1.
     999900   -1    0    0    0    0 -0.00000000000E+00 -0.00000000000E+00 -0.74505805969E-08  0.93827000000E+00  0.93827000000E+00 0. -1.
     999902    2    1    2    0    0  0.10413278716E-01  0.74323538619E-02 -0.57047836252E-02  0.10299221160E+01  0.10298268516E+01 0.  0.
     999903    2    3    3    0    0 -0.58138968492E-01  0.87059257515E-01 -0.82895188921E-01  0.14031646571E+00  0.43100397062E-01 0.  0.
         14    1    1    2    0    0 -0.10413278716E-01 -0.74323538619E-02  0.57047836252E-02  0.14007883985E-01  0.00000000000E+00 0.  1.
     999901    1    3    3    0    0  0.68552247208E-01 -0.79626903653E-01  0.77190405296E-01  0.88960565030E+00  0.88000000000E+00 0.  1.
        -11    1    4    4    0    0 -0.33303017761E-01  0.45715771021E-01 -0.17794912499E-01  0.59295385519E-01  0.51100000000E-03 0.  1.
         11    1    4    4    0    0 -0.24835950731E-01  0.41343486494E-01 -0.65100276422E-01  0.81021080192E-01  0.51100000000E-03 0. -1.
</event>
<event>
 8    1  0.2877139E+004  0.1043930E+01  0.7957747E-01            NaN
         13   -1    0    0    0    0  0.00000000000E+00  0.00000000000E+00  0.74505805969E-08  0.10566000000E+00  0.10566000000E+00 0. -1.
     999900   -1    0    0    0    0 -0.00000000000E+00 -0.00000000000E+00 -0.74505805969E-08  0.93827000000E+00  0.93827000000E+00 0. -1.
     999902    2    1    2    0    0 -0.12764710755E-01  0.63877855116E-03 -0.58325217860E-02  0.10298813634E+01  0.10297855401E+01 0.  0.
     999903    2    3    3    0    0  0.10581647384E+00  0.75510729811E-01 -0.16715467093E-01  0.13871036699E+00  0.45411040705E-01 0.  0.
         14    1    1    2    0    0  0.12764710755E-01 -0.63877855116E-03  0.58325217860E-02  0.14048636556E-01  0.00000000000E+00 0. -1.
     999901    1    3    3    0    0 -0.11858118459E+00 -0.74871951260E-01  0.10882945307E-01  0.89117099646E+00  0.88000000000E+00 0.  1.
        -11    1    4    4    0    0  0.47043208828E-01  0.59643657134E-01 -0.16937525854E-01  0.77830394039E-01  0.51100000000E-03 0.  1.
         11    1    4    4    0    0  0.58773265011E-01  0.15867072677E-01  0.22205876192E-03  0.60879972950E-01  0.51100000000E-03 0. -1.
</event>
<event>
 8    1  0.2877139E+004  0.1043930E+01  0.7957747E-01            NaN
         13   -1    0    0    0    0  0.00000000000E+00  0.00000000000E+00  0.74505805969E-08  0.10566000000E+00  0.10566000000E+00 0.  1.
     999900   -1    0    0    0    0 -0.00000000000E+00 -0.00000000000E+00 -0.74505805969E-08  0.93827000000E+00  0.93827000000E+00 0. -1.
     999902    2    1    2    0    0  0.36933703704E-04 -0.11746802756E-01  0.86073631274E-02  0.10293671899E+01  0.10292641722E+01 0.  0.
     999903    2    3    3    0    0 -0.21879656822E-01 -0.13247644789E+00  0.52935284017E-02  0.14084765397E+00  0.42205586838E-01 0.  0.
         14    1    1    2    0    0 -0.36933703704E-04  0.11746802756E-01 -0.86073631274E-02  0.14562810138E-01  0.00000000000E+00 0.  1.
     999901    1    3    3    0    0  0.21916590525E-01  0.12072964513E+00  0.33138347257E-02  0.88851953589E+00  0.88000000000E+00 0.  1.
        -11    1    4    4    0    0  0.80133019341E-02 -0.76915285158E-01  0.76397911476E-02  0.77709726731E-01  0.51100000000E-03 0. -1.
         11    1    4    4    0    0 -0.29892958756E-01 -0.55561162728E-01 -0.23462627459E-02  0.63137927244E-01  0.51100000000E-03 0.  1.
</event>
<event>
 8    1  0.2877139E+004  0.1043930E+01  0.7957747E-01            NaN
         13   -1    0    0    0    0  0.00000000000E+00  0.00000000000E+00  0.74505805969E-08  0.10566000000E+00  0.10566000000E+00 0. -1.
     999900   -1    0    0    0    0 -0.00000000000E+00 -0.00000000000E+00 -0.74505805969E-08  0.93827000000E+00  0.93827000000E+00 0.  1.
     999902    2    1    2    0    0 -0.12977058085E-02 -0.34151206877E-02  0.13659400935E-01  0.10297904695E+01  0.10296933935E+01 0.  0.
     999903    2    3    3    0    0 -0.12999910572E+00  0.13928475614E-02  0.26667635938E-01  0.14032075044E+00  0.45574583775E-01 0.  0.
         14    1    1    2    0    0  0.12977058085E-02  0.34151206877E-02 -0.13659400935E-01  0.14139530529E-01  0.00000000000E+00 0.  1.
     999901    1    3    3    0    0  0.12870139991E+00 -0.48079682491E-02 -0.13008235003E-01  0.88946971903E+00  0.88000000000E+00 0.  1.
        -11    1    4    4    0    0 -0.83883616511E-01 -0.19126186511E-02  0.38911483137E-01  0.92490452858E-01  0.51100000000E-03 0. -1.
         11    1    4    4    0    0 -0.46115489205E-01  0.33054662125E-02 -0.12243847199E-01  0.47830297581E-01  0.51100000000E-03 0.  1.
</event>
<event>
 7    1  0.2877139E+004  0.1043930E+01  0.7957747E-01            NaN
         13   -1    0    0    0    0  0.00000000000E+00  0.00000000000E+00  0.74505805969E-08  0.10566000000E+00  0.10566000000E+00 0.  1.
     999900   -1    0    0    0    0 -0.00000000000E+00 -0.00000000000E+00 -0.74505805969E-08  0.93827000000E+00  0.93827000000E+00 0. -1.
     999902    2    1    2    0    0 -0.25876117223E-03 -0.68849967063E-02  0.12049198828E-01  0.10300500386E+01  0.10299565178E+01 0.  0.
         14    1    1    2    0    0  0.25876117223E-03  0.68849967063E-02 -0.12049198828E-01  0.13879961433E-01  0.00000000000E+00 0. -1.
     999901    1    3    3    0    0 -0.71371629432E-01  0.96193758460E-01 -0.47870713527E-01  0.88940359448E+00  0.88000000000E+00 0. -1.
        -11    1    3    3    0    0  0.68439101126E-01 -0.88972791341E-01  0.48440407924E-01  0.12225711596E+00  0.51100000000E-03 0. -1.
         11    1    3    3    0    0  0.26737671331E-02 -0.14105963826E-01  0.11479504430E-01  0.18389328131E-01  0.51100000000E-03 0.  1.
</event>
<event>
 8    1  0.2877139E+004  0.1043930E+01  0.7957747E-01            NaN
         13   -1    0    0    0    0  0.00000000000E+00  0.00000000000E+00  0.74505805969E-08  0.10566000000E+00  0.10566000000E+00 0.  1.
     999900   -1    0    0    0    0 -0.00000000000E+00 -0.00000000000E+00 -0.74505805969E-08  0.93827000000E+00  0.93827000000E+00 0.  1.
     999902    2    1    2    0    0 -0.82449613327E-02  0.10680643880E-01  0.97127263211E-03  0.10304022910E+01  0.10303134874E+01 0.  0.
     999903    2    3    3    0    0  0.44763001121E-01  0.54305670285E-01 -0.11289308440E+00  0.14041460633E+00  0.44928621956E-01 0.  0.
         14    1    1    2    0    0  0.82449613327E-02 -0.10680643880E-01 -0.97127263211E-03  0.13527709030E-01  0.00000000000E+00 0. -1.
     999901    1    3    3    0    0 -0.53007962454E-01 -0.43625026405E-01  0.11386435703E+00  0.88998768464E+00  0.88000000000E+00 0. -1.
        -11    1    4    4    0    0  0.36351105091E-01  0.48078867736E-01 -0.55055313199E-01  0.81635341590E-01  0.51100000000E-03 0. -1.
         11    1    4    4    0    0  0.84118960296E-02  0.62268025490E-02 -0.57837771200E-01  0.58779264738E-01  0.51100000000E-03 0.  1.
</event>
<event>
 8    1  0.2877139E+004  0.1043930E+01  0.7957747E-01            NaN
         13   -1    0    0    0    0  0.00000000000E+00  0.00000000000E+00  0.74505805969E-08  0.10566000000E+00  0.10566000000E+00 0. -1.
     999900   -1    0    0    0    0 -0.00000000000E+00 -0.00000000000E+00 -0.74505805969E-08  0.93827000000E+00  0.93827000000E+00 0. -1.
     999902    2    1    2    0    0  0.12826167056E-02 -0.14000740893E-01 -0.13128727339E-02  0.10298094658E+01  0.10297126523E+01 0.  0.
     999903    2    3    3    0    0 -0.12398172815E+00 -0.14013529514E-01  0.44271010105E-01  0.13977067641E+00  0.44811513300E-01 0.  0.
         14    1    1    2    0    0 -0.12826167056E-02  0.14000740893E-01  0.13128727339E-02  0.14120534196E-01  0.00000000000E+00 0. -1.
     999901    1    3    3    0    0  0.12526434485E+00  0.12788620839E-04 -0.45583882839E-01  0.89003878940E+00  0.88000000000E+00 0. -1.
        -11    1    4    4    0    0 -0.11229823839E+00 -0.26526749654E-01  0.37159642492E-01  0.12122566949E+00  0.51100000000E-03 0. -1.
         11    1    4    4    0    0 -0.11683489755E-01  0.12513220140E-01  0.71113676126E-02  0.18545006915E-01  0.51100000000E-03 0.  1.
</event>
<event>
 8    1  0.2877139E+004  0.1043930E+01  0.7957747E-01            NaN
         13   -1    0    0    0    0  0.00000000000E+00  0.00000000000E+00  0.74505805969E-08  0.10566000000E+00  0.10566000000E+00 0.  1.
     999900   -1    0    0    0    0 -0.00000000000E+00 -0.00000000000E+00 -0.74505805969E-08  0.93827000000E+00  0.93827000000E+00 0.  1.
     999902    2    1    2    0    0  0.61310232327E-02  0.83246076257E-02  0.69699576052E-02  0.10314612853E+01  0.10313859191E+01 0.  0.
     999903    2    3    3    0    0  0.58587214504E-01  0.59343250252E-01 -0.10492627982E+00  0.14136279530E+00  0.44942548261E-01 0.  0.
         14    1    1    2    0    0 -0.61310232327E-02 -0.83246076257E-02 -0.69699576052E-02  0.12468714730E-01  0.00000000000E+00 0. -1.
     999901    1    3    3    0    0 -0.52456191271E-01 -0.51018642627E-01  0.11189623742E+00  0.89009848997E+00  0.88000000000E+00 0. -1.
        -11    1    4    4    0    0  0.48992248171E-01  0.22648155381E-01 -0.44206982679E-01  0.69768888207E-01  0.51100000000E-03 0.  1.
         11    1    4    4    0    0  0.95949663325E-02  0.36695094871E-01 -0.60719297140E-01  0.71593907092E-01  0.51100000000E-03 0. -1.
</event>
<event>
 8    1  0.2877139E+004  0.1043930E+01  0.7957747E-01            NaN
         13   -1    0    0    0    0  0.00000000000E+00  0.00000000000E+00  0.74505805969E-08  0.10566000000E+00  0.10566000000E+00 0. -1.
     999900   -1    0    0    0    0 -0.00000000000E+00 -0.00000000000E+00 -0.74505805969E-08  0.93827000000E+00  0.93827000000E+00 0.  1.
     999902    2    1    2    0    0  0.11252310602E-01 -0.75597036081E-02 -0.33004128008E-02  0.10299780705E+01  0.10298835708E+01 0.  0.
     999903    2    3    3    0    0 -0.12148090291E+00 -0.42775240153E-01 -0.27614975582E-01  0.13899578225E+00  0.44383664384E-01 0.  0.
         14    1    1    2    0    0 -0.11252310602E-01  0.75597036081E-02  0.33004128008E-02  0.13951929515E-01  0.00000000000E+00 0. -1.
     999901    1    3    3    0    0  0.13273321352E+00  0.35215536545E-01  0.24314562782E-01  0.89098228823E+00  0.88000000000E+00 0.  1.
        -11    1    4    4    0    0 -0.72683601615E-01 -0.61468915734E-02 -0.24294539443E-02  0.72985297062E-01  0.51100000000E-03 0.  1.
         11    1    4    4    0    0 -0.48797301299E-01 -0.36628348579E-01 -0.25185521638E-01  0.66010485189E-01  0.51100000000E-03 0. -1.
</event>
<event>
 8    1  0.2877139E+004  0.1043930E+01  0.7957747E-01            NaN
         13   -1    0    0    0    0  0.00000000000E+00  0.00000000000E+00  0.74505805969E-08  0.10566000000E+00  0.10566000000E+00 0. -1.
     999900   -1    0    0    0    0 -0.00000000000E+00 -0.00000000000E+00 -0.74505805969E-08  0.93827000000E+00  0.93827000000E+00 0.  1.
     999902    2    1    2    0    0  0.69285032847E-02  0.21192410225E-02 -0.13085348822E-01  0.10289726709E+01  0.10288639540E+01 0.  0.
     999903    2    3    3    0    0  0.33174453828E-01 -0.93922329096E-01 -0.87582253246E-01  0.14023051375E+00  0.45519200490E-01 0.  0.
         14    1    1    2    0    0 -0.69285032847E-02 -0.21192410225E-02  0.13085348822E-01  0.14957329109E-01  0.00000000000E+00 0. -1.
     999901    1    3    3    0    0 -0.26245950544E-01  0.96041570118E-01  0.74496904424E-01  0.88874215714E+00  0.88000000000E+00 0.  1.
        -11    1    4    4    0    0 -0.49265451134E-02 -0.53875418209E-01 -0.39830432150E-01  0.67183003656E-01  0.51100000000E-03 0. -1.
         11    1    4    4    0    0  0.38100998942E-01 -0.40046910886E-01 -0.47751821097E-01  0.73047510094E-01  0.51100000000E-03 0.  1.
</event>
<event>
 8    1  0.2877139E+004  0.1043930E+01  0.7957747E-01            NaN
         13   -1    0    0    0    0  0.00000000000E+00  0.00000000000E+00  0.74505805969E-08  0.10566000000E+00  0.10566000000E+00 0.  1.
     999900   -1    0    0    0    0 -0.00000000000E+00 -0.00000000000E+00 -0.74505805969E-08  0.93827000000E+00  0.93827000000E+00 0.  1.
     999902    2    1    2    0    0 -0.36226634535E-02  0.93334151246E-02 -0.96597375344E-02  0.10300178881E+01  0.10299239307E+01 0.  0.
     999903    2    3    3    0    0  0.32704685816E-01  0.11018028693E+00 -0.71017447612E-01  0.14139280605E+00  0.41703184940E-01 0.  0.
         14    1    1    2    0    0  0.36226634535E-02 -0.93334151246E-02  0.96597375344E-02  0.13912111904E-01  0.00000000000E+00 0. -1.
     999901    1    3    3    0    0 -0.36327349269E-01 -0.10084687181E+00  0.61357710077E-01  0.88862508205E+00  0.88000000000E+00 0. -1.
        -11    1    4    4    0    0 -0.54266005298E-02  0.50989802545E-01 -0.23231482635E-01  0.56297165678E-01  0.51100000000E-03 0.  1.
         11    1    4    4    0    0  0.38131286346E-01  0.59190484388E-01 -0.47785964977E-01  0.85095640371E-01  0.51100000000E-03 0. -1.
</event>
<event>
 8    1  0.2877139E+004  0.1043930E+01  0.7957747E-01            NaN
         13   -1    0    0    0    0  0.00000000000E+00  0.00000000000E+00  0.74505805969E-08  0.10566000000E+00  0.10566000000E+00 0. -1.
     999900   -1    0    0    0    0 -0.00000000000E+00 -0.00000000000E+00 -0.74505805969E-08  0.93827000000E+00  0.93827000000E+00 0. -1.
     999902    2    1    2    0    0  0.26855979676E-03  0.16600412225E-02  0.10184525449E-01  0.10336075768E+01  0.10335560316E+01 0.  0.
     999903    2    3    3    0    0  0.45868020430E-01 -0.54292901306E-01 -0.11428622730E+00  0.14192208808E+00  0.45043788738E-01 0.  0.
         14    1    1    2    0    0 -0.26855979676E-03 -0.16600412225E-02 -0.10184525449E-01  0.10322423158E-01  0.00000000000E+00 0.  1.
     999901    1    3    3    0    0 -0.45599460633E-01  0.55952942528E-01  0.12447075275E+00  0.89168548877E+00  0.88000000000E+00 0.  1.
        -11    1    4    4    0    0  0.41923701314E-01 -0.51209583603E-01 -0.66325965451E-01  0.93698521860E-01  0.51100000000E-03 0. -1.
         11    1    4    4    0    0  0.39443191154E-02 -0.30833177029E-02 -0.47960261845E-01  0.48223566216E-01  0.51100000000E-03 0.  1.
</event>
<event>
 8    1  0.2877139E+004  0.1043930E+01  0.7957747E-01            NaN
         13   -1    0    0    0    0  0.00000000000E+00  0.00000000000E+00  0.74505805969E-08  0.10566000000E+00  0.10566000000E+00 0. -1.
     999900   -1    0    0    0    0 -0.00000000000E+00 -0.00000000000E+00 -0.74505805969E-08  0.93827000000E+00  0.93827000000E+00 0. -1.
     999902    2    1    2    0    0  0.85721072242E-03  0.96911782545E-02 -0.56269215007E-03  0.10341847258E+01  0.10341388092E+01 0.  0.
     999903    2    3    3    0    0  0.83103811663E-02 -0.97404375500E-01  0.93529538442E-01  0.14268130170E+00  0.45315609795E-01 0.  0.
         14    1    1    2    0    0 -0.85721072242E-03 -0.96911782545E-02  0.56269215007E-03  0.97452741696E-02  0.00000000000E+00 0.  1.
     999901    1    3    3    0    0 -0.74531704439E-02  0.10709555375E+00 -0.94092230592E-01  0.89150342413E+00  0.88000000000E+00 0. -1.
        -11    1    4    4    0    0  0.23927517116E-01 -0.56962487362E-01  0.39196143395E-01  0.73170006286E-01  0.51100000000E-03 0.  1.
         11    1    4    4    0    0 -0.15617135950E-01 -0.40441888138E-01  0.54333395047E-01  0.69511295411E-01  0.51100000000E-03 0. -1.
</event>
<event>
 8    1  0.2877139E+004  0.1043930E+01  0.7957747E-01            NaN
         13   -1    0    0    0    0  0.00000000000E+00  0.00000000000E+00  0.74505805969E-08  0.10566000000E+00  0.10566000000E+00 0. -1.
     999900   -1    0    0    0    0 -0.00000000000E+00 -0.00000000000E+00 -0.74505805969E-08  0.93827000000E+00  0.93827000000E+00 0.  1.
     999902    2    1    2    0    0  0.11243137012E-01 -0.75807465608E-02 -0.41344070430E-02  0.10297536405E+01  0.10296560546E+01 0.  0.
     999903    2    3    3    0    0  0.23172791744E-01 -0.63656303478E-01  0.11406712980E+00  0.14000177164E+00  0.44722284307E-01 0.  0.
         14    1    1    2    0    0 -0.11243137012E-01  0.75807465608E-02  0.41344070430E-02  0.14176359543E-01  0.00000000000E+00 0. -1.
     999901    1    3    3    0    0 -0.11929654732E-01  0.56075556918E-01 -0.11820153684E+00  0.88975186881E+00  0.88000000000E+00 0.  1.
        -11    1    4    4    0    0  0.24673771773E-01 -0.12713577120E-01  0.57559691026E-01  0.63904688472E-01  0.51100000000E-03 0. -1.
         11    1    4    4    0    0 -0.15009800292E-02 -0.50942726358E-01  0.56507438771E-01  0.76097083172E-01  0.51100000000E-03 0.  1.
</event>
<event>
 8    1  0.2877139E+004  0.1043930E+01  0.7957747E-01            NaN
         13   -1    0    0    0    0  0.00000000000E+00  0.00000000000E+00  0.74505805969E-08  0.10566000000E+00  0.10566000000E+00 0. -1.
     999900   -1    0    0    0    0 -0.00000000000E+00 -0.00000000000E+00 -0.74505805969E-08  0.93827000000E+00  0.93827000000E+00 0. -1.
     999902    2    1    2    0    0  0.53636617640E-02 -0.14380036317E-02  0.12693413854E-01  0.10300750559E+01  0.10299818742E+01 0.  0.
     999903    2    3    3    0    0 -0.12930479010E+00  0.26329211630E-01  0.28045362809E-02  0.13934254827E+00  0.44671290643E-01 0.  0.
         14    1    1    2    0    0 -0.53636617640E-02  0.14380036317E-02 -0.12693413854E-01  0.13854944144E-01  0.00000000000E+00 0.  1.
     999901    1    3    3    0    0  0.13466845186E+00 -0.27767215261E-01  0.98888775734E-02  0.89073250759E+00  0.88000000000E+00 0. -1.
        -11    1    4    4    0    0 -0.69425607027E-01 -0.46541411628E-02 -0.11206562085E-01  0.70479955277E-01  0.51100000000E-03 0.  1.
         11    1    4    4    0    0 -0.59879183069E-01  0.30983352792E-01  0.14011098366E-01  0.68862592993E-01  0.51100000000E-03 0. -1.
</event>
<event>
 8    1  0.2877139E+004  0.1043930E+01  0.7957747E-01            NaN
         13   -1    0    0    0    0  0.00000000000E+00  0.00000000000E+00  0.74505805969E-08  0.10566000000E+00  0.10566000000E+00 0. -1.
     999900   -1    0    0    0    0 -0.00000000000E+00 -0.00000000000E+00 -0.74505805969E-08  0.93827000000E+00  0.93827000000E+00 0. -1.
     999902    2    1    2    0    0 -0.11419893666E-01 -0.35876624418E-02  0.73970174463E-02  0.10298587115E+01  0.10297625768E+01 0.  0.
     999903    2    3    3    0    0 -0.66500912572E-01  0.25393136419E-02  0.11636728742E+00  0.14140726194E+00  0.45009428567E-01 0.  0.
         14    1    1    2    0    0  0.11419893666E-01  0.35876624418E-02 -0.73970174463E-02  0.14071288507E-01  0.00000000000E+00 0. -1.
     999901    1    3    3    0    0  0.55081018906E-01 -0.61269760837E-02 -0.10897026998E+00  0.88845144956E+00  0.88000000000E+00 0. -1.
        -11    1    4    4    0    0 -0.49541727268E-01  0.19286382596E-01  0.59770931074E-01  0.79994828688E-01  0.51100000000E-03 0. -1.
         11    1    4    4    0    0 -0.16959185304E-01 -0.16747068954E-01  0.56596356348E-01  0.61412433249E-01  0.51100000000E-03 0.  1.
</event>
<event>
 8    1  0.2877139E+004  0.1043930E+01  0.7957747E-01            NaN
         13   -1    0    0    0    0  0.00000000000E+00  0.00000000000E+00  0.74505805969E-08  0.10566000000E+00  0.10566000000E+00 0. -1.
     999900   -1    0    0    0    0 -0.00000000000E+00 -0.00000000000E+00 -0.74505805969E-08  0.93827000000E+00  0.93827000000E+00 0.  1.
     999902    2    1    2    0    0  0.54297757377E-02  0.25399450700E-02 -0.12121394723E-01  0.10304073525E+01  0.10303186158E+01 0.  0.
     999903    2    3    3    0    0 -0.11692011900E+00 -0.41573496584E-01  0.44092577253E-01  0.13907379926E+00  0.44706782784E-01 0.  0.
         14    1    1    2    0    0 -0.54297757377E-02 -0.25399450700E-02  0.12121394723E-01  0.13522647506E-01  0.00000000000E+00 0. -1.
     999901    1    3    3    0    0  0.12234989474E+00  0.44113441654E-01 -0.56213971977E-01  0.89133355323E+00  0.88000000000E+00 0. -1.
        -11    1    4    4    0    0 -0.72808279816E-01 -0.46867595500E-02  0.34757075810E-01  0.80816624309E-01  0.51100000000E-03 0. -1.
         11    1    4    4    0    0 -0.44111839182E-01 -0.36886737034E-01  0.93355014434E-02  0.58257174951E-01  0.51100000000E-03 0.  1.
</event>
<event>
 8    1  0.2877139E+004  0.1043930E+01  0.7957747E-01            NaN
         13   -1    0    0    0    0  0.00000000000E+00  0.00000000000E+00  0.74505805969E-08  0.10566000000E+00  0.10566000000E+00 0.  1.
     999900   -1    0    0    0    0 -0.00000000000E+00 -0.00000000000E+00 -0.74505805969E-08  0.93827000000E+00  0.93827000000E+00 0.  1.
     999902    2    1    2    0    0 -0.21264400322E-02  0.45998250066E-02 -0.12802503882E-01  0.10301610406E+01  0.10300690197E+01 0.  0.
     999903    2    3    3    0    0  0.41411445946E-01 -0.80944037232E-01 -0.98316300816E-01  0.14082088670E+00  0.43561245445E-01 0.  0.
         14    1    1    2    0    0  0.21264400322E-02 -0.45998250066E-02  0.12802503882E-01  0.13768959399E-01  0.00000000000E+00 0.  1.
     999901    1    3    3    0    0 -0.43537885978E-01  0.85543862238E-01  0.85513796935E-01  0.88934015391E+00  0.88000000000E+00 0. -1.
        -11    1    4    4    0    0  0.31441852026E-01 -0.17469067849E-01 -0.28140818227E-01  0.45671929692E-01  0.51100000000E-03 0.  1.
         11    1    4    4    0    0  0.99695939200E-02 -0.63474969383E-01 -0.70175482589E-01  0.95148957003E-01  0.51100000000E-03 0. -1.
</event>
<event>
 8    1  0.2877139E+004  0.1043930E+01  0.7957747E-01            NaN
         13   -1    0    0    0    0  0.00000000000E+00  0.00000000000E+00  0.74505805969E-08  0.10566000000E+00  0.10566000000E+00 0.  1.
     999900   -1    0    0    0    0 -0.00000000000E+00 -0.00000000000E+00 -0.74505805969E-08  0.93827000000E+00  0.93827000000E+00 0. -1.
     999902    2    1    2    0    0  0.43231208330E-02  0.63148350668E-02 -0.10546441420E-01  0.10308994995E+01  0.10308171439E+01 0.  0.
     999903    2    3    3    0    0 -0.13248367947E+00 -0.69749898102E-02  0.81388856417E-02  0.14003370633E+00  0.44075181695E-01 0.  0.
         14    1    1    2    0    0 -0.43231208330E-02 -0.63148350668E-02  0.10546441420E-01  0.13030500462E-01  0.00000000000E+00 0.  1.
     999901    1    3    3    0    0  0.13680680030E+00  0.13289824877E-01 -0.18685327062E-01  0.89086579320E+00  0.88000000000E+00 0. -1.
        -11    1    4    4    0    0 -0.95241403748E-01 -0.24471265031E-01  0.14770151760E-02  0.98347396991E-01  0.51100000000E-03 0.  1.
         11    1    4    4    0    0 -0.37242275721E-01  0.17496275220E-01  0.66618704657E-02  0.41686309342E-01  0.51100000000E-03 0. -1.
</event>
<event>
 8    1  0.2877139E+004  0.1043930E+01  0.7957747E-01            NaN
         13   -1    0    0    0    0  0.00000000000E+00  0.00000000000E+00  0.74505805969E-08  0.10566000000E+00  0.10566000000E+00 0. -1.
     999900   -1    0    0    0    0 -0.00000000000E+00 -0.00000000000E+00 -0.74505805969E-08  0.93827000000E+00  0.93827000000E+00 0.  1.
     999902    2    1    2    0    0  0.30739259102E-03  0.13689979041E-01  0.38100162448E-02  0.10297164065E+01  0.10296183038E+01 0.  0.
     999903    2    3    3    0    0  0.24128858617E-01  0.12889945361E+00 -0.28376582279E-01  0.14130396715E+00  0.44320534186E-01 0.  0.
         14    1    1    2    0    0 -0.30739259102E-03 -0.13689979041E-01 -0.38100162448E-02  0.14213593498E-01  0.00000000000E+00 0.  1.
     999901    1    3    3    0    0 -0.23821466026E-01 -0.11520947457E+00  0.32186598524E-01  0.88841243935E+00  0.88000000000E+00 0.  1.
        -11    1    4    4    0    0  0.16518597635E-01  0.79113040163E-01 -0.39140028085E-01  0.89799443824E-01  0.51100000000E-03 0.  1.
         11    1    4    4    0    0  0.76102609818E-02  0.49786413448E-01  0.10763445805E-01  0.51504523324E-01  0.51100000000E-03 0. -1.
</event>
<event>
 8    1  0.2877139E+004  0.1043930E+01  0.7957747E-01            NaN
         13   -1    0    0    0    0  0.00000000000E+00  0.00000000000E+00  0.74505805969E-08  0.10566000000E+00  0.10566000000E+00 0. -1.
     999900   -1    0    0    0    0 -0.00000000000E+00 -0.00000000000E+00 -0.74505805969E-08  0.93827000000E+00  0.93827000000E+00 0.  1.
     999902    2    1    2    0    0  0.65815759030E-03 -0.10562609072E-01 -0.93134594447E-02  0.10298323971E+01  0.10297358999E+01 0.  0.
     999903    2    3    3    0    0 -0.56794356674E-01  0.97183851249E-01  0.65932357627E-01  0.13822036030E+00  0.45689083224E-01 0.  0.
         14    1    1    2    0    0 -0.65815759030E-03  0.10562609072E-01  0.93134594447E-02  0.14097602940E-01  0.00000000000E+00 0.  1.
     999901    1    3    3    0    0  0.57452514264E-01 -0.10774646032E+00 -0.75245817072E-01  0.89161203676E+00  0.88000000000E+00 0. -1.
        -11    1    4    4    0    0 -0.21588593393E-01  0.13866295768E-01 -0.10228067945E-02  0.25683628594E-01  0.51100000000E-03 0. -1.
         11    1    4    4    0    0 -0.35205763281E-01  0.83317555481E-01  0.66955164422E-01  0.11253673171E+00  0.51100000000E-03 0.  1.
</event>
<event>
 8    1  0.2877139E+004  0.1043930E+01  0.7957747E-01            NaN
         13   -1    0    0    0    0  0.00000000000E+00  0.00000000000E+00  0.74505805969E-08  0.10566000000E+00  0.10566000000E+00 0. -1.
     999900   -1    0    0    0    0 -0.00000000000E+00 -0.00000000000E+00 -0.74505805969E-08  0.93827000000E+00  0.93827000000E+00 0.  1.
     999902    2    1    2    0    0  0.10402993711E-01 -0.70904534115E-02  0.16973083158E-02  0.10312265492E+01  0.10311483007E+01 0.  0.
     999903    2    3    3    0    0 -0.23463989239E-01 -0.11343139939E-01 -0.13153350042E+00  0.14054394224E+00  0.42098840285E-01 0.  0.
         14    1    1    2    0    0 -0.10402993711E-01  0.70904534115E-02 -0.16973083158E-02  0.12703450840E-01  0.00000000000E+00 0. -1.
     999901    1    3    3    0    0  0.33866982950E-01  0.42526865277E-02  0.13323080873E+00  0.89068260692E+00  0.88000000000E+00 0. -1.
        -11    1    4    4    0    0  0.93919121702E-02  0.40523666326E-02 -0.12822600568E-01  0.16410664090E-01  0.51100000000E-03 0. -1.
         11    1    4    4    0    0 -0.32855901410E-01 -0.15395506572E-01 -0.11871089985E+00  0.12413327815E+00  0.51100000000E-03 0.  1.
</event>
<event>
 8    1  0.2877139E+004  0.1043930E+01  0.7957747E-01            NaN
         13   -1    0    0    0    0  0.00000000000E+00  0.00000000000E+00  0.74505805969E-08  0.10566000000E+00  0.10566000000E+00 0. -1.
     999900   -1    0    0    0    0 -0.00000000000E+00 -0.00000000000E+00 -0.74505805969E-08  0.93827000000E+00  0.93827000000E+00 0. -1.
     999902    2    1    2    0    0  0.38812988453E-02  0.11898275537E-01 -0.64537438859E-02  0.10298486559E+01  0.10297523828E+01 0.  0.
     999903    2    3    3    0    0  0.12094170810E+00  0.41984621633E-01 -0.37553963682E-01  0.14104296774E+00  0.45751648587E-01 0.  0.
         14    1    1    2    0    0 -0.38812988453E-02 -0.11898275537E-01  0.64537438859E-02  0.14081344099E-01  0.00000000000E+00 0. -1.
     999901    1    3    3    0    0 -0.11706040926E+00 -0.30086346096E-01  0.31100219797E-01  0.88880568816E+00  0.88000000000E+00 0.  1.
        -11    1    4    4    0    0  0.74584211506E-01  0.60871164697E-02 -0.76502623107E-02  0.75223967107E-01  0.51100000000E-03 0. -1.
         11    1    4    4    0    0  0.46357496595E-01  0.35897505163E-01 -0.29903701372E-01  0.65819000632E-01  0.51100000000E-03 0.  1.
</event>
<event>
 8    1  0.2877139E+004  0.1043930E+01  0.7957747E-01            NaN
         13   -1    0    0    0    0  0.00000000000E+00  0.00000000000E+00  0.74505805969E-08  0.10566000000E+00  0.10566000000E+00 0.  1.
     999900   -1    0    0    0    0 -0.00000000000E+00 -0.00000000000E+00 -0.74505805969E-08  0.93827000000E+00  0.93827000000E+00 0.  1.
     999902    2    1    2    0    0 -0.98874480755E-02  0.72485509077E-03  0.88511456689E-02  0.10306397847E+01  0.10305540917E+01 0.  0.
     999903    2    3    3    0    0 -0.12421822910E+00  0.15277459491E-01 -0.47337610769E-01  0.14134766047E+00  0.45549341580E-01 0.  0.
         14    1    1    2    0    0  0.98874480755E-02 -0.72485509077E-03 -0.88511456689E-02  0.13290215348E-01  0.00000000000E+00 0. -1.
     999901    1    3    3    0    0  0.11433078102E+00 -0.14552604400E-01  0.56188756438E-01  0.88929212418E+00  0.88000000000E+00 0. -1.
        -11    1    4    4    0    0 -0.84211415385E-01  0.23906803162E-01 -0.14199984476E-01  0.88684826203E-01  0.51100000000E-03 0.  1.
         11    1    4    4    0    0 -0.40006813712E-01 -0.86293436714E-02 -0.33137626293E-01  0.52662834266E-01  0.51100000000E-03 0. -1.
</event>
<event>
 7    1  0.2877139E+004  0.1043930E+01  0.7957747E-01            NaN
         13   -1    0    0    0    0  0.00000000000E+00  0.00000000000E+00  0.74505805969E-08  0.10566000000E+00  0.10566000000E+00 0. -1.
     999900   -1    0    0    0    0 -0.00000000000E+00 -0.00000000000E+00 -0.74505805969E-08  0.93827000000E+00  0.93827000000E+00 0.  1.
     999903    2    1    2    0    0 -0.52151327449E-01  0.15493395245E-01 -0.66153726072E-01  0.97225401936E-01  0.46007141375E-01 0.  0.
         14    1    1    2    0    0 -0.25803409109E-01 -0.83211338958E-02 -0.48756723997E-01  0.55787770397E-01  0.00000000000E+00 0.  1.
     999901    1    1    2    0    0  0.77954736558E-01 -0.71722613489E-02  0.11491045007E+00  0.89091682767E+00  0.88000000000E+00 0. -1.
        -11    1    3    3    0    0 -0.13752014554E-01  0.62315008794E-02  0.49397594690E-02  0.15893767713E-01  0.51100000000E-03 0.  1.
         11    1    3    3    0    0 -0.38399312895E-01  0.92618943653E-02 -0.71093485541E-01  0.81331634223E-01  0.51100000000E-03 0. -1.
</event>
<event>
 8    1  0.2877139E+004  0.1043930E+01  0.7957747E-01            NaN
         13   -1    0    0    0    0  0.00000000000E+00  0.00000000000E+00  0.74505805969E-08  0.10566000000E+00  0.10566000000E+00 0. -1.
     999900   -1    0    0    0    0 -0.00000000000E+00 -0.00000000000E+00 -0.74505805969E-08  0.93827000000E+00  0.93827000000E+00 0. -1.
     999902    2    1    2    0    0 -0.63417683428E-03 -0.23139829516E-02 -0.14176254318E-01  0.10295521391E+01  0.10294517396E+01 0.  0.
     999903    2    3    3    0    0  0.61993661708E-01  0.10491775500E+00  0.48500898717E-01  0.13862603819E+00  0.44876406727E-01 0.  0.
         14    1    1    2    0    0  0.63417683428E-03  0.23139829516E-02  0.14176254318E-01  0.14377860893E-01  0.00000000000E+00 0. -1.
     999901    1    3    3    0    0 -0.62627838542E-01 -0.10723173795E+00 -0.62677153035E-01  0.89092610092E+00  0.88000000000E+00 0. -1.
        -11    1    4    4    0    0  0.63064747979E-01  0.10128429838E+00  0.34630346795E-01  0.12423845450E+00  0.51100000000E-03 0. -1.
         11    1    4    4    0    0 -0.10710862706E-02  0.36334566224E-02  0.13870551922E-01  0.14387583690E-01  0.51100000000E-03 0.  1.
</event>
<event>
 7    1  0.2877139E+004  0.1043930E+01  0.7957747E-01            NaN
         13   -1    0    0    0    0  0.00000000000E+00  0.00000000000E+00  0.74505805969E-08  0.10566000000E+00  0.10566000000E+00 0.  1.
     999900   -1    0    0    0    0 -0.00000000000E+00 -0.00000000000E+00 -0.74505805969E-08  0.93827000000E+00  0.93827000000E+00 0. -1.
     999903    2    1    2    0    0  0.79664172573E-01  0.78409800618E-01  0.46154301427E-01  0.12912829934E+00  0.45270530428E-01 0.  0.
         14    1    1    2    0    0 -0.10878884574E-01 -0.18534592798E-02 -0.26366533237E-01  0.28582853528E-01  0.00000000000E+00 0. -1.
     999901    1    1    2    0    0 -0.68785287999E-01 -0.76556341338E-01 -0.19787768191E-01  0.88621884713E+00  0.88000000000E+00 0. -1.
        -11    1    3    3    0    0  0.42231906930E-01  0.23388159959E-01  0.39252785845E-01  0.62222040362E-01  0.51100000000E-03 0.  1.
         11    1    3    3    0    0  0.37432265643E-01  0.55021640659E-01  0.69015155826E-02  0.66906258977E-01  0.51100000000E-03 0. -1.
</event>
<event>
 8    1  0.2877139E+004  0.1043930E+01  0.7957747E-01            NaN
         13   -1    0    0    0    0  0.00000000000E+00  0.00000000000E+00  0.74505805969E-08  0.10566000000E+00  0.10566000000E+00 0.  1.
     999900   -1    0    0    0    0 -0.00000000000E+00 -0.00000000000E+00 -0.74505805969E-08  0.93827000000E+00  0.93827000000E+00 0.  1.
     999902    2    1    2    0    0  0.25745256810E-02  0.10160912536E-01  0.93040178452E-02  0.10299143989E+01  0.10298190288E+01 0.  0.
     999903    2    3    3    0    0  0.35825118492E-01  0.62887183043E-02  0.12857864157E+00  0.14123727437E+00  0.45743999724E-01 0.  0.
         14    1    1    2    0    0 -0.25745256810E-02 -0.10160912536E-01 -0.93040178452E-02  0.14015601097E-01  0.00000000000E+00 0. -1.
     999901    1    3    3    0    0 -0.33250592811E-01  0.38721942316E-02 -0.11927462372E+00  0.88867712454E+00  0.88000000000E+00 0.  1.
        -11    1    4    4    0    0  0.13833980363E-01 -0.19686366685E-01  0.60856375937E-01  0.65442277307E-01  0.51100000000E-03 0.  1.
         11    1    4    4    0    0  0.21991138129E-01  0.25975084989E-01  0.67722265629E-01  0.75794997060E-01  0.51100000000E-03 0. -1.
</event>
<event>
 8    1  0.2877139E+004  0.1043930E+01  0.7957747E-01            NaN
         13   -1    0    0    0    0  0.00000000000E+00  0.00000000000E+00  0.74505805969E-08  0.10566000000E+00  0.10566000000E+00 0. -1.
     999900   -1    0    0    0    0 -0.00000000000E+00 -0.00000000000E+00 -0.74505805969E-08  0.93827000000E+00  0.93827000000E+00 0. -1.
     999902    2    1    2    0    0  0.13697204129E-01 -0.11240575658E-01  0.15950450503E-02  0.10261393252E+01  0.10259850908E+01 0.  0.
     999903    2    3    3    0    0 -0.41172457839E-01  0.40145627878E-01  0.11445491031E+00  0.13575257162E+00  0.44966559625E-01 0.  0.
         14    1    1    2    0    0 -0.13697204129E-01  0.11240575658E-01 -0.15950450503E-02  0.17790674827E-01  0.00000000000E+00 0. -1.
     999901    1    3    3    0    0  0.54869661968E-01 -0.51386203536E-01 -0.11285986526E+00  0.89038675355E+00  0.88000000000E+00 0. -1.
        -11    1    4    4    0    0 -0.15118628445E-01 -0.19373852324E-02  0.61095558798E-01  0.62970269282E-01  0.51100000000E-03 0. -1.
         11    1    4    4    0    0 -0.26053829394E-01  0.42083013111E-01  0.53359351513E-01  0.72782302337E-01  0.51100000000E-03 0.  1.
</event>
<event>
 8    1  0.2877139E+004  0.1043930E+01  0.7957747E-01            NaN
         13   -1    0    0    0    0  0.00000000000E+00  0.00000000000E+00  0.74505805969E-08  0.10566000000E+00  0.10566000000E+00 0.  1.
     999900   -1    0    0    0    0 -0.00000000000E+00 -0.00000000000E+00 -0.74505805969E-08  0.93827000000E+00  0.93827000000E+00 0. -1.
     999902    2    1    2    0    0  0.84456562328E-02  0.14978368042E-02 -0.10746446143E-01  0.10301801371E+01  0.10300883730E+01 0.  0.
     999903    2    3    3    0    0 -0.10795447951E+00  0.74225441514E-01  0.91605962192E-02  0.13931842708E+00  0.46498621366E-01 0.  0.
         14    1    1    2    0    0 -0.84456562328E-02 -0.14978368042E-02  0.10746446143E-01  0.13749862872E-01  0.00000000000E+00 0.  1.
     999901    1    3    3    0    0  0.11640013574E+00 -0.72727604710E-01 -0.19907042362E-01  0.89086171004E+00  0.88000000000E+00 0.  1.
        -11    1    4    4    0    0 -0.59836760822E-01  0.18802919329E-01 -0.98657160042E-02  0.63494733594E-01  0.51100000000E-03 0.  1.
         11    1    4    4    0    0 -0.48117718684E-01  0.55422522185E-01  0.19026312223E-01  0.75823693490E-01  0.51100000000E-03 0. -1.
</event>
<event>
 8    1  0.2877139E+004  0.1043930E+01  0.7957747E-01            NaN
         13   -1    0    0    0    0  0.00000000000E+00  0.00000000000E+00  0.74505805969E-08  0.10566000000E+00  0.10566000000E+00 0. -1.
     999900   -1    0    0    0    0 -0.00000000000E+00 -0.00000000000E+00 -0.74505805969E-08  0.93827000000E+00  0.93827000000E+00 0. -1.
     999902    2    1    2    0    0 -0.99584548208E-02  0.83098533728E-02 -0.80598282773E-02  0.10286595934E+01  0.10285462429E+01 0.  0.
     999903    2    3    3    0    0 -0.11927106709E+00 -0.42839606435E-01 -0.39386783497E-01  0.13987002745E+00  0.44175632873E-01 0.  0.
         14    1    1    2    0    0  0.99584548208E-02 -0.83098533728E-02  0.80598282773E-02  0.15270406588E-01  0.00000000000E+00 0. -1.
     999901    1    3    3    0    0  0.10931261227E+00  0.51149459808E-01  0.31326955220E-01  0.88878956596E+00  0.88000000000E+00 0.  1.
        -11    1    4    4    0    0 -0.78819447029E-01 -0.49543736370E-01 -0.24785183118E-01  0.96341338306E-01  0.51100000000E-03 0. -1.
         11    1    4    4    0    0 -0.40451620063E-01  0.67041299348E-02 -0.14601600380E-01  0.43528689144E-01  0.51100000000E-03 0.  1.
</event>
<event>
 8    1  0.2877139E+004  0.1043930E+01  0.7957747E-01            NaN
         13   -1    0    0    0    0  0.00000000000E+00  0.00000000000E+00  0.74505805969E-08  0.10566000000E+00  0.10566000000E+00 0. -1.
     999900   -1    0    0    0    0 -0.00000000000E+00 -0.00000000000E+00 -0.74505805969E-08  0.93827000000E+00  0.93827000000E+00 0. -1.
     999902    2    1    2    0    0 -0.11949574571E-01  0.22324214833E-02 -0.61984267572E-02  0.10302846150E+01  0.10301942493E+01 0.  0.
     999903    2    3    3    0    0 -0.12262331346E+00 -0.47300081387E-01 -0.28633897525E-01  0.14168712699E+00  0.44514797132E-01 0.  0.
         14    1    1    2    0    0  0.11949574571E-01 -0.22324214833E-02  0.61984267572E-02  0.13645385021E-01  0.00000000000E+00 0.  1.
     999901    1    3    3    0    0  0.11067373889E+00  0.49532502870E-01  0.22435470768E-01  0.88859748799E+00  0.88000000000E+00 0. -1.
        -11    1    4    4    0    0 -0.75292665894E-01 -0.51533629823E-01 -0.18779536989E-01  0.93153811896E-01  0.51100000000E-03 0.  1.
         11    1    4    4    0    0 -0.47330647562E-01  0.42335484362E-02 -0.98543605358E-02  0.48533315090E-01  0.51100000000E-03 0. -1.
</event>
<event>
 8    1  0.2877139E+004  0.1043930E+01  0.7957747E-01            NaN
         13   -1    0    0    0    0  0.00000000000E+00  0.00000000000E+00  0.74505805969E-08  0.10566000000E+00  0.10566000000E+00 0.  1.
     999900   -1    0    0    0    0 -0.00000000000E+00 -0.00000000000E+00 -0.74505805969E-08  0.93827000000E+00  0.93827000000E+00 0.  1.
     999902    2    1    2    0    0 -0.53005420422E-02  0.76546913676E-02 -0.10899473445E-01  0.10295951276E+01  0.10294953318E+01 0.  0.
     999903    2    3    3    0    0  0.80875594449E-01  0.69079517025E-01  0.77321727510E-01  0.13887501666E+00  0.44662951720E-01 0.  0.
         14    1    1    2    0    0  0.53005420422E-02 -0.76546913676E-02  0.10899473445E-01  0.14334872418E-01  0.00000000000E+00 0.  1.
     999901    1    3    3    0    0 -0.86176136492E-01 -0.61424825658E-01 -0.88221200955E-01  0.89072011092E+00  0.88000000000E+00 0.  1.
        -11    1    4    4    0    0  0.10685432810E-01 -0.31241328886E-02  0.20285129430E-01  0.23144897443E-01  0.51100000000E-03 0.  1.
         11    1    4    4    0    0  0.70190161639E-01  0.72203649914E-01  0.57036598080E-01  0.11573011921E+00  0.51100000000E-03 0. -1.
</event>
<event>
 8    1  0.2877139E+004  0.1043930E+01  0.7957747E-01            NaN
         13   -1    0    0    0    0  0.00000000000E+00  0.00000000000E+00  0.74505805969E-08  0.10566000000E+00  0.10566000000E+00 0.  1.
     999900   -1    0    0    0    0 -0.00000000000E+00 -0.00000000000E+00 -0.74505805969E-08  0.93827000000E+00  0.93827000000E+00 0. -1.
     999902    2    1    2    0    0  0.12383882175E-01 -0.12205730769E-02 -0.47550005466E-02  0.10306085749E+01  0.10305224764E+01 0.  0.
     999903    2    3    3    0    0 -0.34806834737E-01  0.12552026851E+00  0.23466127610E-01  0.13982990612E+00  0.45109754483E-01 0.  0.
         14    1    1    2    0    0 -0.12383882175E-01  0.12205730769E-02  0.47550005466E-02  0.13321425095E-01  0.00000000000E+00 0. -1.
     999901    1    3    3    0    0  0.47190716913E-01 -0.12674084159E+00 -0.28221128157E-01  0.89077866879E+00  0.88000000000E+00 0. -1.
        -11    1    4    4    0    0 -0.38324971910E-01  0.85963073482E-01  0.31609885375E-01  0.99286955079E-01  0.51100000000E-03 0.  1.
         11    1    4    4    0    0  0.35181371732E-02  0.39557195026E-01 -0.81437577654E-02  0.40542951040E-01  0.51100000000E-03 0. -1.
</event>
<event>
 8    1  0.2877139E+004  0.1043930E+01  0.7957747E-01            NaN
         13   -1    0    0    0    0  0.00000000000E+00  0.00000000000E+00  0.74505805969E-08  0.10566000000E+00  0.10566000000E+00 0.  1.
     999900   -1    0    0    0    0 -0.00000000000E+00 -0.00000000000E+00 -0.74505805969E-08  0.93827000000E+00  0.93827000000E+00 0. -1.
     999902    2    1    2    0    0 -0.13023160816E-01  0.21838288359E-02 -0.23221458578E-02  0.10305223832E+01  0.10304351596E+01 0.  0.
     999903    2    3    3    0    0  0.61214711905E-01  0.11721389092E+00  0.82181702436E-02  0.13987415009E+00  0.44843086022E-01 0.  0.
         14    1    1    2    0    0  0.13023160816E-01 -0.21838288359E-02  0.23221458578E-02  0.13407616769E-01  0.00000000000E+00 0.  1.
     999901    1    3    3    0    0 -0.74237872721E-01 -0.11503006208E+00 -0.10540316101E-01  0.89064823314E+00  0.88000000000E+00 0.  1.
        -11    1    4    4    0    0  0.16365618291E-01  0.52557138079E-01 -0.16370940306E-01  0.57431307077E-01  0.51100000000E-03 0.  1.
         11    1    4    4    0    0  0.44849093614E-01  0.64656752840E-01  0.24589110549E-01  0.82442843016E-01  0.51100000000E-03 0. -1.
</event>
<event>
 8    1  0.2877139E+004  0.1043930E+01  0.7957747E-01            NaN
         13   -1    0    0    0    0  0.00000000000E+00  0.00000000000E+00  0.74505805969E-08  0.10566000000E+00  0.10566000000E+00 0.  1.
     999900   -1    0    0    0    0 -0.00000000000E+00 -0.00000000000E+00 -0.74505805969E-08  0.93827000000E+00  0.93827000000E+00 0.  1.
     999902    2    1    2    0    0  0.13825214186E-01  0.94175095589E-03 -0.20865792656E-02  0.10299165331E+01  0.10298211922E+01 0.  0.
     999903    2    3    3    0    0  0.33047038139E-01  0.12666142704E+00 -0.23002422010E-01  0.14052776097E+00  0.45647742067E-01 0.  0.
         14    1    1    2    0    0 -0.13825214186E-01 -0.94175095589E-03  0.20865792656E-02  0.14013466923E-01  0.00000000000E+00 0. -1.
     999901    1    3    3    0    0 -0.19221823953E-01 -0.12571967608E+00  0.20915842744E-01  0.88938877211E+00  0.88000000000E+00 0. -1.
        -11    1    4    4    0    0  0.36879700625E-01  0.86527645863E-01  0.95555254241E-04  0.94060704168E-01  0.51100000000E-03 0.  1.
         11    1    4    4    0    0 -0.38326624864E-02  0.40133781177E-01 -0.23097977264E-01  0.46467056803E-01  0.51100000000E-03 0. -1.
</event>
<event>
 8    1  0.2877139E+004  0.1043930E+01  0.7957747E-01            NaN
         13   -1    0    0    0    0  0.00000000000E+00  0.00000000000E+00  0.74505805969E-08  0.10566000000E+00  0.10566000000E+00 0. -1.
     999900   -1    0    0    0    0 -0.00000000000E+00 -0.00000000000E+00 -0.74505805969E-08  0.93827000000E+00  0.93827000000E+00 0.  1.
     999902    2    1    2    0    0 -0.86063526255E-02  0.63553041753E-02 -0.97916245237E-03  0.10331867251E+01  0.10331308683E+01 0.  0.
     999903    2    3    3    0    0  0.55768748239E-01 -0.70903701492E-01 -0.10002568728E+00  0.14193854324E+00  0.44765207197E-01 0.  0.
         14    1    1    2    0    0  0.86063526255E-02 -0.63553041753E-02  0.97916245237E-03  0.10743274910E-01  0.00000000000E+00 0.  1.
     999901    1    3    3    0    0 -0.64375100865E-01  0.77259005667E-01  0.99046524832E-01  0.89124818185E+00  0.88000000000E+00 0.  1.
        -11    1    4    4    0    0  0.22542109714E-01 -0.93652823951E-02 -0.50957568712E-01  0.56504779928E-01  0.51100000000E-03 0.  1.
         11    1    4    4    0    0  0.33226638525E-01 -0.61538419097E-01 -0.49068118572E-01  0.85433763313E-01  0.51100000000E-03 0. -1.
</event>
<event>
 8    1  0.2877139E+004  0.1043930E+01  0.7957747E-01            NaN
         13   -1    0    0    0    0  0.00000000000E+00  0.00000000000E+00  0.74505805969E-08  0.10566000000E+00  0.10566000000E+00 0.  1.
     999900   -1    0    0    0    0 -0.00000000000E+00 -0.00000000000E+00 -0.74505805969E-08  0.93827000000E+00  0.93827000000E+00 0. -1.
     999902    2    1    2    0    0 -0.16782894277E-02 -0.18266410126E-01  0.56478125573E-02  0.10247368715E+01  0.10245571139E+01 0.  0.
     999903    2    3    3    0    0 -0.75091474330E-01  0.94803583519E-01 -0.34611418064E-01  0.13356061239E+00  0.44878034231E-01 0.  0.
         14    1    1    2    0    0  0.16782894277E-02  0.18266410126E-01 -0.56478125573E-02  0.19193128483E-01  0.00000000000E+00 0.  1.
     999901    1    3    3    0    0  0.73413184903E-01 -0.11306999365E+00  0.40259230621E-01  0.89117625913E+00  0.88000000000E+00 0.  1.
        -11    1    4    4    0    0 -0.46503895826E-01  0.23379369904E-01 -0.14819005120E-01  0.54120895206E-01  0.51100000000E-03 0.  1.
         11    1    4    4    0    0 -0.28587578505E-01  0.71424213615E-01 -0.19792412943E-01  0.79439717184E-01  0.51100000000E-03 0. -1.
</event>
<event>
 8    1  0.2877139E+004  0.1043930E+01  0.7957747E-01            NaN
         13   -1    0    0    0    0  0.00000000000E+00  0.00000000000E+00  0.74505805969E-08  0.10566000000E+00  0.10566000000E+00 0.  1.
     999900   -1    0    0    0    0 -0.00000000000E+00 -0.00000000000E+00 -0.74505805969E-08  0.93827000000E+00  0.93827000000E+00 0.  1.
     999902    2    1    2    0    0  0.22048225043E-02 -0.63927115034E-02 -0.12683379120E-01  0.10295565485E+01  0.10294562110E+01 0.  0.
     999903    2    3    3    0    0  0.24578262455E-01 -0.12672470522E+00  0.32429160465E-01  0.13994118173E+00  0.43227791954E-01 0.  0.
         14    1    1    2    0    0 -0.22048225043E-02  0.63927115034E-02  0.12683379120E-01  0.14373451518E-01  0.00000000000E+00 0.  1.
     999901    1    3    3    0    0 -0.22373439951E-01  0.12033199372E+00 -0.45112539584E-01  0.88961536675E+00  0.88000000000E+00 0.  1.
        -11    1    4    4    0    0  0.11297379848E-01 -0.39454207754E-01 -0.96290138082E-02  0.42157375735E-01  0.51100000000E-03 0.  1.
         11    1    4    4    0    0  0.13280882607E-01 -0.87270497469E-01  0.42058174273E-01  0.97783805998E-01  0.51100000000E-03 0. -1.
</event>
<event>
 8    1  0.2877139E+004  0.1043930E+01  0.7957747E-01            NaN
         13   -1    0    0    0    0  0.00000000000E+00  0.00000000000E+00  0.74505805969E-08  0.10566000000E+00  0.10566000000E+00 0.  1.
     999900   -1    0    0    0    0 -0.00000000000E+00 -0.00000000000E+00 -0.74505805969E-08  0.93827000000E+00  0.93827000000E+00 0.  1.
     999902    2    1    2    0    0  0.74256693775E-02  0.13138308172E-01 -0.87359485840E-04  0.10288381698E+01  0.10287274743E+01 0.  0.
     999903    2    3    3    0    0 -0.17481916934E-01  0.13978985181E-01 -0.12964678280E+00  0.13900293855E+00  0.44860887072E-01 0.  0.
         14    1    1    2    0    0 -0.74256693775E-02 -0.13138308172E-01  0.87359485840E-04  0.15091830208E-01  0.00000000000E+00 0. -1.
     999901    1    3    3    0    0  0.24907586311E-01 -0.84067700813E-03  0.12955942331E+00  0.88983523124E+00  0.88000000000E+00 0. -1.
        -11    1    4    4    0    0 -0.19700581905E-01 -0.12182405388E-01 -0.49280020708E-01  0.54454618632E-01  0.51100000000E-03 0.  1.
         11    1    4    4    0    0  0.22186649712E-02  0.26161390569E-01 -0.80366762090E-01  0.84548319916E-01  0.51100000000E-03 0. -1.
</event>
<event>
 8    1  0.2877139E+004  0.1043930E+01  0.7957747E-01            NaN
         13   -1    0    0    0    0  0.00000000000E+00  0.00000000000E+00  0.74505805969E-08  0.10566000000E+00  0.10566000000E+00 0. -1.
     999900   -1    0    0    0    0 -0.00000000000E+00 -0.00000000000E+00 -0.74505805969E-08  0.93827000000E+00  0.93827000000E+00 0. -1.
     999902    2    1    2    0    0 -0.32445189625E-02 -0.90083319791E-02 -0.89848994338E-02  0.10307996776E+01  0.10307160472E+01 0.  0.
     999903    2    3    3    0    0  0.64405549923E-01  0.11521285484E+00 -0.41870464872E-02  0.13949139510E+00  0.44924839084E-01 0.  0.
         14    1    1    2    0    0  0.32445189625E-02  0.90083319791E-02  0.89848994338E-02  0.13130322394E-01  0.00000000000E+00 0. -1.
     999901    1    3    3    0    0 -0.67650068885E-01 -0.12422118682E+00 -0.47978529466E-02  0.89130828251E+00  0.88000000000E+00 0. -1.
        -11    1    4    4    0    0  0.52814970234E-01  0.87843990366E-01 -0.22002978491E-01  0.10483501280E+00  0.51100000000E-03 0.  1.
         11    1    4    4    0    0  0.11590579689E-01  0.27368864474E-01  0.17815932004E-01  0.34656382302E-01  0.51100000000E-03 0. -1.
</event>
<event>
 8    1  0.2877139E+004  0.1043930E+01  0.7957747E-01            NaN
         13   -1    0    0    0    0  0.00000000000E+00  0.00000000000E+00  0.74505805969E-08  0.10566000000E+00  0.10566000000E+00 0. -1.
     999900   -1    0    0    0    0 -0.00000000000E+00 -0.00000000000E+00 -0.74505805969E-08  0.93827000000E+00  0.93827000000E+00 0.  1.
     999902    2    1    2    0    0 -0.17038675986E-01  0.12732016690E-02  0.22819440054E-02  0.10266921118E+01  0.10265473918E+01 0.  0.
     999903    2    3    3    0    0  0.55010038840E-01  0.79986227401E-01 -0.83486672535E-01  0.13610634201E+00  0.46162873591E-01 0.  0.
         14    1    1    2    0    0  0.17038675986E-01 -0.12732016690E-02 -0.22819440054E-02  0.17237888220E-01  0.00000000000E+00 0. -1.
     999901    1    3    3    0    0 -0.72048714826E-01 -0.78713025732E-01  0.85768616540E-01  0.89058576977E+00  0.88000000000E+00 0. -1.
        -11    1    4    4    0    0  0.63071570677E-01  0.66974582613E-01 -0.68719056686E-01  0.11483112652E+00  0.51100000000E-03 0.  1.
         11    1    4    4    0    0 -0.80615318366E-02  0.13011644788E-01 -0.14767615848E-01  0.21275215498E-01  0.51100000000E-03 0. -1.
</event>
<event>
 8    1  0.2877139E+004  0.1043930E+01  0.7957747E-01            NaN
         13   -1    0    0    0    0  0.00000000000E+00  0.00000000000E+00  0.74505805969E-08  0.10566000000E+00  0.10566000000E+00 0.  1.
     999900   -1    0    0    0    0 -0.00000000000E+00 -0.00000000000E+00 -0.74505805969E-08  0.93827000000E+00  0.93827000000E+00 0.  1.
     999902    2    1    2    0    0  0.13177652401E-01  0.11208379217E-02  0.47440307308E-02  0.10298796396E+01  0.10297837925E+01 0.  0.
     999903    2    3    3    0    0  0.11660995320E-02 -0.12127235774E+00  0.53901715905E-01  0.13996905432E+00  0.44470177081E-01 0.  0.
         14    1    1    2    0    0 -0.13177652401E-01 -0.11208379217E-02 -0.47440307308E-02  0.14050360423E-01  0.00000000000E+00 0. -1.
     999901    1    3    3    0    0  0.12011552869E-01  0.12239319566E+00 -0.49157685174E-01  0.88991058526E+00  0.88000000000E+00 0.  1.
        -11    1    4    4    0    0 -0.63111614475E-02 -0.47008162601E-02  0.14828660656E-01  0.16795199617E-01  0.51100000000E-03 0.  1.
         11    1    4    4    0    0  0.74772609796E-02 -0.11657154148E+00  0.39073055249E-01  0.12317385470E+00  0.51100000000E-03 0. -1.
</event>
<event>
 8    1  0.2877139E+004  0.1043930E+01  0.7957747E-01            NaN
         13   -1    0    0    0    0  0.00000000000E+00  0.00000000000E+00  0.74505805969E-08  0.10566000000E+00  0.10566000000E+00 0. -1.
     999900   -1    0    0    0    0 -0.00000000000E+00 -0.00000000000E+00 -0.74505805969E-08  0.93827000000E+00  0.93827000000E+00 0.  1.
     999902    2    1    2    0    0  0.69478443984E-02  0.59869658067E-02  0.10430906416E-01  0.10300404316E+01  0.10299467805E+01 0.  0.
     999903    2    3    3    0    0  0.86280659576E-02  0.10025952930E+00  0.88859299342E-01  0.14153542195E+00  0.44831728174E-01 0.  0.
         14    1    1    2    0    0 -0.69478443984E-02 -0.59869658067E-02 -0.10430906416E-01  0.13889568388E-01  0.00000000000E+00 0.  1.
     999901    1    3    3    0    0 -0.16802215592E-02 -0.94272563490E-01 -0.78428392926E-01  0.88850500966E+00  0.88000000000E+00 0.  1.
        -11    1    4    4    0    0 -0.12039471906E-01  0.14337868505E-01  0.29959864621E-01  0.35332392590E-01  0.51100000000E-03 0.  1.
         11    1    4    4    0    0  0.20667537863E-01  0.85921660792E-01  0.58899434721E-01  0.10620302936E+00  0.51100000000E-03 0. -1.
</event>
<event>
 8    1  0.2877139E+004  0.1043930E+01  0.7957747E-01            NaN
         13   -1    0    0    0    0  0.00000000000E+00  0.00000000000E+00  0.74505805969E-08  0.10566000000E+00  0.10566000000E+00 0. -1.
     999900   -1    0    0    0    0 -0.00000000000E+00 -0.00000000000E+00 -0.74505805969E-08  0.93827000000E+00  0.93827000000E+00 0.  1.
     999902    2    1    2    0    0 -0.13868945074E-02 -0.10788615410E-01 -0.85126170960E-02  0.10301176016E+01  0.10300249953E+01 0.  0.
     999903    2    3    3    0    0  0.10837114101E+00 -0.42974899587E-01  0.63288484034E-01  0.13981530389E+00  0.44178510512E-01 0.  0.
         14    1    1    2    0    0  0.13868945074E-02  0.10788615410E-01  0.85126170960E-02  0.13812398368E-01  0.00000000000E+00 0. -1.
     999901    1    3    3    0    0 -0.10975803552E+00  0.32186284177E-01 -0.71801101130E-01  0.89030229775E+00  0.88000000000E+00 0. -1.
        -11    1    4    4    0    0  0.36677560950E-01  0.50529035402E-02  0.98557162218E-02  0.38316727088E-01  0.51100000000E-03 0.  1.
         11    1    4    4    0    0  0.71693580059E-01 -0.48027803128E-01  0.53432767812E-01  0.10149857680E+00  0.51100000000E-03 0. -1.
</event>
<event>
 8    1  0.2877139E+004  0.1043930E+01  0.7957747E-01            NaN
         13   -1    0    0    0    0  0.00000000000E+00  0.00000000000E+00  0.74505805969E-08  0.10566000000E+00  0.10566000000E+00 0. -1.
     999900   -1    0    0    0    0 -0.00000000000E+00 -0.00000000000E+00 -0.74505805969E-08  0.93827000000E+00  0.93827000000E+00 0.  1.
     999902    2    1    2    0    0  0.55963462411E-02  0.52379290032E-02  0.13101985571E-01  0.10287505067E+01  0.10286385118E+01 0.  0.
     999903    2    3    3    0    0  0.73852702768E-01 -0.15428676435E-01 -0.10632695459E+00  0.13782440956E+00  0.44697660285E-01 0.  0.
         14    1    1    2    0    0 -0.55963462411E-02 -0.52379290032E-02 -0.13101985571E-01  0.15179493318E-01  0.00000000000E+00 0.  1.
     999901    1    3    3    0    0 -0.68256356527E-01  0.20666605438E-01  0.11942894016E+00  0.89092609712E+00  0.88000000000E+00 0. -1.
        -11    1    4    4    0    0  0.75152543855E-01 -0.14112709783E-01 -0.77292335211E-01  0.10872644402E+00  0.51100000000E-03 0.  1.
         11    1    4    4    0    0 -0.12998410871E-02 -0.13159666517E-02 -0.29034619381E-01  0.29097965542E-01  0.51100000000E-03 0. -1.
</event>
<event>
 8    1  0.2877139E+004  0.1043930E+01  0.7957747E-01            NaN
         13   -1    0    0    0    0  0.00000000000E+00  0.00000000000E+00  0.74505805969E-08  0.10566000000E+00  0.10566000000E+00 0. -1.
     999900   -1    0    0    0    0 -0.00000000000E+00 -0.00000000000E+00 -0.74505805969E-08  0.93827000000E+00  0.93827000000E+00 0.  1.
     999902    2    1    2    0    0 -0.27628185042E-02 -0.10075916135E-01  0.11820645403E-01  0.10281539134E+01  0.10280328714E+01 0.  0.
     999903    2    3    3    0    0  0.55635159832E-01  0.11569091941E+00 -0.13191400323E-01  0.13694505836E+00  0.45828769599E-01 0.  0.
         14    1    1    2    0    0  0.27628185042E-02  0.10075916135E-01 -0.11820645403E-01  0.15776086644E-01  0.00000000000E+00 0.  1.
     999901    1    3    3    0    0 -0.58397978336E-01 -0.12576683554E+00  0.25012045726E-01  0.89120885500E+00  0.88000000000E+00 0. -1.
        -11    1    4    4    0    0  0.42125621212E-01  0.41789861579E-01 -0.16981981364E-01  0.61722032576E-01  0.51100000000E-03 0. -1.
         11    1    4    4    0    0  0.13509538620E-01  0.73901057830E-01  0.37905810415E-02  0.75223025782E-01  0.51100000000E-03 0.  1.
</event>
<event>
 8    1  0.2877139E+004  0.1043930E+01  0.7957747E-01            NaN
         13   -1    0    0    0    0  0.00000000000E+00  0.00000000000E+00  0.74505805969E-08  0.10566000000E+00  0.10566000000E+00 0.  1.
     999900   -1    0    0    0    0 -0.00000000000E+00 -0.00000000000E+00 -0.74505805969E-08  0.93827000000E+00  0.93827000000E+00 0.  1.
     999902    2    1    2    0    0 -0.10921858766E-01 -0.62970765134E-02 -0.53909467321E-02  0.10302186004E+01  0.10301273524E+01 0.  0.
     999903    2    3    3    0    0 -0.40945039395E-02  0.12991392510E+00 -0.23211697668E-01  0.13953480194E+00  0.45130756081E-01 0.  0.
         14    1    1    2    0    0  0.10921858766E-01  0.62970765134E-02  0.53909467321E-02  0.13711399571E-01  0.00000000000E+00 0. -1.
     999901    1    3    3    0    0 -0.68273548263E-02 -0.13621100162E+00  0.17820750936E-01  0.89068379849E+00  0.88000000000E+00 0.  1.
        -11    1    4    4    0    0  0.19738912541E-01  0.52225553591E-01 -0.36672579322E-02  0.55953936572E-01  0.51100000000E-03 0. -1.
         11    1    4    4    0    0 -0.23833416481E-01  0.77688371512E-01 -0.19544439735E-01  0.83580865364E-01  0.51100000000E-03 0.  1.
</event>
<event>
 8    1  0.2877139E+004  0.1043930E+01  0.7957747E-01            NaN
         13   -1    0    0    0    0  0.00000000000E+00  0.00000000000E+00  0.74505805969E-08  0.10566000000E+00  0.10566000000E+00 0. -1.
     999900   -1    0    0    0    0 -0.00000000000E+00 -0.00000000000E+00 -0.74505805969E-08  0.93827000000E+00  0.93827000000E+00 0.  1.
     999902    2    1    2    0    0  0.72897671744E-02 -0.48959187238E-02  0.11501942769E-01  0.10294591530E+01  0.10293574415E+01 0.  0.
     999903    2    3    3    0    0 -0.11173959112E+00 -0.58511016728E-01  0.39805692807E-01  0.13937844366E+00  0.43961142776E-01 0.  0.
         14    1    1    2    0    0 -0.72897671744E-02  0.48959187238E-02 -0.11501942769E-01  0.14470847006E-01  0.00000000000E+00 0.  1.
     999901    1    3    3    0    0  0.11902935829E+00  0.53615098004E-01 -0.28303750037E-01  0.89008070934E+00  0.88000000000E+00 0. -1.
        -11    1    4    4    0    0 -0.29244305137E-01 -0.18410415761E-01 -0.86682829502E-02  0.35631068490E-01  0.51100000000E-03 0.  1.
         11    1    4    4    0    0 -0.82495285982E-01 -0.40100600968E-01  0.48473975757E-01  0.10374737517E+00  0.51100000000E-03 0. -1.
</event>
<event>
 8    1  0.2877139E+004  0.1043930E+01  0.7957747E-01            NaN
         13   -1    0    0    0    0  0.00000000000E+00  0.00000000000E+00  0.74505805969E-08  0.10566000000E+00  0.10566000000E+00 0. -1.
     999900   -1    0    0    0    0 -0.00000000000E+00 -0.00000000000E+00 -0.74505805969E-08  0.93827000000E+00  0.93827000000E+00 0. -1.
     999902    2    1    2    0    0 -0.70894656047E-02  0.25713712431E-02  0.11805769640E-01  0.10299211218E+01  0.10298258437E+01 0.  0.
     999903    2    3    3    0    0  0.78546610594E-02 -0.12877085574E+00 -0.27143784253E-01  0.13919603777E+00  0.44666798850E-01 0.  0.
         14    1    1    2    0    0  0.70894656047E-02 -0.25713712431E-02 -0.11805769640E-01  0.14008878236E-01  0.00000000000E+00 0.  1.
     999901    1    3    3    0    0 -0.14944126664E-01  0.13134222698E+00  0.38949553893E-01  0.89072508400E+00  0.88000000000E+00 0.  1.
        -11    1    4    4    0    0  0.24348960905E-01 -0.46018033831E-01 -0.80997254749E-02  0.52691536404E-01  0.51100000000E-03 0.  1.
         11    1    4    4    0    0 -0.16494299845E-01 -0.82752821906E-01 -0.19044058778E-01  0.86504501365E-01  0.51100000000E-03 0. -1.
</event>
<event>
 8    1  0.2877139E+004  0.1043930E+01  0.7957747E-01            NaN
         13   -1    0    0    0    0  0.00000000000E+00  0.00000000000E+00  0.74505805969E-08  0.10566000000E+00  0.10566000000E+00 0. -1.
     999900   -1    0    0    0    0 -0.00000000000E+00 -0.00000000000E+00 -0.74505805969E-08  0.93827000000E+00  0.93827000000E+00 0. -1.
     999902    2    1    2    0    0  0.12499137936E-01 -0.62185165449E-02 -0.86727188868E-02  0.10274948410E+01  0.10273633894E+01 0.  0.
     999903    2    3    3    0    0 -0.96658735551E-01  0.22075394476E-01 -0.83483898344E-01  0.13715069448E+00  0.44838794736E-01 0.  0.
         14    1    1    2    0    0 -0.12499137936E-01  0.62185165449E-02  0.86727188868E-02  0.16435158961E-01  0.00000000000E+00 0. -1.
     999901    1    3    3    0    0  0.10915787349E+00 -0.28293911021E-01  0.74811179457E-01  0.89034414656E+00  0.88000000000E+00 0.  1.
        -11    1    4    4    0    0 -0.11075190719E-01 -0.11431765939E-01 -0.19428227491E-01  0.25120952737E-01  0.51100000000E-03 0. -1.
         11    1    4    4    0    0 -0.85583544831E-01  0.33507160415E-01 -0.64055670853E-01  0.11202974174E+00  0.51100000000E-03 0.  1.
</event>
<event>
 8    1  0.2877139E+004  0.1043930E+01  0.7957747E-01            NaN
         13   -1    0    0    0    0  0.00000000000E+00  0.00000000000E+00  0.74505805969E-08  0.10566000000E+00  0.10566000000E+00 0.  1.
     999900   -1    0    0    0    0 -0.00000000000E+00 -0.00000000000E+00 -0.74505805969E-08  0.93827000000E+00  0.93827000000E+00 0. -1.
     999902    2    1    2    0    0  0.21051117676E-05 -0.89385759075E-02  0.11830264200E-01  0.10291025493E+01  0.10289957258E+01 0.  0.
     999903    2    3    3    0    0  0.11855261779E+00 -0.24705789043E-01 -0.51137754461E-01  0.13878361742E+00  0.44505318041E-01 0.  0.
         14    1    1    2    0    0 -0.21051117676E-05  0.89385759075E-02 -0.11830264200E-01  0.14827450716E-01  0.00000000000E+00 0. -1.
     999901    1    3    3    0    0 -0.11855051268E+00  0.15767213136E-01  0.62968018661E-01  0.89031893187E+00  0.88000000000E+00 0. -1.
        -11    1    4    4    0    0  0.92537924283E-01 -0.37659610417E-01 -0.38090042215E-01  0.10692345919E+00  0.51100000000E-03 0. -1.
         11    1    4    4    0    0  0.26014693511E-01  0.12953821374E-01 -0.13047712246E-01  0.31860158231E-01  0.51100000000E-03 0.  1.
</event>
<event>
 8    1  0.2877139E+004  0.1043930E+01  0.7957747E-01            NaN
         13   -1    0    0    0    0  0.00000000000E+00  0.00000000000E+00  0.74505805969E-08  0.10566000000E+00  0.10566000000E+00 0.  1.
     999900   -1    0    0    0    0 -0.00000000000E+00 -0.00000000000E+00 -0.74505805969E-08  0.93827000000E+00  0.93827000000E+00 0. -1.
     999902    2    1    2    0    0  0.12266551706E-02  0.17937311178E-01  0.11943801909E-02  0.10259111665E+01  0.10257529153E+01 0.  0.
     999903    2    3    3    0    0 -0.85344740041E-01  0.76689471342E-01  0.61544579621E-01  0.13766088122E+00  0.44696568898E-01 0.  0.
         14    1    1    2    0    0 -0.12266551706E-02 -0.17937311178E-01 -0.11943801909E-02  0.18018833460E-01  0.00000000000E+00 0. -1.
     999901    1    3    3    0    0  0.86571395212E-01 -0.58752160164E-01 -0.60350199430E-01  0.88825028532E+00  0.88000000000E+00 0. -1.
        -11    1    4    4    0    0 -0.65522360935E-01  0.29477046450E-01  0.38379351900E-01  0.81457423377E-01  0.51100000000E-03 0.  1.
         11    1    4    4    0    0 -0.19822379106E-01  0.47212424892E-01  0.23165227721E-01  0.56203457847E-01  0.51100000000E-03 0. -1.
</event>
<event>
 8    1  0.2877139E+004  0.1043930E+01  0.7957747E-01            NaN
         13   -1    0    0    0    0  0.00000000000E+00  0.00000000000E+00  0.74505805969E-08  0.10566000000E+00  0.10566000000E+00 0.  1.
     999900   -1    0    0    0    0 -0.00000000000E+00 -0.00000000000E+00 -0.74505805969E-08  0.93827000000E+00  0.93827000000E+00 0. -1.
     999902    2    1    2    0    0 -0.11562665756E-01 -0.33606455741E-02 -0.75759854942E-02  0.10297038011E+01  0.10296055232E+01 0.  0.
     999903    2    3    3    0    0  0.70194308892E-01 -0.84934904372E-01 -0.73599087186E-01  0.13970514239E+00  0.44266490647E-01 0.  0.
         14    1    1    2    0    0  0.11562665756E-01  0.33606455741E-02  0.75759854942E-02  0.14226198869E-01  0.00000000000E+00 0.  1.
     999901    1    3    3    0    0 -0.81756974648E-01  0.81574258798E-01  0.66023101692E-01  0.88999865874E+00  0.88000000000E+00 0.  1.
        -11    1    4    4    0    0  0.18083623781E-01 -0.25320111027E-01  0.69477159357E-03  0.31126665418E-01  0.51100000000E-03 0.  1.
         11    1    4    4    0    0  0.52110685111E-01 -0.59614793346E-01 -0.74293858780E-01  0.10857847697E+00  0.51100000000E-03 0. -1.
</event>
<event>
 8    1  0.2877139E+004  0.1043930E+01  0.7957747E-01            NaN
         13   -1    0    0    0    0  0.00000000000E+00  0.00000000000E+00  0.74505805969E-08  0.10566000000E+00  0.10566000000E+00 0. -1.
     999900   -1    0    0    0    0 -0.00000000000E+00 -0.00000000000E+00 -0.74505805969E-08  0.93827000000E+00  0.93827000000E+00 0. -1.
     999902    2    1    2    0    0  0.12972278466E-01  0.53878346451E-02 -0.46779429298E-02  0.10291248684E+01  0.10290183686E+01 0.  0.
     999903    2    3    3    0    0  0.16554497215E-01 -0.11394461885E+00 -0.63374329491E-01  0.13912580520E+00  0.45631748716E-01 0.  0.
         14    1    1    2    0    0 -0.12972278466E-01 -0.53878346451E-02  0.46779429298E-02  0.14805131570E-01  0.00000000000E+00 0.  1.
     999901    1    3    3    0    0 -0.35822187491E-02  0.11933245350E+00  0.58696386561E-01  0.88999906323E+00  0.88000000000E+00 0. -1.
        -11    1    4    4    0    0  0.32179174103E-01 -0.82525553073E-01 -0.48742897187E-01  0.10110438815E+00  0.51100000000E-03 0. -1.
         11    1    4    4    0    0 -0.15624676888E-01 -0.31419065782E-01 -0.14631432303E-01  0.38021417053E-01  0.51100000000E-03 0.  1.
</event>
<event>
 8    1  0.2877139E+004  0.1043930E+01  0.7957747E-01            NaN
         13   -1    0    0    0    0  0.00000000000E+00  0.00000000000E+00  0.74505805969E-08  0.10566000000E+00  0.10566000000E+00 0. -1.
     999900   -1    0    0    0    0 -0.00000000000E+00 -0.00000000000E+00 -0.74505805969E-08  0.93827000000E+00  0.93827000000E+00 0.  1.
     999902    2    1    2    0    0 -0.59624121878E-02 -0.92703642360E-02  0.84510337493E-02  0.10300407961E+01  0.10299471500E+01 0.  0.
     999903    2    3    3    0    0 -0.15338313873E-01 -0.13173342520E+00 -0.12305012919E-01  0.14126865307E+00  0.47079292803E-01 0.  0.
         14    1    1    2    0    0  0.59624121878E-02  0.92703642360E-02 -0.84510337493E-02  0.13889203850E-01  0.00000000000E+00 0.  1.
     999901    1    3    3    0    0  0.93759016853E-02  0.12246306097E+00  0.20756046668E-01  0.88877214308E+00  0.88000000000E+00 0.  1.
        -11    1    4    4    0    0 -0.17531735536E-02 -0.23540409226E-01  0.16109891433E-01  0.28583460376E-01  0.51100000000E-03 0. -1.
         11    1    4    4    0    0 -0.13585140320E-01 -0.10819301597E+00 -0.28414904352E-01  0.11268519270E+00  0.51100000000E-03 0.  1.
</event>
<event>
 8    1  0.2877139E+004  0.1043930E+01  0.7957747E-01            NaN
         13   -1    0    0    0    0  0.00000000000E+00  0.00000000000E+00  0.74505805969E-08  0.10566000000E+00  0.10566000000E+00 0. -1.
     999900   -1    0    0    0    0 -0.00000000000E+00 -0.00000000000E+00 -0.74505805969E-08  0.93827000000E+00  0.93827000000E+00 0. -1.
     999902    2    1    2    0    0 -0.54932586057E-02 -0.61961662463E-02 -0.10706132152E-01  0.10303952436E+01  0.10303063468E+01 0.  0.
     999903    2    3    3    0    0  0.64197625558E-01 -0.79019900075E-01 -0.79956707896E-01  0.14193829031E+00  0.58205870683E-01 0.  0.
         14    1    1    2    0    0  0.54932586057E-02  0.61961662463E-02  0.10706132152E-01  0.13534756441E-01  0.00000000000E+00 0. -1.
     999901    1    3    3    0    0 -0.69690884164E-01  0.72823733829E-01  0.69250575744E-01  0.88845695325E+00  0.88000000000E+00 0.  1.
        -11    1    4    4    0    0  0.61648033740E-01 -0.34254637668E-01 -0.61028390229E-01  0.93266209319E-01  0.51100000000E-03 0.  1.
         11    1    4    4    0    0  0.25495918180E-02 -0.44765262407E-01 -0.18928317667E-01  0.48672080986E-01  0.51100000000E-03 0. -1.
</event>
<event>
 8    1  0.2877139E+004  0.1043930E+01  0.7957747E-01            NaN
         13   -1    0    0    0    0  0.00000000000E+00  0.00000000000E+00  0.74505805969E-08  0.10566000000E+00  0.10566000000E+00 0.  1.
     999900   -1    0    0    0    0 -0.00000000000E+00 -0.00000000000E+00 -0.74505805969E-08  0.93827000000E+00  0.93827000000E+00 0.  1.
     999902    2    1    2    0    0 -0.85189054402E-02  0.49278144752E-02  0.68969709207E-02  0.10319123749E+01  0.10318423940E+01 0.  0.
     999903    2    3    3    0    0  0.23174523266E-01  0.37821502353E-01 -0.12566761915E+00  0.14081202214E+00  0.45476922818E-01 0.  0.
         14    1    1    2    0    0  0.85189054402E-02 -0.49278144752E-02 -0.68969709207E-02  0.12017625110E-01  0.00000000000E+00 0. -1.
     999901    1    3    3    0    0 -0.31693428706E-01 -0.32893687878E-01  0.13256459007E+00  0.89110035275E+00  0.88000000000E+00 0. -1.
        -11    1    4    4    0    0  0.24223641143E-01  0.47421680984E-01 -0.98487919681E-01  0.11196308348E+00  0.51100000000E-03 0. -1.
         11    1    4    4    0    0 -0.10491178773E-02 -0.96001786309E-02 -0.27179699467E-01  0.28848938666E-01  0.51100000000E-03 0.  1.
</event>
<event>
 8    1  0.2877139E+004  0.1043930E+01  0.7957747E-01            NaN
         13   -1    0    0    0    0  0.00000000000E+00  0.00000000000E+00  0.74505805969E-08  0.10566000000E+00  0.10566000000E+00 0.  1.
     999900   -1    0    0    0    0 -0.00000000000E+00 -0.00000000000E+00 -0.74505805969E-08  0.93827000000E+00  0.93827000000E+00 0. -1.
     999902    2    1    2    0    0  0.85093250922E-02 -0.10014396535E-01 -0.42924613120E-02  0.10301053128E+01  0.10300125405E+01 0.  0.
     999903    2    3    3    0    0  0.10769677461E+00  0.52261255128E-01  0.57197847954E-01  0.14021910377E+00  0.45386883594E-01 0.  0.
         14    1    1    2    0    0 -0.85093250922E-02  0.10014396535E-01  0.42924613120E-02  0.13824687179E-01  0.00000000000E+00 0.  1.
     999901    1    3    3    0    0 -0.99187449514E-01 -0.62275651663E-01 -0.61490309266E-01  0.88988620905E+00  0.88000000000E+00 0.  1.
        -11    1    4    4    0    0  0.11201491528E+00  0.48107017461E-01  0.53294127318E-01  0.13304943255E+00  0.51100000000E-03 0.  1.
         11    1    4    4    0    0 -0.43181406777E-02  0.41542376675E-02  0.39037206357E-02  0.71696712137E-02  0.51100000000E-03 0. -1.
</event>
<event>
 8    1  0.2877139E+004  0.1043930E+01  0.7957747E-01            NaN
         13   -1    0    0    0    0  0.00000000000E+00  0.00000000000E+00  0.74505805969E-08  0.10566000000E+00  0.10566000000E+00 0.  1.
     999900   -1    0    0    0    0 -0.00000000000E+00 -0.00000000000E+00 -0.74505805969E-08  0.93827000000E+00  0.93827000000E+00 0.  1.
     999902    2    1    2    0    0 -0.18528218703E-01  0.32129961636E-02  0.77651509403E-02  0.10235850792E+01  0.10233828700E+01 0.  0.
     999903    2    3    3    0    0 -0.71877929545E-01  0.61248497394E-01 -0.85745258723E-01  0.13512657835E+00  0.44599636693E-01 0.  0.
         14    1    1    2    0    0  0.18528218703E-01 -0.32129961636E-02 -0.77651509403E-02  0.20344920786E-01  0.00000000000E+00 0. -1.
     999901    1    3    3    0    0  0.53349710842E-01 -0.58035501231E-01  0.93510409663E-01  0.88845850087E+00  0.88000000000E+00 0.  1.
        -11    1    4    4    0    0 -0.12569678828E-01  0.14645716521E-01 -0.45954677620E-01  0.49845635259E-01  0.51100000000E-03 0.  1.
         11    1    4    4    0    0 -0.59308250717E-01  0.46602780873E-01 -0.39790581103E-01  0.85280943086E-01  0.51100000000E-03 0. -1.
</event>
<event>
 8    1  0.2877139E+004  0.1043930E+01  0.7957747E-01            NaN
         13   -1    0    0    0    0  0.00000000000E+00  0.00000000000E+00  0.74505805969E-08  0.10566000000E+00  0.10566000000E+00 0. -1.
     999900   -1    0    0    0    0 -0.00000000000E+00 -0.00000000000E+00 -0.74505805969E-08  0.93827000000E+00  0.93827000000E+00 0. -1.
     999902    2    1    2    0    0 -0.10792320602E-02 -0.10775556529E-01 -0.77186313092E-02  0.10306313298E+01  0.10305455270E+01 0.  0.
     999903    2    3    3    0    0 -0.74929963025E-01 -0.13028422973E-01  0.10852340972E+00  0.13991744869E+00  0.44892347070E-01 0.  0.
         14    1    1    2    0    0  0.10792320602E-02  0.10775556529E-01  0.77186313092E-02  0.13298670220E-01  0.00000000000E+00 0. -1.
     999901    1    3    3    0    0  0.73850730965E-01  0.22528664440E-02 -0.11624204103E+00  0.89071388109E+00  0.88000000000E+00 0. -1.
        -11    1    4    4    0    0 -0.39721867829E-01 -0.25621010153E-01  0.79854293167E-01  0.92796725175E-01  0.51100000000E-03 0.  1.
         11    1    4    4    0    0 -0.35208095196E-01  0.12592587180E-01  0.28669116552E-01  0.47120723510E-01  0.51100000000E-03 0. -1.
</event>
<event>
 8    1  0.2877139E+004  0.1043930E+01  0.7957747E-01            NaN
         13   -1    0    0    0    0  0.00000000000E+00  0.00000000000E+00  0.74505805969E-08  0.10566000000E+00  0.10566000000E+00 0. -1.
     999900   -1    0    0    0    0 -0.00000000000E+00 -0.00000000000E+00 -0.74505805969E-08  0.93827000000E+00  0.93827000000E+00 0. -1.
     999902    2    1    2    0    0  0.42067658518E-02 -0.59902108714E-02  0.11907599147E-01  0.10299525030E+01  0.10298576542E+01 0.  0.
     999903    2    3    3    0    0  0.18896130319E-01 -0.12748810059E+00 -0.31679895721E-01  0.14041476667E+00  0.45852059637E-01 0.  0.
         14    1    1    2    0    0 -0.42067658518E-02  0.59902108714E-02 -0.11907599147E-01  0.13977497010E-01  0.00000000000E+00 0.  1.
     999901    1    3    3    0    0 -0.14689364467E-01  0.12149788972E+00  0.43587494868E-01  0.88953773632E+00  0.88000000000E+00 0. -1.
        -11    1    4    4    0    0  0.95324900342E-02 -0.10130097300E+00 -0.50003826010E-02  0.10187256964E+00  0.51100000000E-03 0. -1.
         11    1    4    4    0    0  0.93636402849E-02 -0.26187127585E-01 -0.26679513120E-01  0.38542197030E-01  0.51100000000E-03 0.  1.
</event>
<event>
 8    1  0.2877139E+004  0.1043930E+01  0.7957747E-01            NaN
         13   -1    0    0    0    0  0.00000000000E+00  0.00000000000E+00  0.74505805969E-08  0.10566000000E+00  0.10566000000E+00 0. -1.
     999900   -1    0    0    0    0 -0.00000000000E+00 -0.00000000000E+00 -0.74505805969E-08  0.93827000000E+00  0.93827000000E+00 0.  1.
     999902    2    1    2    0    0  0.68550051631E-02  0.10680090868E-01 -0.34249087830E-02  0.10307852126E+01  0.10307013966E+01 0.  0.
     999903    2    3    3    0    0  0.12486184039E+00  0.27281525166E-01 -0.41622302891E-01  0.14193187162E+00  0.45579373419E-01 0.  0.
         14    1    1    2    0    0 -0.68550051631E-02 -0.10680090868E-01  0.34249087830E-02  0.13144787442E-01  0.00000000000E+00 0. -1.
     999901    1    3    3    0    0 -0.11800683523E+00 -0.16601434299E-01  0.38197394108E-01  0.88885334094E+00  0.88000000000E+00 0. -1.
        -11    1    4    4    0    0  0.11835530045E+00  0.12802589309E-01 -0.41426293425E-01  0.12604873004E+00  0.51100000000E-03 0.  1.
         11    1    4    4    0    0  0.65065399448E-02  0.14478935858E-01 -0.19600946635E-03  0.15883141576E-01  0.51100000000E-03 0. -1.
</event>
<event>
 8    1  0.2877139E+004  0.1043930E+01  0.7957747E-01            NaN
         13   -1    0    0    0    0  0.00000000000E+00  0.00000000000E+00  0.74505805969E-08  0.10566000000E+00  0.10566000000E+00 0.  1.
     999900   -1    0    0    0    0 -0.00000000000E+00 -0.00000000000E+00 -0.74505805969E-08  0.93827000000E+00  0.93827000000E+00 0. -1.
     999902    2    1    2    0    0 -0.13678493290E-01 -0.38894930577E-03 -0.27852113230E-02  0.10299654068E+01  0.10298707343E+01 0.  0.
     999903    2    3    3    0    0 -0.20143391708E-01  0.28474735885E-01  0.12751680917E+00  0.13987916170E+00  0.45706415788E-01 0.  0.
         14    1    1    2    0    0  0.13678493290E-01  0.38894930577E-03  0.27852113230E-02  0.13964593169E-01  0.00000000000E+00 0. -1.
     999901    1    3    3    0    0  0.64648984179E-02 -0.28863685191E-01 -0.13030202049E+00  0.89008624513E+00  0.88000000000E+00 0. -1.
        -11    1    4    4    0    0 -0.72936577391E-02  0.32742241692E-01  0.44317429849E-01  0.55583698542E-01  0.51100000000E-03 0. -1.
         11    1    4    4    0    0 -0.12849733969E-01 -0.42675058068E-02  0.83199379316E-01  0.84295463155E-01  0.51100000000E-03 0.  1.
</event>
<event>
 8    1  0.2877139E+004  0.1043930E+01  0.7957747E-01            NaN
         13   -1    0    0    0    0  0.00000000000E+00  0.00000000000E+00  0.74505805969E-08  0.10566000000E+00  0.10566000000E+00 0.  1.
     999900   -1    0    0    0    0 -0.00000000000E+00 -0.00000000000E+00 -0.74505805969E-08  0.93827000000E+00  0.93827000000E+00 0. -1.
     999902    2    1    2    0    0  0.63902325346E-02 -0.88051889086E-02 -0.10223509155E-01  0.10290006141E+01  0.10288923060E+01 0.  0.
     999903    2    3    3    0    0 -0.62200218771E-02  0.58641793331E-01  0.11557244566E+00  0.13741060958E+00  0.45245296258E-01 0.  0.
         14    1    1    2    0    0 -0.63902325346E-02  0.88051889086E-02  0.10223509155E-01  0.14929385888E-01  0.00000000000E+00 0.  1.
     999901    1    3    3    0    0  0.12610254412E-01 -0.67446982240E-01 -0.12579595481E+00  0.89159000453E+00  0.88000000000E+00 0. -1.
        -11    1    4    4    0    0  0.68494802823E-02  0.59120133325E-02  0.56229469528E-01  0.56955084463E-01  0.51100000000E-03 0. -1.
         11    1    4    4    0    0 -0.13069502159E-01  0.52729779999E-01  0.59342976129E-01  0.80455525119E-01  0.51100000000E-03 0.  1.
</event>
<event>
 8    1  0.2877139E+004  0.1043930E+01  0.7957747E-01            NaN
         13   -1    0    0    0    0  0.00000000000E+00  0.00000000000E+00  0.74505805969E-08  0.10566000000E+00  0.10566000000E+00 0.  1.
     999900   -1    0    0    0    0 -0.00000000000E+00 -0.00000000000E+00 -0.74505805969E-08  0.93827000000E+00  0.93827000000E+00 0. -1.
     999902    2    1    2    0    0 -0.75355707115E-02  0.92022354715E-02  0.69498924984E-02  0.10301544068E+01  0.10300622966E+01 0.  0.
     999903    2    3    3    0    0 -0.12865951633E+00  0.20247187426E-01 -0.28639778101E-01  0.14107644289E+00  0.46033749677E-01 0.  0.
         14    1    1    2    0    0  0.75355707115E-02 -0.92022354715E-02 -0.69498924984E-02  0.13775593249E-01  0.00000000000E+00 0. -1.
     999901    1    3    3    0    0  0.12112394562E+00 -0.11044951955E-01  0.35589670600E-01  0.88907796386E+00  0.88000000000E+00 0.  1.
        -11    1    4    4    0    0 -0.93355029847E-01 -0.66262958348E-02 -0.22739248004E-01  0.96314089909E-01  0.51100000000E-03 0. -1.
         11    1    4    4    0    0 -0.35304486481E-01  0.26873483261E-01 -0.59005300977E-02  0.44762352984E-01  0.51100000000E-03 0.  1.
</event>
<event>
 8    1  0.2877139E+004  0.1043930E+01  0.7957747E-01            NaN
         13   -1    0    0    0    0  0.00000000000E+00  0.00000000000E+00  0.74505805969E-08  0.10566000000E+00  0.10566000000E+00 0.  1.
     999900   -1    0    0    0    0 -0.00000000000E+00 -0.00000000000E+00 -0.74505805969E-08  0.93827000000E+00  0.93827000000E+00 0. -1.
     999902    2    1    2    0    0  0.26438007740E-02 -0.70489518664E-02 -0.11730101632E-01  0.10299918262E+01  0.10298975140E+01 0.  0.
     999903    2    3    3    0    0  0.59823291876E-01 -0.11878164026E+00  0.10911150808E-01  0.14079763245E+00  0.44911198813E-01 0.  0.
         14    1    1    2    0    0 -0.26438007740E-02  0.70489518664E-02  0.11730101632E-01  0.13938173813E-01  0.00000000000E+00 0.  1.
     999901    1    3    3    0    0 -0.57179491102E-01  0.11173268839E+00 -0.22641252440E-01  0.88919419373E+00  0.88000000000E+00 0.  1.
        -11    1    4    4    0    0  0.13388384808E-01 -0.23976224507E-01 -0.16089894869E-01  0.31831651344E-01  0.51100000000E-03 0.  1.
         11    1    4    4    0    0  0.46434907068E-01 -0.94805415753E-01  0.27001045677E-01  0.10896598111E+00  0.51100000000E-03 0. -1.
</event>
<event>
 8    1  0.2877139E+004  0.1043930E+01  0.7957747E-01            NaN
         13   -1    0    0    0    0  0.00000000000E+00  0.00000000000E+00  0.74505805969E-08  0.10566000000E+00  0.10566000000E+00 0. -1.
     999900   -1    0    0    0    0 -0.00000000000E+00 -0.00000000000E+00 -0.74505805969E-08  0.93827000000E+00  0.93827000000E+00 0. -1.
     999902    2    1    2    0    0 -0.20374051348E-02  0.12098870856E-01 -0.65957857103E-02  0.10300002446E+01  0.10299060471E+01 0.  0.
     999903    2    3    3    0    0 -0.49234196828E-01  0.12010375345E+00  0.32702910581E-01  0.14127251391E+00  0.45161101574E-01 0.  0.
         14    1    1    2    0    0  0.20374051348E-02 -0.12098870856E-01  0.65957857103E-02  0.13929755375E-01  0.00000000000E+00 0.  1.
     999901    1    3    3    0    0  0.47196791693E-01 -0.10800488260E+00 -0.39298696291E-01  0.88872773071E+00  0.88000000000E+00 0. -1.
        -11    1    4    4    0    0 -0.42083242473E-01  0.12184554818E+00  0.26435231157E-01  0.13159186706E+00  0.51100000000E-03 0. -1.
         11    1    4    4    0    0 -0.71509543555E-02 -0.17417947304E-02  0.62676794244E-02  0.96806468505E-02  0.51100000000E-03 0.  1.
</event>
<event>
 7    1  0.2877139E+004  0.1043930E+01  0.7957747E-01            NaN
         13   -1    0    0    0    0  0.00000000000E+00  0.00000000000E+00  0.74505805969E-08  0.10566000000E+00  0.10566000000E+00 0. -1.
     999900   -1    0    0    0    0 -0.00000000000E+00 -0.00000000000E+00 -0.74505805969E-08  0.93827000000E+00  0.93827000000E+00 0.  1.
     999903    2    1    2    0    0 -0.54336323387E-01 -0.96139776612E-01  0.49403754799E-01  0.12885591609E+00  0.44360155955E-01 0.  0.
         14    1    1    2    0    0  0.22252681400E-01  0.14378812010E-01  0.10899229041E-01  0.28648302882E-01  0.00000000000E+00 0. -1.
     999901    1    1    2    0    0  0.32083641987E-01  0.81760964602E-01 -0.60302983840E-01  0.88642578103E+00  0.88000000000E+00 0.  1.
        -11    1    3    3    0    0 -0.73271102304E-02 -0.57514206921E-01  0.20537807407E-01  0.61511244469E-01  0.51100000000E-03 0.  1.
         11    1    3    3    0    0 -0.47009213157E-01 -0.38625569691E-01  0.28865947392E-01  0.67344671619E-01  0.51100000000E-03 0. -1.
</event>
<event>
 8    1  0.2877139E+004  0.1043930E+01  0.7957747E-01            NaN
         13   -1    0    0    0    0  0.00000000000E+00  0.00000000000E+00  0.74505805969E-08  0.10566000000E+00  0.10566000000E+00 0.  1.
     999900   -1    0    0    0    0 -0.00000000000E+00 -0.00000000000E+00 -0.74505805969E-08  0.93827000000E+00  0.93827000000E+00 0. -1.
     999902    2    1    2    0    0 -0.67358032597E-02 -0.11065670336E-01  0.49920831552E-02  0.10300468808E+01  0.10299533172E+01 0.  0.
     999903    2    3    3    0    0  0.12803752417E+00 -0.31269150184E-01  0.10436800496E-01  0.13954046566E+00  0.44623395250E-01 0.  0.
         14    1    1    2    0    0  0.67358032597E-02  0.11065670336E-01 -0.49920831552E-02  0.13883119237E-01  0.00000000000E+00 0. -1.
     999901    1    3    3    0    0 -0.13477332743E+00  0.20203479848E-01 -0.54447173403E-02  0.89050641510E+00  0.88000000000E+00 0.  1.
        -11    1    4    4    0    0  0.12369316614E+00 -0.18398986294E-01  0.12925413009E-01  0.12572131669E+00  0.51100000000E-03 0. -1.
         11    1    4    4    0    0  0.43443580317E-02 -0.12870163889E-01 -0.24886125137E-02  0.13819148979E-01  0.51100000000E-03 0.  1.
</event>
<event>
 8    1  0.2877139E+004  0.1043930E+01  0.7957747E-01            NaN
         13   -1    0    0    0    0  0.00000000000E+00  0.00000000000E+00  0.74505805969E-08  0.10566000000E+00  0.10566000000E+00 0.  1.
     999900   -1    0    0    0    0 -0.00000000000E+00 -0.00000000000E+00 -0.74505805969E-08  0.93827000000E+00  0.93827000000E+00 0. -1.
     999902    2    1    2    0    0 -0.13310541656E-02 -0.87644879639E-02  0.12930233350E-01  0.10282526632E+01  0.10281331434E+01 0.  0.
     999903    2    3    3    0    0  0.27078644926E-01 -0.18658421779E-01 -0.12534649903E+00  0.13694718491E+00  0.44287661054E-01 0.  0.
         14    1    1    2    0    0  0.13310541656E-02  0.87644879639E-02 -0.12930233350E-01  0.15677336794E-01  0.00000000000E+00 0. -1.
     999901    1    3    3    0    0 -0.28409699091E-01  0.98939338149E-02  0.13827673238E+00  0.89130547830E+00  0.88000000000E+00 0.  1.
        -11    1    4    4    0    0 -0.41660660114E-02 -0.10881298955E-01 -0.55834312026E-02  0.12930375013E-01  0.51100000000E-03 0.  1.
         11    1    4    4    0    0  0.31244710937E-01 -0.77771228233E-02 -0.11976306782E+00  0.12401680989E+00  0.51100000000E-03 0. -1.
</event>
<event>
 8    1  0.2877139E+004  0.1043930E+01  0.7957747E-01            NaN
         13   -1    0    0    0    0  0.00000000000E+00  0.00000000000E+00  0.74505805969E-08  0.10566000000E+00  0.10566000000E+00 0.  1.
     999900   -1    0    0    0    0 -0.00000000000E+00 -0.00000000000E+00 -0.74505805969E-08  0.93827000000E+00  0.93827000000E+00 0. -1.
     999902    2    1    2    0    0 -0.13119659454E-02  0.88001535642E-02  0.11548020789E-01  0.10293519089E+01  0.10292486733E+01 0.  0.
     999903    2    3    3    0    0  0.11041307917E+00 -0.35140690859E-01 -0.58352046347E-01  0.13845387714E+00  0.48359058885E-01 0.  0.
         14    1    1    2    0    0  0.13119659454E-02 -0.88001535642E-02 -0.11548020789E-01  0.14578091149E-01  0.00000000000E+00 0. -1.
     999901    1    3    3    0    0 -0.11172504512E+00  0.43940844423E-01  0.69900067136E-01  0.89089803171E+00  0.88000000000E+00 0.  1.
        -11    1    4    4    0    0  0.63565064122E-01 -0.44674149094E-01 -0.38026336956E-01  0.86501794186E-01  0.51100000000E-03 0.  1.
         11    1    4    4    0    0  0.46848015053E-01  0.95334582358E-02 -0.20325709392E-01  0.51952082957E-01  0.51100000000E-03 0. -1.
</event>
<event>
 8    1  0.2877139E+004  0.1043930E+01  0.7957747E-01            NaN
         13   -1    0    0    0    0  0.00000000000E+00  0.00000000000E+00  0.74505805969E-08  0.10566000000E+00  0.10566000000E+00 0. -1.
     999900   -1    0    0    0    0 -0.00000000000E+00 -0.00000000000E+00 -0.74505805969E-08  0.93827000000E+00  0.93827000000E+00 0.  1.
     999902    2    1    2    0    0  0.82141186196E-02 -0.67717437691E-02 -0.16387972796E-01  0.10243878939E+01  0.10242014759E+01 0.  0.
     999903    2    3    3    0    0  0.34935575005E-01  0.21053143143E-03  0.12103826523E+00  0.13329375786E+00  0.43547967902E-01 0.  0.
         14    1    1    2    0    0 -0.82141186196E-02  0.67717437691E-02  0.16387972796E-01  0.19542106098E-01  0.00000000000E+00 0. -1.
     999901    1    3    3    0    0 -0.26721456385E-01 -0.69822752006E-02 -0.13742623803E+00  0.89109413605E+00  0.88000000000E+00 0.  1.
        -11    1    4    4    0    0 -0.85969994592E-02  0.78215538002E-02  0.25129410135E-01  0.27691758310E-01  0.51100000000E-03 0. -1.
         11    1    4    4    0    0  0.43532574464E-01 -0.76110223688E-02  0.95908855097E-01  0.10560199955E+00  0.51100000000E-03 0.  1.
</event>
<event>
 8    1  0.2877139E+004  0.1043930E+01  0.7957747E-01            NaN
         13   -1    0    0    0    0  0.00000000000E+00  0.00000000000E+00  0.74505805969E-08  0.10566000000E+00  0.10566000000E+00 0.  1.
     999900   -1    0    0    0    0 -0.00000000000E+00 -0.00000000000E+00 -0.74505805969E-08  0.93827000000E+00  0.93827000000E+00 0. -1.
     999902    2    1    2    0    0  0.11313357288E-01  0.12434733154E-01  0.49989698594E-02  0.10263913472E+01  0.10262414888E+01 0.  0.
     999903    2    3    3    0    0  0.11673989741E-01 -0.63322850477E-01  0.11211489546E+00  0.13666489316E+00  0.44288574265E-01 0.  0.
         14    1    1    2    0    0 -0.11313357288E-01 -0.12434733154E-01 -0.49989698594E-02  0.17538652781E-01  0.00000000000E+00 0.  1.
     999901    1    3    3    0    0 -0.36063245292E-03  0.75757583631E-01 -0.10711592560E+00  0.88972645406E+00  0.88000000000E+00 0. -1.
        -11    1    4    4    0    0 -0.13583746943E-01 -0.87234109154E-02  0.37408099531E-01  0.40746080922E-01  0.51100000000E-03 0. -1.
         11    1    4    4    0    0  0.25257736683E-01 -0.54599439562E-01  0.74706795926E-01  0.95918812239E-01  0.51100000000E-03 0.  1.
</event>
<event>
 8    1  0.2877139E+004  0.1043930E+01  0.7957747E-01            NaN
         13   -1    0    0    0    0  0.00000000000E+00  0.00000000000E+00  0.74505805969E-08  0.10566000000E+00  0.10566000000E+00 0. -1.
     999900   -1    0    0    0    0 -0.00000000000E+00 -0.00000000000E+00 -0.74505805969E-08  0.93827000000E+00  0.93827000000E+00 0. -1.
     999902    2    1    2    0    0 -0.17427349305E-02 -0.12856464587E-02 -0.94449864651E-02  0.10342399133E+01  0.10341945177E+01 0.  0.
     999903    2    3    3    0    0  0.11363249645E+00 -0.25463821282E-01  0.69759755246E-01  0.14285367864E+00  0.44497186470E-01 0.  0.
         14    1    1    2    0    0  0.17427349305E-02  0.12856464587E-02  0.94449864651E-02  0.96900867478E-02  0.00000000000E+00 0. -1.
     999901    1    3    3    0    0 -0.11537523138E+00  0.24178174823E-01 -0.79204741711E-01  0.89138623462E+00  0.88000000000E+00 0. -1.
        -11    1    4    4    0    0  0.69543186363E-02  0.50118813881E-03 -0.62006344710E-02  0.93446629736E-02  0.51100000000E-03 0.  1.
         11    1    4    4    0    0  0.10667817781E+00 -0.25965009421E-01  0.75960389717E-01  0.13350901566E+00  0.51100000000E-03 0. -1.
</event>
<event>
 8    1  0.2877139E+004  0.1043930E+01  0.7957747E-01            NaN
         13   -1    0    0    0    0  0.00000000000E+00  0.00000000000E+00  0.74505805969E-08  0.10566000000E+00  0.10566000000E+00 0. -1.
     999900   -1    0    0    0    0 -0.00000000000E+00 -0.00000000000E+00 -0.74505805969E-08  0.93827000000E+00  0.93827000000E+00 0. -1.
     999902    2    1    2    0    0 -0.54722545522E-02  0.11863053853E-01  0.25406764395E-03  0.10308631654E+01  0.10307803469E+01 0.  0.
     999903    2    3    3    0    0  0.98167997353E-01  0.82054413205E-01 -0.39110898989E-01  0.14113414521E+00  0.44936645322E-01 0.  0.
         14    1    1    2    0    0  0.54722545522E-02 -0.11863053853E-01 -0.25406764395E-03  0.13066834619E-01  0.00000000000E+00 0.  1.
     999901    1    3    3    0    0 -0.10364025190E+00 -0.70191359352E-01  0.39364966633E-01  0.88972902017E+00  0.88000000000E+00 0.  1.
        -11    1    4    4    0    0  0.63539698525E-01  0.23857015188E-01 -0.18653656127E-01  0.70389420158E-01  0.51100000000E-03 0. -1.
         11    1    4    4    0    0  0.34628298828E-01  0.58197398017E-01 -0.20457242862E-01  0.70744725048E-01  0.51100000000E-03 0.  1.
</event>
<event>
 8    1  0.2877139E+004  0.1043930E+01  0.7957747E-01            NaN
         13   -1    0    0    0    0  0.00000000000E+00  0.00000000000E+00  0.74505805969E-08  0.10566000000E+00  0.10566000000E+00 0. -1.
     999900   -1    0    0    0    0 -0.00000000000E+00 -0.00000000000E+00 -0.74505805969E-08  0.93827000000E+00  0.93827000000E+00 0.  1.
     999902    2    1    2    0    0 -0.46883157026E-02  0.13128641601E-01  0.82676469818E-03  0.10299648622E+01  0.10298701822E+01 0.  0.
     999903    2    3    3    0    0  0.28276457156E-01 -0.43247596565E-02  0.13001959316E+00  0.13975023391E+00  0.42506137174E-01 0.  0.
         14    1    1    2    0    0  0.46883157026E-02 -0.13128641601E-01 -0.82676469818E-03  0.13965137818E-01  0.00000000000E+00 0.  1.
     999901    1    3    3    0    0 -0.32964772859E-01  0.17453401258E-01 -0.12919282846E+00  0.89021462827E+00  0.88000000000E+00 0.  1.
        -11    1    4    4    0    0  0.18243244958E-01 -0.13522740648E-01  0.24711320540E-01  0.33564728289E-01  0.51100000000E-03 0. -1.
         11    1    4    4    0    0  0.10033212198E-01  0.91979809912E-02  0.10530827262E+00  0.10618550562E+00  0.51100000000E-03 0.  1.
</event>
<event>
 8    1  0.2877139E+004  0.1043930E+01  0.7957747E-01            NaN
         13   -1    0    0    0    0  0.00000000000E+00  0.00000000000E+00  0.74505805969E-08  0.10566000000E+00  0.10566000000E+00 0. -1.
     999900   -1    0    0    0    0 -0.00000000000E+00 -0.00000000000E+00 -0.74505805969E-08  0.93827000000E+00  0.93827000000E+00 0. -1.
     999902    2    1    2    0    0 -0.93506076067E-02  0.10301068969E-01  0.81664092169E-04  0.10300176834E+01  0.10299237232E+01 0.  0.
     999903    2    3    3    0    0  0.27269162400E-01 -0.31204839102E-01  0.12251875453E+00  0.13981849833E+00  0.53113256941E-01 0.  0.
         14    1    1    2    0    0  0.93506076067E-02 -0.10301068969E-01 -0.81664092169E-04  0.13912316613E-01  0.00000000000E+00 0. -1.
     999901    1    3    3    0    0 -0.36619770006E-01  0.41505908071E-01 -0.12243709044E+00  0.89019918506E+00  0.88000000000E+00 0. -1.
        -11    1    4    4    0    0 -0.63916902377E-02  0.34621454411E-02  0.61750504404E-01  0.62178984153E-01  0.51100000000E-03 0.  1.
         11    1    4    4    0    0  0.33660852637E-01 -0.34666984543E-01  0.60768250125E-01  0.77639514178E-01  0.51100000000E-03 0. -1.
</event>
<event>
 8    1  0.2877139E+004  0.1043930E+01  0.7957747E-01            NaN
         13   -1    0    0    0    0  0.00000000000E+00  0.00000000000E+00  0.74505805969E-08  0.10566000000E+00  0.10566000000E+00 0.  1.
     999900   -1    0    0    0    0 -0.00000000000E+00 -0.00000000000E+00 -0.74505805969E-08  0.93827000000E+00  0.93827000000E+00 0.  1.
     999902    2    1    2    0    0  0.35994264192E-02  0.12779385398E-01  0.35752616420E-02  0.10301804161E+01  0.10300886557E+01 0.  0.
     999903    2    3    3    0    0 -0.99500957849E-01  0.81193707143E-01  0.35832678078E-01  0.14093874503E+00  0.45682494881E-01 0.  0.
         14    1    1    2    0    0 -0.35994264192E-02 -0.12779385398E-01 -0.35752616420E-02  0.13749583903E-01  0.00000000000E+00 0. -1.
     999901    1    3    3    0    0  0.10310038427E+00 -0.68414321745E-01 -0.32257416436E-01  0.88924167107E+00  0.88000000000E+00 0.  1.
        -11    1    4    4    0    0 -0.81497852540E-01  0.68589558526E-01  0.99557712372E-02  0.10698507377E+00  0.51100000000E-03 0.  1.
         11    1    4    4    0    0 -0.18003105309E-01  0.12604148617E-01  0.25876906841E-01  0.33953671256E-01  0.51100000000E-03 0. -1.
</event>
<event>
 8    1  0.2877139E+004  0.1043930E+01  0.7957747E-01            NaN
         13   -1    0    0    0    0  0.00000000000E+00  0.00000000000E+00  0.74505805969E-08  0.10566000000E+00  0.10566000000E+00 0.  1.
     999900   -1    0    0    0    0 -0.00000000000E+00 -0.00000000000E+00 -0.74505805969E-08  0.93827000000E+00  0.93827000000E+00 0.  1.
     999902    2    1    2    0    0  0.75597300800E-02 -0.11345450830E-01  0.43057648751E-03  0.10302898325E+01  0.10301995364E+01 0.  0.
     999903    2    3    3    0    0 -0.40065079557E-01  0.50059172499E-01  0.11561687781E+00  0.13938774233E+00  0.44165019252E-01 0.  0.
         14    1    1    2    0    0 -0.75597300800E-02  0.11345450830E-01 -0.43057648751E-03  0.13640167504E-01  0.00000000000E+00 0. -1.
     999901    1    3    3    0    0  0.47624809638E-01 -0.61404623329E-01 -0.11518630132E+00  0.89090209017E+00  0.88000000000E+00 0.  1.
        -11    1    4    4    0    0 -0.28162018072E-01  0.26977130449E-01  0.28027197288E-01  0.48027593506E-01  0.51100000000E-03 0. -1.
         11    1    4    4    0    0 -0.11903061486E-01  0.23082042050E-01  0.87589680518E-01  0.91360148819E-01  0.51100000000E-03 0.  1.
</event>
<event>
 8    1  0.2877139E+004  0.1043930E+01  0.7957747E-01            NaN
         13   -1    0    0    0    0  0.00000000000E+00  0.00000000000E+00  0.74505805969E-08  0.10566000000E+00  0.10566000000E+00 0. -1.
     999900   -1    0    0    0    0 -0.00000000000E+00 -0.00000000000E+00 -0.74505805969E-08  0.93827000000E+00  0.93827000000E+00 0. -1.
     999902    2    1    2    0    0 -0.70394338310E-02 -0.20877021980E-02 -0.11140172570E-02  0.10365034824E+01  0.10364768767E+01 0.  0.
     999903    2    3    3    0    0  0.10794805206E+00 -0.53777148818E-01 -0.66767320479E-01  0.14509769544E+00  0.45284682401E-01 0.  0.
         14    1    1    2    0    0  0.70394338310E-02  0.20877021980E-02  0.11140172570E-02  0.74265175942E-02  0.00000000000E+00 0. -1.
     999901    1    3    3    0    0 -0.11498748589E+00  0.51689446620E-01  0.65653303222E-01  0.89140578696E+00  0.88000000000E+00 0.  1.
        -11    1    4    4    0    0  0.81501860174E-01 -0.46910035968E-01 -0.70479063186E-01  0.11751878214E+00  0.51100000000E-03 0.  1.
         11    1    4    4    0    0  0.26446191889E-01 -0.68671128494E-02  0.37117427064E-02  0.27578913308E-01  0.51100000000E-03 0. -1.
</event>
<event>
 8    1  0.2877139E+004  0.1043930E+01  0.7957747E-01            NaN
         13   -1    0    0    0    0  0.00000000000E+00  0.00000000000E+00  0.74505805969E-08  0.10566000000E+00  0.10566000000E+00 0. -1.
     999900   -1    0    0    0    0 -0.00000000000E+00 -0.00000000000E+00 -0.74505805969E-08  0.93827000000E+00  0.93827000000E+00 0. -1.
     999902    2    1    2    0    0  0.43125641982E-02  0.11344090445E-01  0.65722992988E-02  0.10301284886E+01  0.10300360292E+01 0.  0.
     999903    2    3    3    0    0  0.12023457629E+00 -0.20306699296E-01 -0.51987879224E-01  0.14003356117E+00  0.45143585321E-01 0.  0.
         14    1    1    2    0    0 -0.43125641982E-02 -0.11344090445E-01 -0.65722992988E-02  0.13801511369E-01  0.00000000000E+00 0.  1.
     999901    1    3    3    0    0 -0.11592201210E+00  0.31650789741E-01  0.58560178523E-01  0.89009492746E+00  0.88000000000E+00 0.  1.
        -11    1    4    4    0    0  0.46934567660E-01  0.93598891865E-02 -0.34623219087E-01  0.59071901848E-01  0.51100000000E-03 0.  1.
         11    1    4    4    0    0  0.73300008634E-01 -0.29666588483E-01 -0.17364660137E-01  0.80961659325E-01  0.51100000000E-03 0. -1.
</event>
<event>
 8    1  0.2877139E+004  0.1043930E+01  0.7957747E-01            NaN
         13   -1    0    0    0    0  0.00000000000E+00  0.00000000000E+00  0.74505805969E-08  0.10566000000E+00  0.10566000000E+00 0. -1.
     999900   -1    0    0    0    0 -0.00000000000E+00 -0.00000000000E+00 -0.74505805969E-08  0.93827000000E+00  0.93827000000E+00 0.  1.
     999902    2    1    2    0    0  0.10938177786E-01  0.24269317865E-02  0.45647513325E-02  0.10318316247E+01  0.10317606946E+01 0.  0.
     999903    2    3    3    0    0 -0.10813171397E+00  0.63811594500E-01  0.45303677241E-01  0.14076183164E+00  0.44688733664E-01 0.  0.
         14    1    1    2    0    0 -0.10938177786E-01 -0.24269317865E-02 -0.45647513325E-02  0.12098375342E-01  0.00000000000E+00 0.  1.
     999901    1    3    3    0    0  0.11906989176E+00 -0.61384662713E-01 -0.40738925909E-01  0.89106979302E+00  0.88000000000E+00 0.  1.
        -11    1    4    4    0    0 -0.75014159778E-01  0.57649193589E-01  0.15678315294E-01  0.95899032217E-01  0.51100000000E-03 0. -1.
         11    1    4    4    0    0 -0.33117554195E-01  0.61624009114E-02  0.29625361947E-01  0.44862799426E-01  0.51100000000E-03 0.  1.
</event>
<event>
 8    1  0.2877139E+004  0.1043930E+01  0.7957747E-01            NaN
         13   -1    0    0    0    0  0.00000000000E+00  0.00000000000E+00  0.74505805969E-08  0.10566000000E+00  0.10566000000E+00 0.  1.
     999900   -1    0    0    0    0 -0.00000000000E+00 -0.00000000000E+00 -0.74505805969E-08  0.93827000000E+00  0.93827000000E+00 0. -1.
     999902    2    1    2    0    0  0.16486130025E-01  0.23707855143E-02 -0.50811473749E-02  0.10265164660E+01  0.10263687563E+01 0.  0.
     999903    2    3    3    0    0 -0.11067740312E+00 -0.96757316298E-02  0.61910573990E-01  0.13477458998E+00  0.44588828080E-01 0.  0.
         14    1    1    2    0    0 -0.16486130025E-01 -0.23707855143E-02  0.50811473749E-02  0.17413533984E-01  0.00000000000E+00 0.  1.
     999901    1    3    3    0    0  0.12716353315E+00  0.12046517144E-01 -0.66991721365E-01  0.89174187603E+00  0.88000000000E+00 0. -1.
        -11    1    4    4    0    0 -0.20015989131E-01 -0.32248178999E-02  0.34184549880E-01  0.39747752677E-01  0.51100000000E-03 0. -1.
         11    1    4    4    0    0 -0.90661413990E-01 -0.64509137299E-02  0.27726024109E-01  0.95026837307E-01  0.51100000000E-03 0.  1.
</event>
<event>
 8    1  0.2877139E+004  0.1043930E+01  0.7957747E-01            NaN
         13   -1    0    0    0    0  0.00000000000E+00  0.00000000000E+00  0.74505805969E-08  0.10566000000E+00  0.10566000000E+00 0.  1.
     999900   -1    0    0    0    0 -0.00000000000E+00 -0.00000000000E+00 -0.74505805969E-08  0.93827000000E+00  0.93827000000E+00 0.  1.
     999902    2    1    2    0    0 -0.19151852846E-02  0.13288239690E-01 -0.27136258200E-02  0.10302329560E+01  0.10301419003E+01 0.  0.
     999903    2    3    3    0    0 -0.11259256047E+00 -0.60164822043E-01  0.34938930676E-01  0.13946780815E+00  0.43973289029E-01 0.  0.
         14    1    1    2    0    0  0.19151852846E-02 -0.13288239690E-01  0.27136258200E-02  0.13697043981E-01  0.00000000000E+00 0.  1.
     999901    1    3    3    0    0  0.11067737518E+00  0.73453061733E-01 -0.37652556496E-01  0.89076514787E+00  0.88000000000E+00 0.  1.
        -11    1    4    4    0    0 -0.37977168323E-01 -0.38570439324E-01  0.29379022867E-01  0.61590033359E-01  0.51100000000E-03 0.  1.
         11    1    4    4    0    0 -0.74615392145E-01 -0.21594382718E-01  0.55599078091E-02  0.77877774787E-01  0.51100000000E-03 0. -1.
</event>
<event>
 8    1  0.2877139E+004  0.1043930E+01  0.7957747E-01            NaN
         13   -1    0    0    0    0  0.00000000000E+00  0.00000000000E+00  0.74505805969E-08  0.10566000000E+00  0.10566000000E+00 0.  1.
     999900   -1    0    0    0    0 -0.00000000000E+00 -0.00000000000E+00 -0.74505805969E-08  0.93827000000E+00  0.93827000000E+00 0. -1.
     999902    2    1    2    0    0  0.39852137821E-02 -0.12659592367E-01  0.24523231997E-02  0.10304332931E+01  0.10303448988E+01 0.  0.
     999903    2    3    3    0    0 -0.85741640782E-01  0.97770532453E-01  0.18741546460E-01  0.13885544475E+00  0.44931981841E-01 0.  0.
         14    1    1    2    0    0 -0.39852137821E-02  0.12659592367E-01 -0.24523231997E-02  0.13496706890E-01  0.00000000000E+00 0. -1.
     999901    1    3    3    0    0  0.89726854564E-01 -0.11043012482E+00 -0.16289223260E-01  0.89157784836E+00  0.88000000000E+00 0. -1.
        -11    1    4    4    0    0 -0.62653868467E-01  0.90576296799E-01  0.33518082031E-02  0.11018651694E+00  0.51100000000E-03 0. -1.
         11    1    4    4    0    0 -0.23087772315E-01  0.71942356539E-02  0.15389738257E-01  0.28668927809E-01  0.51100000000E-03 0.  1.
</event>
<event>
 8    1  0.2877139E+004  0.1043930E+01  0.7957747E-01            NaN
         13   -1    0    0    0    0  0.00000000000E+00  0.00000000000E+00  0.74505805969E-08  0.10566000000E+00  0.10566000000E+00 0.  1.
     999900   -1    0    0    0    0 -0.00000000000E+00 -0.00000000000E+00 -0.74505805969E-08  0.93827000000E+00  0.93827000000E+00 0. -1.
     999902    2    1    2    0    0  0.12350957411E-01  0.58841752514E-02 -0.39283835996E-02  0.10296961718E+01  0.10295977877E+01 0.  0.
     999903    2    3    3    0    0 -0.32983670839E-01  0.56470568583E-02  0.12640053606E+00  0.13894316898E+00  0.46992519580E-01 0.  0.
         14    1    1    2    0    0 -0.12350957411E-01 -0.58841752514E-02  0.39283835996E-02  0.14233828194E-01  0.00000000000E+00 0.  1.
     999901    1    3    3    0    0  0.45334628250E-01  0.23711839312E-03 -0.13032891966E+00  0.89075300283E+00  0.88000000000E+00 0. -1.
        -11    1    4    4    0    0  0.18131683866E-04  0.16328943706E-01  0.14690944080E-01  0.21970882783E-01  0.51100000000E-03 0.  1.
         11    1    4    4    0    0 -0.33001802523E-01 -0.10681886848E-01  0.11170959198E+00  0.11697228620E+00  0.51100000000E-03 0. -1.
</event>
<event>
 7    1  0.2877139E+004  0.1043930E+01  0.7957747E-01            NaN
         13   -1    0    0    0    0  0.00000000000E+00  0.00000000000E+00  0.74505805969E-08  0.10566000000E+00  0.10566000000E+00 0. -1.
     999900   -1    0    0    0    0 -0.00000000000E+00 -0.00000000000E+00 -0.74505805969E-08  0.93827000000E+00  0.93827000000E+00 0.  1.
     999902    2    1    2    0    0  0.23358998728E-01  0.74891537325E-02  0.47524849752E-02  0.10189436766E+01  0.10186372758E+01 0.  0.
         14    1    1    2    0    0 -0.23358998728E-01 -0.74891537325E-02 -0.47524849752E-02  0.24986323432E-01  0.00000000000E+00 0.  1.
     999901    1    3    3    0    0  0.41451578232E-02  0.41224401653E-01 -0.10311491687E+00  0.88698890619E+00  0.88000000000E+00 0.  1.
        -11    1    3    3    0    0 -0.39600628989E-02 -0.85986171039E-02  0.94920849601E-01  0.95393118852E-01  0.51100000000E-03 0. -1.
         11    1    3    3    0    0  0.23173903804E-01 -0.25136630817E-01  0.12946552242E-01  0.36561651526E-01  0.51100000000E-03 0.  1.
</event>
<event>
 8    1  0.2877139E+004  0.1043930E+01  0.7957747E-01            NaN
         13   -1    0    0    0    0  0.00000000000E+00  0.00000000000E+00  0.74505805969E-08  0.10566000000E+00  0.10566000000E+00 0.  1.
     999900   -1    0    0    0    0 -0.00000000000E+00 -0.00000000000E+00 -0.74505805969E-08  0.93827000000E+00  0.93827000000E+00 0.  1.
     999902    2    1    2    0    0  0.16435241030E-01  0.10084168321E-02  0.33039295449E-02  0.10271356556E+01  0.10269983472E+01 0.  0.
     999903    2    3    3    0    0 -0.61224022995E-01 -0.11205350852E+00  0.16577384318E-01  0.13641115005E+00  0.45042451340E-01 0.  0.
         14    1    1    2    0    0 -0.16435241030E-01 -0.10084168321E-02 -0.33039295449E-02  0.16794344365E-01  0.00000000000E+00 0. -1.
     999901    1    3    3    0    0  0.77659264024E-01  0.11306192535E+00 -0.13273454773E-01  0.89072450559E+00  0.88000000000E+00 0.  1.
        -11    1    4    4    0    0 -0.54709921742E-01 -0.62599087198E-01  0.22622940232E-01  0.86161939398E-01  0.51100000000E-03 0. -1.
         11    1    4    4    0    0 -0.65141012528E-02 -0.49454421323E-01 -0.60455559139E-02  0.50249210649E-01  0.51100000000E-03 0.  1.
</event>
<event>
 8    1  0.2877139E+004  0.1043930E+01  0.7957747E-01            NaN
         13   -1    0    0    0    0  0.00000000000E+00  0.00000000000E+00  0.74505805969E-08  0.10566000000E+00  0.10566000000E+00 0. -1.
     999900   -1    0    0    0    0 -0.00000000000E+00 -0.00000000000E+00 -0.74505805969E-08  0.93827000000E+00  0.93827000000E+00 0.  1.
     999902    2    1    2    0    0  0.93463090199E-03  0.13768832112E-01  0.87406836758E-03  0.10301018306E+01  0.10300090112E+01 0.  0.
     999903    2    3    3    0    0 -0.98164389451E-01 -0.97594959402E-02  0.88496657606E-01  0.13990414685E+00  0.44833210700E-01 0.  0.
         14    1    1    2    0    0 -0.93463090199E-03 -0.13768832112E-01 -0.87406836758E-03  0.13828169371E-01  0.00000000000E+00 0. -1.
     999901    1    3    3    0    0  0.99099020353E-01  0.23528328052E-01 -0.87622589239E-01  0.89019768378E+00  0.88000000000E+00 0.  1.
        -11    1    4    4    0    0 -0.24651212385E-01  0.12966034938E-01  0.90213895961E-02  0.29282194680E-01  0.51100000000E-03 0. -1.
         11    1    4    4    0    0 -0.73513177067E-01 -0.22725530878E-01  0.79475268010E-01  0.11062195217E+00  0.51100000000E-03 0.  1.
</event>
<event>
 8    1  0.2877139E+004  0.1043930E+01  0.7957747E-01            NaN
         13   -1    0    0    0    0  0.00000000000E+00  0.00000000000E+00  0.74505805969E-08  0.10566000000E+00  0.10566000000E+00 0. -1.
     999900   -1    0    0    0    0 -0.00000000000E+00 -0.00000000000E+00 -0.74505805969E-08  0.93827000000E+00  0.93827000000E+00 0. -1.
     999902    2    1    2    0    0 -0.25737988163E-02 -0.10854539171E-01  0.13399043318E-01  0.10264949829E+01  0.10263469053E+01 0.  0.
     999903    2    3    3    0    0 -0.89578615167E-01  0.86014488564E-01 -0.32789602471E-01  0.13571620134E+00  0.43828172873E-01 0.  0.
         14    1    1    2    0    0  0.25737988163E-02  0.10854539171E-01 -0.13399043318E-01  0.17435017143E-01  0.00000000000E+00 0.  1.
     999901    1    3    3    0    0  0.87004816351E-01 -0.96869027735E-01  0.46188645788E-01  0.89077878152E+00  0.88000000000E+00 0.  1.
        -11    1    4    4    0    0 -0.65622523875E-01  0.34505949801E-01 -0.25676121657E-01  0.78463370790E-01  0.51100000000E-03 0.  1.
         11    1    4    4    0    0 -0.23956091292E-01  0.51508538764E-01 -0.71134808136E-02  0.57252830548E-01  0.51100000000E-03 0. -1.
</event>
<event>
 8    1  0.2877139E+004  0.1043930E+01  0.7957747E-01            NaN
         13   -1    0    0    0    0  0.00000000000E+00  0.00000000000E+00  0.74505805969E-08  0.10566000000E+00  0.10566000000E+00 0. -1.
     999900   -1    0    0    0    0 -0.00000000000E+00 -0.00000000000E+00 -0.74505805969E-08  0.93827000000E+00  0.93827000000E+00 0. -1.
     999902    2    1    2    0    0 -0.37908075426E-02 -0.13095178498E-01 -0.36688327413E-02  0.10298121299E+01  0.10297153532E+01 0.  0.
     999903    2    3    3    0    0 -0.15908463674E-01 -0.19626737717E-01 -0.12995070175E+00  0.14069087313E+00  0.47628235796E-01 0.  0.
         14    1    1    2    0    0  0.37908075426E-02  0.13095178498E-01  0.36688327413E-02  0.14117870073E-01  0.00000000000E+00 0. -1.
     999901    1    3    3    0    0  0.12117656131E-01  0.65315592193E-02  0.12628186901E+00  0.88912125680E+00  0.88000000000E+00 0.  1.
        -11    1    4    4    0    0  0.57257775483E-02 -0.25751836446E-01 -0.39616472529E-01  0.47599029670E-01  0.51100000000E-03 0. -1.
         11    1    4    4    0    0 -0.21634241222E-01  0.61250987283E-02 -0.90334229223E-01  0.93091843455E-01  0.51100000000E-03 0.  1.
</event>
<event>
 8    1  0.2877139E+004  0.1043930E+01  0.7957747E-01            NaN
         13   -1    0    0    0    0  0.00000000000E+00  0.00000000000E+00  0.74505805969E-08  0.10566000000E+00  0.10566000000E+00 0.  1.
     999900   -1    0    0    0    0 -0.00000000000E+00 -0.00000000000E+00 -0.74505805969E-08  0.93827000000E+00  0.93827000000E+00 0. -1.
     999902    2    1    2    0    0  0.24526192147E-02  0.10419307180E-01 -0.52855340153E-02  0.10319920700E+01  0.10319230196E+01 0.  0.
     999903    2    3    3    0    0 -0.54821397029E-01 -0.53697029027E-01  0.10874931617E+00  0.14047921839E+00  0.44935960363E-01 0.  0.
         14    1    1    2    0    0 -0.24526192147E-02 -0.10419307180E-01  0.52855340153E-02  0.11937930011E-01  0.00000000000E+00 0.  1.
     999901    1    3    3    0    0  0.57274016244E-01  0.64116336206E-01 -0.11403485019E+00  0.89151285160E+00  0.88000000000E+00 0. -1.
        -11    1    4    4    0    0 -0.22503697567E-01 -0.45797572440E-01  0.86571294090E-01  0.10049220928E+00  0.51100000000E-03 0. -1.
         11    1    4    4    0    0 -0.32317699462E-01 -0.78994565868E-02  0.22178022082E-01  0.39987009108E-01  0.51100000000E-03 0.  1.
</event>
<event>
 8    1  0.2877139E+004  0.1043930E+01  0.7957747E-01            NaN
         13   -1    0    0    0    0  0.00000000000E+00  0.00000000000E+00  0.74505805969E-08  0.10566000000E+00  0.10566000000E+00 0. -1.
     999900   -1    0    0    0    0 -0.00000000000E+00 -0.00000000000E+00 -0.74505805969E-08  0.93827000000E+00  0.93827000000E+00 0. -1.
     999902    2    1    2    0    0 -0.77932251910E-02  0.11542780865E-01 -0.15998281946E-02  0.10299110985E+01  0.10298156831E+01 0.  0.
     999903    2    3    3    0    0 -0.92291249559E-01  0.13693553527E-01  0.94409953994E-01  0.14066286532E+00  0.46557642904E-01 0.  0.
         14    1    1    2    0    0  0.77932251910E-02 -0.11542780865E-01  0.15998281946E-02  0.14018901498E-01  0.00000000000E+00 0.  1.
     999901    1    3    3    0    0  0.84498024368E-01 -0.21507726623E-02 -0.96009782189E-01  0.88924823318E+00  0.88000000000E+00 0. -1.
        -11    1    4    4    0    0 -0.39947800723E-01 -0.15936662674E-01  0.29432863872E-01  0.52118697187E-01  0.51100000000E-03 0. -1.
         11    1    4    4    0    0 -0.52343448836E-01  0.29630216201E-01  0.64977090122E-01  0.88544168130E-01  0.51100000000E-03 0.  1.
</event>
<event>
 8    1  0.2877139E+004  0.1043930E+01  0.7957747E-01            NaN
         13   -1    0    0    0    0  0.00000000000E+00  0.00000000000E+00  0.74505805969E-08  0.10566000000E+00  0.10566000000E+00 0.  1.
     999900   -1    0    0    0    0 -0.00000000000E+00 -0.00000000000E+00 -0.74505805969E-08  0.93827000000E+00  0.93827000000E+00 0.  1.
     999902    2    1    2    0    0  0.91344970062E-02 -0.53464726210E-03  0.17763954173E-01  0.10239479343E+01  0.10237529434E+01 0.  0.
     999903    2    3    3    0    0 -0.64061714282E-01 -0.91404242712E-01 -0.55365484377E-01  0.13323873171E+00  0.47207880124E-01 0.  0.
         14    1    1    2    0    0 -0.91344970062E-02  0.53464726210E-03 -0.17763954173E-01  0.19982065737E-01  0.00000000000E+00 0. -1.
     999901    1    3    3    0    0  0.73196211288E-01  0.90869595450E-01  0.73129438550E-01  0.89070920255E+00  0.88000000000E+00 0.  1.
        -11    1    4    4    0    0 -0.26502084687E-01 -0.17380153975E-01 -0.36066541574E-01  0.48015484868E-01  0.51100000000E-03 0.  1.
         11    1    4    4    0    0 -0.37559629594E-01 -0.74024088737E-01 -0.19298942803E-01  0.85223246845E-01  0.51100000000E-03 0. -1.
</event>
<event>
 8    1  0.2877139E+004  0.1043930E+01  0.7957747E-01            NaN
         13   -1    0    0    0    0  0.00000000000E+00  0.00000000000E+00  0.74505805969E-08  0.10566000000E+00  0.10566000000E+00 0. -1.
     999900   -1    0    0    0    0 -0.00000000000E+00 -0.00000000000E+00 -0.74505805969E-08  0.93827000000E+00  0.93827000000E+00 0.  1.
     999902    2    1    2    0    0 -0.30103629174E-02 -0.10315371279E-01 -0.11362047774E-02  0.10331244398E+01  0.10330679300E+01 0.  0.
     999903    2    3    3    0    0  0.10463878734E+00 -0.73545623387E-01  0.45555893740E-01  0.14308704937E+00  0.45170008948E-01 0.  0.
         14    1    1    2    0    0  0.30103629174E-02  0.10315371279E-01  0.11362047774E-02  0.10805560180E-01  0.00000000000E+00 0.  1.
     999901    1    3    3    0    0 -0.10764915026E+00  0.63230252109E-01 -0.46692098518E-01  0.89003739045E+00  0.88000000000E+00 0.  1.
        -11    1    4    4    0    0  0.75771844827E-01 -0.26216979035E-01  0.28163096655E-01  0.84983078271E-01  0.51100000000E-03 0.  1.
         11    1    4    4    0    0  0.28866942511E-01 -0.47328644353E-01  0.17392797086E-01  0.58103971101E-01  0.51100000000E-03 0. -1.
</event>
<event>
 8    1  0.2877139E+004  0.1043930E+01  0.7957747E-01            NaN
         13   -1    0    0    0    0  0.00000000000E+00  0.00000000000E+00  0.74505805969E-08  0.10566000000E+00  0.10566000000E+00 0.  1.
     999900   -1    0    0    0    0 -0.00000000000E+00 -0.00000000000E+00 -0.74505805969E-08  0.93827000000E+00  0.93827000000E+00 0. -1.
     999902    2    1    2    0    0  0.20023915254E-02 -0.50541432762E-03 -0.13497398716E-01  0.10302755213E+01  0.10301850344E+01 0.  0.
     999903    2    3    3    0    0 -0.87568662567E-01  0.93982540420E-01 -0.24393907184E-01  0.14062970349E+00  0.51775112045E-01 0.  0.
         14    1    1    2    0    0 -0.20023915254E-02  0.50541432762E-03  0.13497398716E-01  0.13654478663E-01  0.00000000000E+00 0.  1.
     999901    1    3    3    0    0  0.89571054093E-01 -0.94487954747E-01  0.10896508468E-01  0.88964581785E+00  0.88000000000E+00 0. -1.
        -11    1    4    4    0    0 -0.55772729951E-01  0.68378495290E-01 -0.40049580686E-01  0.96904313931E-01  0.51100000000E-03 0.  1.
         11    1    4    4    0    0 -0.31795932616E-01  0.25604045130E-01  0.15655673502E-01  0.43725389555E-01  0.51100000000E-03 0. -1.
</event>
<event>
 8    1  0.2877139E+004  0.1043930E+01  0.7957747E-01            NaN
         13   -1    0    0    0    0  0.00000000000E+00  0.00000000000E+00  0.74505805969E-08  0.10566000000E+00  0.10566000000E+00 0. -1.
     999900   -1    0    0    0    0 -0.00000000000E+00 -0.00000000000E+00 -0.74505805969E-08  0.93827000000E+00  0.93827000000E+00 0. -1.
     999902    2    1    2    0    0  0.13522552194E-01 -0.15070597103E-02  0.12127953282E-02  0.10302697833E+01  0.10301792198E+01 0.  0.
     999903    2    3    3    0    0  0.11704948767E+00 -0.31943373782E-01 -0.51059709472E-01  0.14213881870E+00  0.53622645953E-01 0.  0.
         14    1    1    2    0    0 -0.13522552194E-01  0.15070597103E-02 -0.12127953282E-02  0.13660216664E-01  0.00000000000E+00 0. -1.
     999901    1    3    3    0    0 -0.10352693547E+00  0.30436314071E-01  0.52272504800E-01  0.88813096463E+00  0.88000000000E+00 0.  1.
        -11    1    4    4    0    0  0.85964335626E-01 -0.39587336124E-01 -0.55656912706E-01  0.10979516034E+00  0.51100000000E-03 0. -1.
         11    1    4    4    0    0  0.31085152042E-01  0.76439623421E-02  0.45972032340E-02  0.32343658363E-01  0.51100000000E-03 0.  1.
</event>
<event>
 8    1  0.2877139E+004  0.1043930E+01  0.7957747E-01            NaN
         13   -1    0    0    0    0  0.00000000000E+00  0.00000000000E+00  0.74505805969E-08  0.10566000000E+00  0.10566000000E+00 0. -1.
     999900   -1    0    0    0    0 -0.00000000000E+00 -0.00000000000E+00 -0.74505805969E-08  0.93827000000E+00  0.93827000000E+00 0.  1.
     999902    2    1    2    0    0  0.10207652774E-01 -0.10030186564E-01 -0.38712102586E-03  0.10296139014E+01  0.10295143686E+01 0.  0.
     999903    2    3    3    0    0 -0.12041084160E+00  0.23092905550E-01  0.45349124740E-01  0.13818239278E+00  0.44785907364E-01 0.  0.
         14    1    1    2    0    0 -0.10207652774E-01  0.10030186564E-01  0.38712102586E-03  0.14316098643E-01  0.00000000000E+00 0. -1.
     999901    1    3    3    0    0  0.13061849438E+00 -0.33123092114E-01 -0.45736245766E-01  0.89143150858E+00  0.88000000000E+00 0.  1.
        -11    1    4    4    0    0 -0.11272458112E+00  0.17378816608E-01  0.26593574845E-01  0.11711675286E+00  0.51100000000E-03 0.  1.
         11    1    4    4    0    0 -0.76862604804E-02  0.57140889420E-02  0.18755549895E-01  0.21065639926E-01  0.51100000000E-03 0. -1.
</event>
<event>
 8    1  0.2877139E+004  0.1043930E+01  0.7957747E-01            NaN
         13   -1    0    0    0    0  0.00000000000E+00  0.00000000000E+00  0.74505805969E-08  0.10566000000E+00  0.10566000000E+00 0.  1.
     999900   -1    0    0    0    0 -0.00000000000E+00 -0.00000000000E+00 -0.74505805969E-08  0.93827000000E+00  0.93827000000E+00 0. -1.
     999902    2    1    2    0    0  0.13349350640E-01 -0.52097550221E-03  0.19459083853E-02  0.10304295134E+01  0.10303410693E+01 0.  0.
     999903    2    3    3    0    0  0.93767356498E-01 -0.88492436505E-01  0.25537334300E-01  0.14208127711E+00  0.53960220511E-01 0.  0.
         14    1    1    2    0    0 -0.13349350640E-01  0.52097550221E-03 -0.19459083853E-02  0.13500486562E-01  0.00000000000E+00 0. -1.
     999901    1    3    3    0    0 -0.80418005858E-01  0.87971461003E-01 -0.23591425914E-01  0.88834823633E+00  0.88000000000E+00 0.  1.
        -11    1    4    4    0    0  0.34390445174E-01 -0.50070669259E-01  0.35960511271E-01  0.70591742655E-01  0.51100000000E-03 0.  1.
         11    1    4    4    0    0  0.59376911324E-01 -0.38421767246E-01 -0.10423176971E-01  0.71489534450E-01  0.51100000000E-03 0. -1.
</event>
<event>
 8    1  0.2877139E+004  0.1043930E+01  0.7957747E-01            NaN
         13   -1    0    0    0    0  0.00000000000E+00  0.00000000000E+00  0.74505805969E-08  0.10566000000E+00  0.10566000000E+00 0.  1.
     999900   -1    0    0    0    0 -0.00000000000E+00 -0.00000000000E+00 -0.74505805969E-08  0.93827000000E+00  0.93827000000E+00 0. -1.
     999902    2    1    2    0    0 -0.51333000163E-02 -0.13975468603E-01  0.58810824596E-03  0.10290299878E+01  0.10289221086E+01 0.  0.
     999903    2    3    3    0    0  0.62734305044E-01 -0.99857160950E-01 -0.61319564909E-01  0.14009003659E+00  0.44250239412E-01 0.  0.
         14    1    1    2    0    0  0.51333000163E-02  0.13975468603E-01 -0.58810824596E-03  0.14900012183E-01  0.00000000000E+00 0. -1.
     999901    1    3    3    0    0 -0.67867605060E-01  0.85881692347E-01  0.61907673155E-01  0.88893995123E+00  0.88000000000E+00 0.  1.
        -11    1    4    4    0    0  0.21134457986E-01 -0.59853806265E-01 -0.51070804923E-01  0.81471661793E-01  0.51100000000E-03 0.  1.
         11    1    4    4    0    0  0.41599847058E-01 -0.40003354685E-01 -0.10248759986E-01  0.58618374794E-01  0.51100000000E-03 0. -1.
</event>
<event>
 7    1  0.2877139E+004  0.1043930E+01  0.7957747E-01            NaN
         13   -1    0    0    0    0  0.00000000000E+00  0.00000000000E+00  0.74505805969E-08  0.10566000000E+00  0.10566000000E+00 0.  1.
     999900   -1    0    0    0    0 -0.00000000000E+00 -0.00000000000E+00 -0.74505805969E-08  0.93827000000E+00  0.93827000000E+00 0. -1.
     999902    2    1    2    0    0 -0.10129740699E-01  0.15122091204E-02 -0.79155775946E-02  0.10309857043E+01  0.10309044416E+01 0.  0.
         14    1    1    2    0    0  0.10129740699E-01 -0.15122091204E-02  0.79155775946E-02  0.12944295721E-01  0.00000000000E+00 0.  1.
     999901    1    3    3    0    0 -0.11795480943E+00  0.81171139507E-01  0.16813478369E-01  0.89173134071E+00  0.88000000000E+00 0. -1.
        -11    1    3    3    0    0  0.34702212982E-01 -0.36999139398E-01 -0.19787579514E-01  0.54451715547E-01  0.51100000000E-03 0.  1.
         11    1    3    3    0    0  0.73122855750E-01 -0.42659790988E-01 -0.49414764503E-02  0.84802648017E-01  0.51100000000E-03 0. -1.
</event>
<event>
 8    1  0.2877139E+004  0.1043930E+01  0.7957747E-01            NaN
         13   -1    0    0    0    0  0.00000000000E+00  0.00000000000E+00  0.74505805969E-08  0.10566000000E+00  0.10566000000E+00 0.  1.
     999900   -1    0    0    0    0 -0.00000000000E+00 -0.00000000000E+00 -0.74505805969E-08  0.93827000000E+00  0.93827000000E+00 0.  1.
     999902    2    1    2    0    0  0.66041280706E-02  0.73115716697E-02 -0.88086836798E-02  0.10307138547E+01  0.10306291204E+01 0.  0.
     999903    2    3    3    0    0 -0.77773587511E-02  0.12594897431E+00  0.44412060160E-01  0.14104306839E+00  0.44688752668E-01 0.  0.
         14    1    1    2    0    0 -0.66041280706E-02 -0.73115716697E-02  0.88086836798E-02  0.13216145279E-01  0.00000000000E+00 0. -1.
     999901    1    3    3    0    0  0.14381486822E-01 -0.11863740264E+00 -0.53220743840E-01  0.88967078633E+00  0.88000000000E+00 0.  1.
        -11    1    4    4    0    0 -0.24809904916E-01  0.59843240268E-01  0.29410157371E-01  0.71147475467E-01  0.51100000000E-03 0.  1.
         11    1    4    4    0    0  0.17032546165E-01  0.66105734045E-01  0.15001902789E-01  0.69895592928E-01  0.51100000000E-03 0. -1.
</event>
<event>
 8    1  0.2877139E+004  0.1043930E+01  0.7957747E-01            NaN
         13   -1    0    0    0    0  0.00000000000E+00  0.00000000000E+00  0.74505805969E-08  0.10566000000E+00  0.10566000000E+00 0.  1.
     999900   -1    0    0    0    0 -0.00000000000E+00 -0.00000000000E+00 -0.74505805969E-08  0.93827000000E+00  0.93827000000E+00 0.  1.
     999902    2    1    2    0    0  0.23826663645E-04 -0.14359288630E-01 -0.77811811269E-03  0.10295496243E+01  0.10294491895E+01 0.  0.
     999903    2    3    3    0    0  0.82930522176E-01 -0.79267407398E-01  0.67691801791E-01  0.14063190371E+00  0.45103868196E-01 0.  0.
         14    1    1    2    0    0 -0.23826663645E-04  0.14359288630E-01  0.77811811269E-03  0.14380375707E-01  0.00000000000E+00 0.  1.
     999901    1    3    3    0    0 -0.82906695512E-01  0.64908118768E-01 -0.68469919904E-01  0.88891772059E+00  0.88000000000E+00 0.  1.
        -11    1    4    4    0    0  0.52836843741E-01 -0.31605922363E-01  0.55644778523E-01  0.82989570928E-01  0.51100000000E-03 0. -1.
         11    1    4    4    0    0  0.30093678435E-01 -0.47661485034E-01  0.12047023268E-01  0.57642332777E-01  0.51100000000E-03 0.  1.
</event>
<event>
 8    1  0.2877139E+004  0.1043930E+01  0.7957747E-01            NaN
         13   -1    0    0    0    0  0.00000000000E+00  0.00000000000E+00  0.74505805969E-08  0.10566000000E+00  0.10566000000E+00 0.  1.
     999900   -1    0    0    0    0 -0.00000000000E+00 -0.00000000000E+00 -0.74505805969E-08  0.93827000000E+00  0.93827000000E+00 0.  1.
     999902    2    1    2    0    0  0.74160767891E-02 -0.48501233348E-02 -0.10529098829E-01  0.10301683208E+01  0.10300763979E+01 0.  0.
     999903    2    3    3    0    0  0.72394635017E-01 -0.27488992878E-01 -0.11005307737E+00  0.14188922407E+00  0.44991601001E-01 0.  0.
         14    1    1    2    0    0 -0.74160767891E-02  0.48501233348E-02  0.10529098829E-01  0.13761679166E-01  0.00000000000E+00 0.  1.
     999901    1    3    3    0    0 -0.64978558228E-01  0.22638869543E-01  0.99523978538E-01  0.88827909676E+00  0.88000000000E+00 0. -1.
        -11    1    4    4    0    0  0.11197481074E-01 -0.25415302615E-01 -0.27329927299E-01  0.38968028390E-01  0.51100000000E-03 0. -1.
         11    1    4    4    0    0  0.61197153944E-01 -0.20736902622E-02 -0.82723150069E-01  0.10292119568E+00  0.51100000000E-03 0.  1.
</event>
<event>
 8    1  0.2877139E+004  0.1043930E+01  0.7957747E-01            NaN
         13   -1    0    0    0    0  0.00000000000E+00  0.00000000000E+00  0.74505805969E-08  0.10566000000E+00  0.10566000000E+00 0.  1.
     999900   -1    0    0    0    0 -0.00000000000E+00 -0.00000000000E+00 -0.74505805969E-08  0.93827000000E+00  0.93827000000E+00 0.  1.
     999902    2    1    2    0    0 -0.13335555250E-01  0.10359523713E-01  0.15005758096E-01  0.10213395254E+01  0.10210896614E+01 0.  0.
     999903    2    3    3    0    0  0.69213354441E-01 -0.53728100446E-01  0.88089280179E-01  0.13214733739E+00  0.45011112927E-01 0.  0.
         14    1    1    2    0    0  0.13335555250E-01 -0.10359523713E-01 -0.15005758096E-01  0.22590474573E-01  0.00000000000E+00 0. -1.
     999901    1    3    3    0    0 -0.82548909691E-01  0.64087624159E-01 -0.73083522082E-01  0.88919218803E+00  0.88000000000E+00 0. -1.
        -11    1    4    4    0    0  0.48506423688E-01 -0.36188960965E-01  0.28973709016E-01  0.67098814966E-01  0.51100000000E-03 0.  1.
         11    1    4    4    0    0  0.20706930753E-01 -0.17539139481E-01  0.59115571163E-01  0.65048522426E-01  0.51100000000E-03 0. -1.
</event>
<event>
 8    1  0.2877139E+004  0.1043930E+01  0.7957747E-01            NaN
         13   -1    0    0    0    0  0.00000000000E+00  0.00000000000E+00  0.74505805969E-08  0.10566000000E+00  0.10566000000E+00 0.  1.
     999900   -1    0    0    0    0 -0.00000000000E+00 -0.00000000000E+00 -0.74505805969E-08  0.93827000000E+00  0.93827000000E+00 0. -1.
     999902    2    1    2    0    0 -0.13483885516E-02  0.76895911723E-02  0.12472992926E-01  0.10292152619E+01  0.10291100679E+01 0.  0.
     999903    2    3    3    0    0  0.60667837909E-01 -0.93139560305E-01 -0.67718528570E-01  0.13767546458E+00  0.44868365081E-01 0.  0.
         14    1    1    2    0    0  0.13483885516E-02 -0.76895911723E-02 -0.12472992926E-01  0.14714738075E-01  0.00000000000E+00 0. -1.
     999901    1    3    3    0    0 -0.62016226461E-01  0.10082915148E+00  0.80191521495E-01  0.89153979735E+00  0.88000000000E+00 0. -1.
        -11    1    4    4    0    0  0.30209296838E-02 -0.43891093738E-01 -0.26803353401E-01  0.51519268242E-01  0.51100000000E-03 0.  1.
         11    1    4    4    0    0  0.57646908225E-01 -0.49248466567E-01 -0.40915175169E-01  0.86156196337E-01  0.51100000000E-03 0. -1.
</event>
<event>
 8    1  0.2877139E+004  0.1043930E+01  0.7957747E-01            NaN
         13   -1    0    0    0    0  0.00000000000E+00  0.00000000000E+00  0.74505805969E-08  0.10566000000E+00  0.10566000000E+00 0.  1.
     999900   -1    0    0    0    0 -0.00000000000E+00 -0.00000000000E+00 -0.74505805969E-08  0.93827000000E+00  0.93827000000E+00 0. -1.
     999902    2    1    2    0    0 -0.16493829895E-02 -0.13847894837E-01 -0.15485953836E-03  0.10299833647E+01  0.10298889371E+01 0.  0.
     999903    2    3    3    0    0  0.24299740733E-01  0.11654885488E+00  0.53165100274E-01  0.13840067783E+00  0.46412355716E-01 0.  0.
         14    1    1    2    0    0  0.16493829895E-02  0.13847894837E-01  0.15485953836E-03  0.13946635334E-01  0.00000000000E+00 0. -1.
     999901    1    3    3    0    0 -0.25949123723E-01 -0.13039674971E+00 -0.53319959812E-01  0.89158268684E+00  0.88000000000E+00 0. -1.
        -11    1    4    4    0    0  0.11090932363E-01  0.50527062760E-01 -0.13747290070E-02  0.51750786011E-01  0.51100000000E-03 0. -1.
         11    1    4    4    0    0  0.13208808370E-01  0.66021792115E-01  0.54539829281E-01  0.86649891815E-01  0.51100000000E-03 0.  1.
</event>
<event>
 8    1  0.2877139E+004  0.1043930E+01  0.7957747E-01            NaN
         13   -1    0    0    0    0  0.00000000000E+00  0.00000000000E+00  0.74505805969E-08  0.10566000000E+00  0.10566000000E+00 0.  1.
     999900   -1    0    0    0    0 -0.00000000000E+00 -0.00000000000E+00 -0.74505805969E-08  0.93827000000E+00  0.93827000000E+00 0. -1.
     999902    2    1    2    0    0 -0.14042324698E-01 -0.44278590864E-02 -0.11395804592E-02  0.10291620799E+01  0.10290561187E+01 0.  0.
     999903    2    3    3    0    0  0.10924967915E+00 -0.72371596151E-01  0.38795635390E-02  0.13795926273E+00  0.42948420638E-01 0.  0.
         14    1    1    2    0    0  0.14042324698E-01  0.44278590864E-02  0.11395804592E-02  0.14767920051E-01  0.00000000000E+00 0. -1.
     999901    1    3    3    0    0 -0.12329200385E+00  0.67943737065E-01 -0.50191439982E-02  0.89120281722E+00  0.88000000000E+00 0. -1.
        -11    1    4    4    0    0  0.81064489096E-01 -0.50370658687E-01 -0.16416004705E-01  0.96842144650E-01  0.51100000000E-03 0. -1.
         11    1    4    4    0    0  0.28185190052E-01 -0.22000937465E-01  0.20295568244E-01  0.41117118077E-01  0.51100000000E-03 0.  1.
</event>
<event>
 8    1  0.2877139E+004  0.1043930E+01  0.7957747E-01            NaN
         13   -1    0    0    0    0  0.00000000000E+00  0.00000000000E+00  0.74505805969E-08  0.10566000000E+00  0.10566000000E+00 0. -1.
     999900   -1    0    0    0    0 -0.00000000000E+00 -0.00000000000E+00 -0.74505805969E-08  0.93827000000E+00  0.93827000000E+00 0. -1.
     999902    2    1    2    0    0 -0.86621793505E-02 -0.30811548924E-03 -0.10969500858E-01  0.10299493621E+01  0.10298544705E+01 0.  0.
     999903    2    3    3    0    0 -0.68322079242E-01 -0.20363824179E-01 -0.11387297438E+00  0.14172041643E+00  0.45111310037E-01 0.  0.
         14    1    1    2    0    0  0.86621793505E-02  0.30811548924E-03  0.10969500858E-01  0.13980637873E-01  0.00000000000E+00 0. -1.
     999901    1    3    3    0    0  0.59659899891E-01  0.20055708689E-01  0.10290347352E+00  0.88822894569E+00  0.88000000000E+00 0.  1.
        -11    1    4    4    0    0 -0.26714765886E-01 -0.29386210247E-01 -0.70649154308E-01  0.81048085693E-01  0.51100000000E-03 0.  1.
         11    1    4    4    0    0 -0.41607313356E-01  0.90223860686E-02 -0.43223820070E-01  0.60672330741E-01  0.51100000000E-03 0. -1.
</event>
<event>
 8    1  0.2877139E+004  0.1043930E+01  0.7957747E-01            NaN
         13   -1    0    0    0    0  0.00000000000E+00  0.00000000000E+00  0.74505805969E-08  0.10566000000E+00  0.10566000000E+00 0.  1.
     999900   -1    0    0    0    0 -0.00000000000E+00 -0.00000000000E+00 -0.74505805969E-08  0.93827000000E+00  0.93827000000E+00 0.  1.
     999902    2    1    2    0    0  0.12096284663E-01  0.34976359626E-02 -0.72269037948E-02  0.10294116771E+01  0.10293092924E+01 0.  0.
     999903    2    3    3    0    0  0.41966369020E-01 -0.43327268308E-01  0.11660116858E+00  0.13900829378E+00  0.45706070930E-01 0.  0.
         14    1    1    2    0    0 -0.12096284663E-01 -0.34976359626E-02  0.72269037948E-02  0.14518322852E-01  0.00000000000E+00 0.  1.
     999901    1    3    3    0    0 -0.29870084357E-01  0.46824904270E-01 -0.12382807237E+00  0.89040338336E+00  0.88000000000E+00 0.  1.
        -11    1    4    4    0    0  0.14876208454E-02 -0.23474174225E-01  0.71349629674E-01  0.75128427688E-01  0.51100000000E-03 0.  1.
         11    1    4    4    0    0  0.40478748174E-01 -0.19853094082E-01  0.45251538902E-01  0.63879866096E-01  0.51100000000E-03 0. -1.
</event>
<event>
 8    1  0.2877139E+004  0.1043930E+01  0.7957747E-01            NaN
         13   -1    0    0    0    0  0.00000000000E+00  0.00000000000E+00  0.74505805969E-08  0.10566000000E+00  0.10566000000E+00 0.  1.
     999900   -1    0    0    0    0 -0.00000000000E+00 -0.00000000000E+00 -0.74505805969E-08  0.93827000000E+00  0.93827000000E+00 0.  1.
     999902    2    1    2    0    0 -0.53956398853E-03  0.14144320426E-01 -0.17746392107E-02  0.10296645777E+01  0.10295657532E+01 0.  0.
     999903    2    3    3    0    0 -0.11215622773E+00  0.55091567441E-01  0.45215920278E-01  0.14042722503E+00  0.45400725352E-01 0.  0.
         14    1    1    2    0    0  0.53956398853E-03 -0.14144320426E-01  0.17746392107E-02  0.14265422319E-01  0.00000000000E+00 0. -1.
     999901    1    3    3    0    0  0.11161666374E+00 -0.40947247015E-01 -0.46990559489E-01  0.88923735265E+00  0.88000000000E+00 0.  1.
        -11    1    4    4    0    0 -0.27425979941E-01  0.23417794325E-01 -0.58679942826E-02  0.36541373054E-01  0.51100000000E-03 0. -1.
         11    1    4    4    0    0 -0.84730247787E-01  0.31673773116E-01  0.51083914561E-01  0.10388585198E+00  0.51100000000E-03 0.  1.
</event>
<event>
 8    1  0.2877139E+004  0.1043930E+01  0.7957747E-01            NaN
         13   -1    0    0    0    0  0.00000000000E+00  0.00000000000E+00  0.74505805969E-08  0.10566000000E+00  0.10566000000E+00 0.  1.
     999900   -1    0    0    0    0 -0.00000000000E+00 -0.00000000000E+00 -0.74505805969E-08  0.93827000000E+00  0.93827000000E+00 0. -1.
     999902    2    1    2    0    0  0.35867099673E-02  0.54801487307E-02 -0.13703671758E-01  0.10287416117E+01  0.10286294846E+01 0.  0.
     999903    2    3    3    0    0 -0.49306178129E-01 -0.11083226199E+00 -0.49104750848E-01  0.13880932729E+00  0.46280268867E-01 0.  0.
         14    1    1    2    0    0 -0.35867099673E-02 -0.54801487307E-02  0.13703671758E-01  0.15188388267E-01  0.00000000000E+00 0.  1.
     999901    1    3    3    0    0  0.52892888096E-01  0.11631241072E+00  0.35401079091E-01  0.88993228445E+00  0.88000000000E+00 0. -1.
        -11    1    4    4    0    0 -0.38545432669E-01 -0.32776722286E-01 -0.24801479618E-01  0.56351028523E-01  0.51100000000E-03 0. -1.
         11    1    4    4    0    0 -0.10760745460E-01 -0.78055539705E-01 -0.24303271230E-01  0.82458298763E-01  0.51100000000E-03 0.  1.
</event>
<event>
 8    1  0.2877139E+004  0.1043930E+01  0.7957747E-01            NaN
         13   -1    0    0    0    0  0.00000000000E+00  0.00000000000E+00  0.74505805969E-08  0.10566000000E+00  0.10566000000E+00 0. -1.
     999900   -1    0    0    0    0 -0.00000000000E+00 -0.00000000000E+00 -0.74505805969E-08  0.93827000000E+00  0.93827000000E+00 0. -1.
     999902    2    1    2    0    0 -0.12049981518E-01  0.41552959144E-02  0.18830943823E-02  0.10310453353E+01  0.10309648243E+01 0.  0.
     999903    2    3    3    0    0 -0.11825719617E+00  0.29558773857E-01 -0.57962987075E-01  0.14227828904E+00  0.44999090040E-01 0.  0.
         14    1    1    2    0    0  0.12049981518E-01 -0.41552959144E-02 -0.18830943823E-02  0.12884664651E-01  0.00000000000E+00 0.  1.
     999901    1    3    3    0    0  0.10620721465E+00 -0.25403477943E-01  0.59846081458E-01  0.88876704631E+00  0.88000000000E+00 0.  1.
        -11    1    4    4    0    0 -0.34019920985E-01  0.25219536148E-02 -0.38964608837E-01  0.51790125861E-01  0.51100000000E-03 0.  1.
         11    1    4    4    0    0 -0.84237275183E-01  0.27036820242E-01 -0.18998378238E-01  0.90488163181E-01  0.51100000000E-03 0. -1.
</event>
<event>
 8    1  0.2877139E+004  0.1043930E+01  0.7957747E-01            NaN
         13   -1    0    0    0    0  0.00000000000E+00  0.00000000000E+00  0.74505805969E-08  0.10566000000E+00  0.10566000000E+00 0. -1.
     999900   -1    0    0    0    0 -0.00000000000E+00 -0.00000000000E+00 -0.74505805969E-08  0.93827000000E+00  0.93827000000E+00 0.  1.
     999902    2    1    2    0    0  0.12534293012E-01 -0.87576048272E-02  0.63164631042E-02  0.10273860631E+01  0.10272528514E+01 0.  0.
     999903    2    3    3    0    0  0.12191907479E+00 -0.46906150292E-01 -0.21556372192E-01  0.13935608780E+00  0.43485564166E-01 0.  0.
         14    1    1    2    0    0 -0.12534293012E-01  0.87576048272E-02 -0.63164631042E-02  0.16543936949E-01  0.00000000000E+00 0.  1.
     999901    1    3    3    0    0 -0.10938478178E+00  0.38148545465E-01  0.27872835296E-01  0.88802997526E+00  0.88000000000E+00 0. -1.
        -11    1    4    4    0    0  0.74098951129E-01 -0.55081752808E-02 -0.14561044117E-01  0.75718423650E-01  0.51100000000E-03 0.  1.
         11    1    4    4    0    0  0.47820123660E-01 -0.41397975011E-01 -0.69953280742E-02  0.63637664145E-01  0.51100000000E-03 0. -1.
</event>
<event>
 8    1  0.2877139E+004  0.1043930E+01  0.7957747E-01            NaN
         13   -1    0    0    0    0  0.00000000000E+00  0.00000000000E+00  0.74505805969E-08  0.10566000000E+00  0.10566000000E+00 0.  1.
     999900   -1    0    0    0    0 -0.00000000000E+00 -0.00000000000E+00 -0.74505805969E-08  0.93827000000E+00  0.93827000000E+00 0. -1.
     999902    2    1    2    0    0 -0.45821031240E-02  0.11183180244E-01  0.78751574359E-02  0.10295051155E+01  0.10294040535E+01 0.  0.
     999903    2    3    3    0    0 -0.23192159617E-01  0.89155146635E-01  0.99425217283E-01  0.14113167191E+00  0.39322494133E-01 0.  0.
         14    1    1    2    0    0  0.45821031240E-02 -0.11183180244E-01 -0.78751574359E-02  0.14424884542E-01  0.00000000000E+00 0. -1.
     999901    1    3    3    0    0  0.18610056493E-01 -0.77971966391E-01 -0.91550059847E-01  0.88837344355E+00  0.88000000000E+00 0. -1.
        -11    1    4    4    0    0 -0.33925080989E-01  0.57887974708E-01  0.67153817032E-01  0.94930632563E-01  0.51100000000E-03 0. -1.
         11    1    4    4    0    0  0.10732921371E-01  0.31267171927E-01  0.32271400251E-01  0.46201039346E-01  0.51100000000E-03 0.  1.
</event>
<event>
 8    1  0.2877139E+004  0.1043930E+01  0.7957747E-01            NaN
         13   -1    0    0    0    0  0.00000000000E+00  0.00000000000E+00  0.74505805969E-08  0.10566000000E+00  0.10566000000E+00 0. -1.
     999900   -1    0    0    0    0 -0.00000000000E+00 -0.00000000000E+00 -0.74505805969E-08  0.93827000000E+00  0.93827000000E+00 0. -1.
     999902    2    1    2    0    0 -0.83093368092E-02  0.98555193958E-03  0.11929101123E-01  0.10293588009E+01  0.10292556636E+01 0.  0.
     999903    2    3    3    0    0 -0.30072874604E-01 -0.44083048712E-01 -0.11856973153E+00  0.13832862423E+00  0.47205233546E-01 0.  0.
         14    1    1    2    0    0  0.83093368092E-02 -0.98555193958E-03 -0.11929101123E-01  0.14571199142E-01  0.00000000000E+00 0.  1.
     999901    1    3    3    0    0  0.21763537794E-01  0.45068600651E-01  0.13049883266E+00  0.89103017663E+00  0.88000000000E+00 0.  1.
        -11    1    4    4    0    0  0.11234526059E-01 -0.11523190691E-01 -0.14264471743E-01  0.21511270873E-01  0.51100000000E-03 0.  1.
         11    1    4    4    0    0 -0.41307400662E-01 -0.32559858020E-01 -0.10430525979E+00  0.11681735335E+00  0.51100000000E-03 0. -1.
</event>
<event>
 8    1  0.2877139E+004  0.1043930E+01  0.7957747E-01            NaN
         13   -1    0    0    0    0  0.00000000000E+00  0.00000000000E+00  0.74505805969E-08  0.10566000000E+00  0.10566000000E+00 0.  1.
     999900   -1    0    0    0    0 -0.00000000000E+00 -0.00000000000E+00 -0.74505805969E-08  0.93827000000E+00  0.93827000000E+00 0. -1.
     999902    2    1    2    0    0 -0.36954952209E-02  0.12311122789E-01  0.15277794093E-01  0.10239642438E+01  0.10237695742E+01 0.  0.
     999903    2    3    3    0    0 -0.87169306900E-02 -0.11521503318E+00 -0.47386889692E-01  0.13255244339E+00  0.44431342357E-01 0.  0.
         14    1    1    2    0    0  0.36954952209E-02 -0.12311122789E-01 -0.15277794093E-01  0.19965756224E-01  0.00000000000E+00 0. -1.
     999901    1    3    3    0    0  0.50214354692E-02  0.12752615597E+00  0.62664683786E-01  0.89141180038E+00  0.88000000000E+00 0. -1.
        -11    1    4    4    0    0  0.91971403690E-03 -0.86557124295E-03 -0.12552135915E-01  0.12625859358E-01  0.51100000000E-03 0.  1.
         11    1    4    4    0    0 -0.96366447269E-02 -0.11434946193E+00 -0.34834753777E-01  0.11992658403E+00  0.51100000000E-03 0. -1.
</event>
<event>
 8    1  0.2877139E+004  0.1043930E+01  0.7957747E-01            NaN
         13   -1    0    0    0    0  0.00000000000E+00  0.00000000000E+00  0.74505805969E-08  0.10566000000E+00  0.10566000000E+00 0.  1.
     999900   -1    0    0    0    0 -0.00000000000E+00 -0.00000000000E+00 -0.74505805969E-08  0.93827000000E+00  0.93827000000E+00 0.  1.
     999902    2    1    2    0    0  0.11212786105E-01  0.96995286621E-02 -0.52261061684E-02  0.10282099614E+01  0.10280897845E+01 0.  0.
     999903    2    3    3    0    0 -0.12900689654E+00 -0.61542906068E-03 -0.10863024931E-01  0.13703111704E+00  0.44903937675E-01 0.  0.
         14    1    1    2    0    0 -0.11212786105E-01 -0.96995286621E-02  0.52261061684E-02  0.15720038619E-01  0.00000000000E+00 0. -1.
     999901    1    3    3    0    0  0.14021968264E+00  0.10314957723E-01  0.56369187626E-02  0.89117884434E+00  0.88000000000E+00 0.  1.
        -11    1    4    4    0    0 -0.46909071497E-01  0.21357970251E-01 -0.61639416575E-02  0.51912225724E-01  0.51100000000E-03 0. -1.
         11    1    4    4    0    0 -0.82097825040E-01 -0.21973399311E-01 -0.46990832734E-02  0.85118891312E-01  0.51100000000E-03 0.  1.
</event>
<event>
 8    1  0.2877139E+004  0.1043930E+01  0.7957747E-01            NaN
         13   -1    0    0    0    0  0.00000000000E+00  0.00000000000E+00  0.74505805969E-08  0.10566000000E+00  0.10566000000E+00 0. -1.
     999900   -1    0    0    0    0 -0.00000000000E+00 -0.00000000000E+00 -0.74505805969E-08  0.93827000000E+00  0.93827000000E+00 0. -1.
     999902    2    1    2    0    0 -0.12733817598E-01  0.38502256275E-02  0.36771239350E-02  0.10301279861E+01  0.10300355198E+01 0.  0.
     999903    2    3    3    0    0  0.75180125355E-01  0.10465565847E+00  0.29499390503E-01  0.13964643876E+00  0.45011728697E-01 0.  0.
         14    1    1    2    0    0  0.12733817598E-01 -0.38502256275E-02 -0.36771239350E-02  0.13802013927E-01  0.00000000000E+00 0.  1.
     999901    1    3    3    0    0 -0.87913942953E-01 -0.10080543284E+00 -0.25822266568E-01  0.89048154731E+00  0.88000000000E+00 0.  1.
        -11    1    4    4    0    0  0.36010315607E-01  0.47518086504E-01  0.36673532370E-01  0.69999431945E-01  0.51100000000E-03 0. -1.
         11    1    4    4    0    0  0.39169809748E-01  0.57137571964E-01 -0.71741418673E-02  0.69647006814E-01  0.51100000000E-03 0.  1.
</event>
<event>
 8    1  0.2877139E+004  0.1043930E+01  0.7957747E-01            NaN
         13   -1    0    0    0    0  0.00000000000E+00  0.00000000000E+00  0.74505805969E-08  0.10566000000E+00  0.10566000000E+00 0.  1.
     999900   -1    0    0    0    0 -0.00000000000E+00 -0.00000000000E+00 -0.74505805969E-08  0.93827000000E+00  0.93827000000E+00 0. -1.
     999902    2    1    2    0    0  0.35318173297E-02  0.45597729766E-02  0.13361129251E-01  0.10293771639E+01  0.10292742883E+01 0.  0.
     999903    2    3    3    0    0 -0.90595617088E-01 -0.59789192567E-01  0.77040873188E-01  0.13973910658E+00  0.42537141206E-01 0.  0.
         14    1    1    2    0    0 -0.35318173297E-02 -0.45597729766E-02 -0.13361129251E-01  0.14552836084E-01  0.00000000000E+00 0. -1.
     999901    1    3    3    0    0  0.94127434418E-01  0.64348965544E-01 -0.63679743937E-01  0.88963805734E+00  0.88000000000E+00 0. -1.
        -11    1    4    4    0    0 -0.17997251034E-01 -0.99458495075E-02  0.38419381010E-01  0.43579019326E-01  0.51100000000E-03 0.  1.
         11    1    4    4    0    0 -0.72598366055E-01 -0.49843343059E-01  0.38621492178E-01  0.96160087251E-01  0.51100000000E-03 0. -1.
</event>
<event>
 8    1  0.2877139E+004  0.1043930E+01  0.7957747E-01            NaN
         13   -1    0    0    0    0  0.00000000000E+00  0.00000000000E+00  0.74505805969E-08  0.10566000000E+00  0.10566000000E+00 0. -1.
     999900   -1    0    0    0    0 -0.00000000000E+00 -0.00000000000E+00 -0.74505805969E-08  0.93827000000E+00  0.93827000000E+00 0.  1.
     999902    2    1    2    0    0  0.88151843985E-02  0.95100473108E-02 -0.40416651528E-02  0.10303475285E+01  0.10302579997E+01 0.  0.
     999903    2    3    3    0    0  0.94047345741E-01 -0.93970739625E-01  0.17018896770E-02  0.14017575683E+00  0.44395306369E-01 0.  0.
         14    1    1    2    0    0 -0.88151843985E-02 -0.95100473108E-02  0.40416651528E-02  0.13582471537E-01  0.00000000000E+00 0. -1.
     999901    1    3    3    0    0 -0.85232161342E-01  0.10348078694E+00 -0.57435548298E-02  0.89017177163E+00  0.88000000000E+00 0. -1.
        -11    1    4    4    0    0  0.67741782189E-01 -0.41081133407E-01  0.12252435730E-01  0.80168521743E-01  0.51100000000E-03 0.  1.
         11    1    4    4    0    0  0.26305563552E-01 -0.52889606218E-01 -0.10550546053E-01  0.60007235086E-01  0.51100000000E-03 0. -1.
</event>
<event>
 8    1  0.2877139E+004  0.1043930E+01  0.7957747E-01            NaN
         13   -1    0    0    0    0  0.00000000000E+00  0.00000000000E+00  0.74505805969E-08  0.10566000000E+00  0.10566000000E+00 0.  1.
     999900   -1    0    0    0    0 -0.00000000000E+00 -0.00000000000E+00 -0.74505805969E-08  0.93827000000E+00  0.93827000000E+00 0.  1.
     999902    2    1    2    0    0  0.57681929347E-02  0.87006667930E-02  0.83668672352E-02  0.10305517296E+01  0.10304648898E+01 0.  0.
     999903    2    3    3    0    0  0.12942842417E-01 -0.13136936619E+00  0.95936787373E-03  0.13941427621E+00  0.44832939690E-01 0.  0.
         14    1    1    2    0    0 -0.57681929347E-02 -0.87006667930E-02 -0.83668672352E-02  0.13378270430E-01  0.00000000000E+00 0.  1.
     999901    1    3    3    0    0 -0.71746494823E-02  0.14007003298E+00  0.74074993614E-02  0.89113745336E+00  0.88000000000E+00 0. -1.
        -11    1    4    4    0    0  0.17791896195E-01 -0.12052809647E+00  0.12960172810E-01  0.12252265426E+00  0.51100000000E-03 0.  1.
         11    1    4    4    0    0 -0.48490537785E-02 -0.10841269724E-01 -0.12000804937E-01  0.16891621944E-01  0.51100000000E-03 0. -1.
</event>
<event>
 8    1  0.2877139E+004  0.1043930E+01  0.7957747E-01            NaN
         13   -1    0    0    0    0  0.00000000000E+00  0.00000000000E+00  0.74505805969E-08  0.10566000000E+00  0.10566000000E+00 0.  1.
     999900   -1    0    0    0    0 -0.00000000000E+00 -0.00000000000E+00 -0.74505805969E-08  0.93827000000E+00  0.93827000000E+00 0. -1.
     999902    2    1    2    0    0 -0.61982968672E-02  0.14487168066E-02  0.85774434088E-02  0.10332486986E+01  0.10331934877E+01 0.  0.
     999903    2    3    3    0    0  0.12775023787E+00  0.40255958236E-02  0.44288450827E-01  0.14239285934E+00  0.44473934143E-01 0.  0.
         14    1    1    2    0    0  0.61982968672E-02 -0.14487168066E-02 -0.85774434088E-02  0.10681301413E-01  0.00000000000E+00 0. -1.
     999901    1    3    3    0    0 -0.13394853474E+00 -0.25768790170E-02 -0.35711007418E-01  0.89085583924E+00  0.88000000000E+00 0. -1.
        -11    1    4    4    0    0  0.42411580808E-01  0.17718764540E-01  0.16020417016E-02  0.45994830819E-01  0.51100000000E-03 0. -1.
         11    1    4    4    0    0  0.85338657061E-01 -0.13693168717E-01  0.42686409126E-01  0.96398028525E-01  0.51100000000E-03 0.  1.
</event>
<event>
 8    1  0.2877139E+004  0.1043930E+01  0.7957747E-01            NaN
         13   -1    0    0    0    0  0.00000000000E+00  0.00000000000E+00  0.74505805969E-08  0.10566000000E+00  0.10566000000E+00 0.  1.
     999900   -1    0    0    0    0 -0.00000000000E+00 -0.00000000000E+00 -0.74505805969E-08  0.93827000000E+00  0.93827000000E+00 0.  1.
     999902    2    1    2    0    0  0.88741867809E-02 -0.66075151713E-03 -0.10997291522E-01  0.10297833324E+01  0.10296861578E+01 0.  0.
     999903    2    3    3    0    0 -0.18391399415E-01  0.34216657698E-01 -0.12774241822E+00  0.14096992651E+00  0.45225783924E-01 0.  0.
         14    1    1    2    0    0 -0.88741867809E-02  0.66075151713E-03  0.10997291522E-01  0.14146667608E-01  0.00000000000E+00 0.  1.
     999901    1    3    3    0    0  0.27265586196E-01 -0.34877409216E-01  0.11674512670E+00  0.88881340588E+00  0.88000000000E+00 0. -1.
        -11    1    4    4    0    0  0.14989333308E-01  0.11232467587E-01 -0.47750963332E-01  0.51295848383E-01  0.51100000000E-03 0.  1.
         11    1    4    4    0    0 -0.33380732724E-01  0.22984190112E-01 -0.79991454888E-01  0.89674078130E-01  0.51100000000E-03 0. -1.
</event>
<event>
 8    1  0.2877139E+004  0.1043930E+01  0.7957747E-01            NaN
         13   -1    0    0    0    0  0.00000000000E+00  0.00000000000E+00  0.74505805969E-08  0.10566000000E+00  0.10566000000E+00 0. -1.
     999900   -1    0    0    0    0 -0.00000000000E+00 -0.00000000000E+00 -0.74505805969E-08  0.93827000000E+00  0.93827000000E+00 0.  1.
     999902    2    1    2    0    0 -0.96458420798E-02  0.19174791460E-03  0.13347862774E-01  0.10274604986E+01  0.10273284926E+01 0.  0.
     999903    2    3    3    0    0 -0.10382023420E+00 -0.46008044872E-01  0.66442430096E-01  0.13964167130E+00  0.46795497902E-01 0.  0.
         14    1    1    2    0    0  0.96458420798E-02 -0.19174791460E-03 -0.13347862774E-01  0.16469501429E-01  0.00000000000E+00 0.  1.
     999901    1    3    3    0    0  0.94174392117E-01  0.46199792787E-01 -0.53094567322E-01  0.88781882727E+00  0.88000000000E+00 0.  1.
        -11    1    4    4    0    0 -0.61472327482E-01 -0.45265901123E-01  0.24868031438E-01  0.80290279357E-01  0.51100000000E-03 0. -1.
         11    1    4    4    0    0 -0.42347906714E-01 -0.74214374912E-03  0.41574398658E-01  0.59351391940E-01  0.51100000000E-03 0.  1.
</event>
<event>
 8    1  0.2877139E+004  0.1043930E+01  0.7957747E-01            NaN
         13   -1    0    0    0    0  0.00000000000E+00  0.00000000000E+00  0.74505805969E-08  0.10566000000E+00  0.10566000000E+00 0.  1.
     999900   -1    0    0    0    0 -0.00000000000E+00 -0.00000000000E+00 -0.74505805969E-08  0.93827000000E+00  0.93827000000E+00 0.  1.
     999902    2    1    2    0    0  0.18308205158E-01 -0.69771453499E-02 -0.27708165260E-02  0.10241424191E+01  0.10239512421E+01 0.  0.
     999903    2    3    3    0    0  0.86672784518E-01  0.72220904040E-01  0.60728949774E-01  0.13567279832E+00  0.44621433278E-01 0.  0.
         14    1    1    2    0    0 -0.18308205158E-01  0.69771453499E-02  0.27708165260E-02  0.19787580892E-01  0.00000000000E+00 0. -1.
     999901    1    3    3    0    0 -0.68364579360E-01 -0.79198049390E-01 -0.63499766300E-01  0.88846962079E+00  0.88000000000E+00 0.  1.
        -11    1    4    4    0    0  0.40076153411E-01  0.58215778118E-01  0.47804559293E-01  0.85327087753E-01  0.51100000000E-03 0. -1.
         11    1    4    4    0    0  0.46596631106E-01  0.14005125922E-01  0.12924390481E-01  0.50345710570E-01  0.51100000000E-03 0.  1.
</event>
<event>
 8    1  0.2877139E+004  0.1043930E+01  0.7957747E-01            NaN
         13   -1    0    0    0    0  0.00000000000E+00  0.00000000000E+00  0.74505805969E-08  0.10566000000E+00  0.10566000000E+00 0.  1.
     999900   -1    0    0    0    0 -0.00000000000E+00 -0.00000000000E+00 -0.74505805969E-08  0.93827000000E+00  0.93827000000E+00 0.  1.
     999902    2    1    2    0    0 -0.59228454771E-02 -0.15804857676E-03 -0.10006403506E-01  0.10323010194E+01  0.10322355165E+01 0.  0.
     999903    2    3    3    0    0 -0.85669820109E-01 -0.31873748044E-01  0.98379791033E-01  0.14150753454E+00  0.44615525964E-01 0.  0.
         14    1    1    2    0    0  0.59228454771E-02  0.15804857676E-03  0.10006403506E-01  0.11628980567E-01  0.00000000000E+00 0.  1.
     999901    1    3    3    0    0  0.79746974632E-01  0.31715699467E-01 -0.10838619454E+00  0.89079348489E+00  0.88000000000E+00 0.  1.
        -11    1    4    4    0    0 -0.52897388556E-01  0.24416048851E-02  0.63096124339E-01  0.82374007903E-01  0.51100000000E-03 0.  1.
         11    1    4    4    0    0 -0.32772431553E-01 -0.34315352929E-01  0.35283666694E-01  0.59133526640E-01  0.51100000000E-03 0. -1.
</event>
<event>
 8    1  0.2877139E+004  0.1043930E+01  0.7957747E-01            NaN
         13   -1    0    0    0    0  0.00000000000E+00  0.00000000000E+00  0.74505805969E-08  0.10566000000E+00  0.10566000000E+00 0. -1.
     999900   -1    0    0    0    0 -0.00000000000E+00 -0.00000000000E+00 -0.74505805969E-08  0.93827000000E+00  0.93827000000E+00 0. -1.
     999902    2    1    2    0    0  0.73594288965E-02 -0.20946469543E-02 -0.11689856379E-01  0.10299585476E+01  0.10298637814E+01 0.  0.
     999903    2    3    3    0    0 -0.83798819333E-01  0.53563449972E-01 -0.88399150607E-01  0.14018780984E+00  0.44123994679E-01 0.  0.
         14    1    1    2    0    0 -0.73594288965E-02  0.20946469543E-02  0.11689856379E-01  0.13971452384E-01  0.00000000000E+00 0. -1.
     999901    1    3    3    0    0  0.91158248230E-01 -0.55658096926E-01  0.76709294227E-01  0.88977073777E+00  0.88000000000E+00 0.  1.
        -11    1    4    4    0    0 -0.46586531800E-01  0.19509974943E-01 -0.18083311782E-01  0.53648964142E-01  0.51100000000E-03 0.  1.
         11    1    4    4    0    0 -0.37212287533E-01  0.34053475029E-01 -0.70315838825E-01  0.86538845703E-01  0.51100000000E-03 0. -1.
</event>
<event>
 8    1  0.2877139E+004  0.1043930E+01  0.7957747E-01            NaN
         13   -1    0    0    0    0  0.00000000000E+00  0.00000000000E+00  0.74505805969E-08  0.10566000000E+00  0.10566000000E+00 0.  1.
     999900   -1    0    0    0    0 -0.00000000000E+00 -0.00000000000E+00 -0.74505805969E-08  0.93827000000E+00  0.93827000000E+00 0.  1.
     999902    2    1    2    0    0  0.37224280065E-02  0.11250392955E-01  0.75902382053E-02  0.10298573482E+01  0.10297611947E+01 0.  0.
     999903    2    3    3    0    0  0.45453954737E-01  0.57814776511E-01 -0.10960997599E+00  0.13988788114E+00  0.46321291762E-01 0.  0.
         14    1    1    2    0    0 -0.37224280065E-02 -0.11250392955E-01 -0.75902382053E-02  0.14072651773E-01  0.00000000000E+00 0. -1.
     999901    1    3    3    0    0 -0.41731526731E-01 -0.46564383556E-01  0.11720021419E+00  0.88996946709E+00  0.88000000000E+00 0. -1.
        -11    1    4    4    0    0  0.83825770325E-02  0.61303385202E-02 -0.55241064834E-01  0.56211075538E-01  0.51100000000E-03 0.  1.
         11    1    4    4    0    0  0.37071377704E-01  0.51684437991E-01 -0.54368911151E-01  0.83676805604E-01  0.51100000000E-03 0. -1.
</event>
<event>
 7    1  0.2877139E+004  0.1043930E+01  0.7957747E-01            NaN
         13   -1    0    0    0    0  0.00000000000E+00  0.00000000000E+00  0.74505805969E-08  0.10566000000E+00  0.10566000000E+00 0. -1.
     999900   -1    0    0    0    0 -0.00000000000E+00 -0.00000000000E+00 -0.74505805969E-08  0.93827000000E+00  0.93827000000E+00 0.  1.
     999903    2    1    2    0    0 -0.52372314904E-01  0.89752023818E-01  0.15955191594E-01  0.11455529782E+00  0.45497944710E-01 0.  0.
         14    1    1    2    0    0  0.25732442806E-01  0.84245837464E-02  0.32365200936E-01  0.42197611967E-01  0.00000000000E+00 0. -1.
     999901    1    1    2    0    0  0.26639872099E-01 -0.98176607565E-01 -0.48320392530E-01  0.88717709021E+00  0.88000000000E+00 0.  1.
        -11    1    3    3    0    0 -0.18331998634E-01  0.28727088879E-01  0.27419398148E-01  0.43742340189E-01  0.51100000000E-03 0.  1.
         11    1    3    3    0    0 -0.34040316270E-01  0.61024934939E-01 -0.11464206554E-01  0.70812957635E-01  0.51100000000E-03 0. -1.
</event>
<event>
 8    1  0.2877139E+004  0.1043930E+01  0.7957747E-01            NaN
         13   -1    0    0    0    0  0.00000000000E+00  0.00000000000E+00  0.74505805969E-08  0.10566000000E+00  0.10566000000E+00 0.  1.
     999900   -1    0    0    0    0 -0.00000000000E+00 -0.00000000000E+00 -0.74505805969E-08  0.93827000000E+00  0.93827000000E+00 0.  1.
     999902    2    1    2    0    0  0.13955585457E-02 -0.14882048805E-01 -0.35096557491E-02  0.10285761522E+01  0.10284615501E+01 0.  0.
     999903    2    3    3    0    0 -0.10354875207E+00 -0.14089555832E-01 -0.79089950046E-01  0.13912333313E+00  0.46682137753E-01 0.  0.
         14    1    1    2    0    0 -0.13955585457E-02  0.14882048805E-01  0.35096557491E-02  0.15353847849E-01  0.00000000000E+00 0. -1.
     999901    1    3    3    0    0  0.10494431061E+00 -0.79249297314E-03  0.75580294297E-01  0.88945281902E+00  0.88000000000E+00 0. -1.
        -11    1    4    4    0    0 -0.27066557554E-01  0.16411051346E-01 -0.16534713680E-01  0.35715249146E-01  0.51100000000E-03 0. -1.
         11    1    4    4    0    0 -0.76482194514E-01 -0.30500607177E-01 -0.62555236366E-01  0.10340808399E+00  0.51100000000E-03 0.  1.
</event>
<event>
 8    1  0.2877139E+004  0.1043930E+01  0.7957747E-01            NaN
         13   -1    0    0    0    0  0.00000000000E+00  0.00000000000E+00  0.74505805969E-08  0.10566000000E+00  0.10566000000E+00 0.  1.
     999900   -1    0    0    0    0 -0.00000000000E+00 -0.00000000000E+00 -0.74505805969E-08  0.93827000000E+00  0.93827000000E+00 0. -1.
     999902    2    1    2    0    0 -0.50857410381E-02 -0.41841922627E-02 -0.13272690372E-01  0.10291132346E+01  0.10290065661E+01 0.  0.
     999903    2    3    3    0    0 -0.10672654795E+00  0.38241628980E-01  0.65959760466E-01  0.13871524203E+00  0.45146983788E-01 0.  0.
         14    1    1    2    0    0  0.50857410381E-02  0.41841922627E-02  0.13272690372E-01  0.14816765386E-01  0.00000000000E+00 0.  1.
     999901    1    3    3    0    0  0.10164080691E+00 -0.42425821243E-01 -0.79232450837E-01  0.89039799259E+00  0.88000000000E+00 0. -1.
        -11    1    4    4    0    0 -0.43756148723E-01  0.13580739743E-02  0.58518938391E-02  0.44169567561E-01  0.51100000000E-03 0.  1.
         11    1    4    4    0    0 -0.62970399228E-01  0.36883555006E-01  0.60107866627E-01  0.94545674466E-01  0.51100000000E-03 0. -1.
</event>
<event>
 7    1  0.2877139E+004  0.1043930E+01  0.7957747E-01            NaN
         13   -1    0    0    0    0  0.00000000000E+00  0.00000000000E+00  0.74505805969E-08  0.10566000000E+00  0.10566000000E+00 0.  1.
     999900   -1    0    0    0    0 -0.00000000000E+00 -0.00000000000E+00 -0.74505805969E-08  0.93827000000E+00  0.93827000000E+00 0. -1.
     999903    2    1    2    0    0 -0.15917391733E-01  0.41860142868E-01  0.10015279305E+00  0.11838971610E+00  0.44496157151E-01 0.  0.
         14    1    1    2    0    0 -0.13806073252E-01  0.26141031887E-01  0.17902016671E-01  0.34560720589E-01  0.00000000000E+00 0.  1.
     999901    1    1    2    0    0  0.29723464985E-01 -0.68001174755E-01 -0.11805480972E+00  0.89097956331E+00  0.88000000000E+00 0. -1.
        -11    1    3    3    0    0  0.14308779925E-02  0.43220861146E-01  0.54795223503E-01  0.69805930190E-01  0.51100000000E-03 0.  1.
         11    1    3    3    0    0 -0.17348269725E-01 -0.13607182780E-02  0.45357569551E-01  0.48583785909E-01  0.51100000000E-03 0. -1.
</event>
<event>
 8    1  0.2877139E+004  0.1043930E+01  0.7957747E-01            NaN
         13   -1    0    0    0    0  0.00000000000E+00  0.00000000000E+00  0.74505805969E-08  0.10566000000E+00  0.10566000000E+00 0. -1.
     999900   -1    0    0    0    0 -0.00000000000E+00 -0.00000000000E+00 -0.74505805969E-08  0.93827000000E+00  0.93827000000E+00 0. -1.
     999902    2    1    2    0    0  0.14112257936E-01 -0.56667606269E-02  0.16889070455E-02  0.10286290063E+01  0.10285151979E+01 0.  0.
     999903    2    3    3    0    0 -0.48953974853E-01 -0.11751179461E+00 -0.31395394314E-01  0.13869573224E+00  0.45225234462E-01 0.  0.
         14    1    1    2    0    0 -0.14112257936E-01  0.56667606269E-02 -0.16889070455E-02  0.15300993663E-01  0.00000000000E+00 0. -1.
     999901    1    3    3    0    0  0.63066232789E-01  0.11184503398E+00  0.33084301359E-01  0.88993327409E+00  0.88000000000E+00 0.  1.
        -11    1    4    4    0    0 -0.18726428510E-01 -0.68352359244E-01  0.40150900627E-02  0.70986662185E-01  0.51100000000E-03 0.  1.
         11    1    4    4    0    0 -0.30227546343E-01 -0.49159435365E-01 -0.35410484377E-01  0.67709070058E-01  0.51100000000E-03 0. -1.
</event>
<event>
 8    1  0.2877139E+004  0.1043930E+01  0.7957747E-01            NaN
         13   -1    0    0    0    0  0.00000000000E+00  0.00000000000E+00  0.74505805969E-08  0.10566000000E+00  0.10566000000E+00 0.  1.
     999900   -1    0    0    0    0 -0.00000000000E+00 -0.00000000000E+00 -0.74505805969E-08  0.93827000000E+00  0.93827000000E+00 0. -1.
     999902    2    1    2    0    0  0.10385367862E-01  0.80426845334E-02 -0.53281567895E-02  0.10297550258E+01  0.10296574591E+01 0.  0.
     999903    2    3    3    0    0 -0.95104321749E-02 -0.11570816191E+00 -0.61876375683E-01  0.13907673596E+00  0.45109040815E-01 0.  0.
         14    1    1    2    0    0 -0.10385367862E-01 -0.80426845334E-02  0.53281567895E-02  0.14174974247E-01  0.00000000000E+00 0.  1.
     999901    1    3    3    0    0  0.19895800037E-01  0.12375084645E+00  0.56548218893E-01  0.89067828980E+00  0.88000000000E+00 0.  1.
        -11    1    4    4    0    0 -0.23975244307E-01 -0.85853106457E-01 -0.32870539870E-01  0.95006851018E-01  0.51100000000E-03 0. -1.
         11    1    4    4    0    0  0.14464812133E-01 -0.29855055455E-01 -0.29005835813E-01  0.44069884938E-01  0.51100000000E-03 0.  1.
</event>
<event>
 8    1  0.2877139E+004  0.1043930E+01  0.7957747E-01            NaN
         13   -1    0    0    0    0  0.00000000000E+00  0.00000000000E+00  0.74505805969E-08  0.10566000000E+00  0.10566000000E+00 0. -1.
     999900   -1    0    0    0    0 -0.00000000000E+00 -0.00000000000E+00 -0.74505805969E-08  0.93827000000E+00  0.93827000000E+00 0.  1.
     999902    2    1    2    0    0 -0.14252913237E-02  0.50764506451E-02  0.13169049411E-01  0.10297445966E+01  0.10296468854E+01 0.  0.
     999903    2    3    3    0    0  0.12481476038E+00  0.47301663672E-02  0.26622216419E-01  0.14063399705E+00  0.58890405309E-01 0.  0.
         14    1    1    2    0    0  0.14252913237E-02 -0.50764506451E-02 -0.13169049411E-01  0.14185403375E-01  0.00000000000E+00 0.  1.
     999901    1    3    3    0    0 -0.12624005171E+00  0.34628427790E-03 -0.13453167008E-01  0.88911059957E+00  0.88000000000E+00 0. -1.
        -11    1    4    4    0    0  0.29537303306E-01 -0.21549096652E-01 -0.48989838187E-02  0.36892777295E-01  0.51100000000E-03 0.  1.
         11    1    4    4    0    0  0.95277457076E-01  0.26279263019E-01  0.31521200238E-01  0.10374121976E+00  0.51100000000E-03 0. -1.
</event>
<event>
 7    1  0.2877139E+004  0.1043930E+01  0.7957747E-01            NaN
         13   -1    0    0    0    0  0.00000000000E+00  0.00000000000E+00  0.74505805969E-08  0.10566000000E+00  0.10566000000E+00 0.  1.
     999900   -1    0    0    0    0 -0.00000000000E+00 -0.00000000000E+00 -0.74505805969E-08  0.93827000000E+00  0.93827000000E+00 0.  1.
     999903    2    1    2    0    0  0.76950259745E-01 -0.23073726786E-01  0.69978152654E-01  0.11558265206E+00  0.44818168934E-01 0.  0.
         14    1    1    2    0    0  0.30262328347E-01  0.17331231606E-01  0.14578772982E-01  0.37798422290E-01  0.00000000000E+00 0.  1.
     999901    1    1    2    0    0 -0.10721258809E+00  0.57424951804E-02 -0.84556925635E-01  0.89054892565E+00  0.88000000000E+00 0.  1.
        -11    1    3    3    0    0  0.26298567810E-01  0.13061308037E-01  0.27583957425E-01  0.40290796278E-01  0.51100000000E-03 0.  1.
         11    1    3    3    0    0  0.50651691935E-01 -0.36135034823E-01  0.42394195229E-01  0.75291855786E-01  0.51100000000E-03 0. -1.
</event>
<event>
 8    1  0.2877139E+004  0.1043930E+01  0.7957747E-01            NaN
         13   -1    0    0    0    0  0.00000000000E+00  0.00000000000E+00  0.74505805969E-08  0.10566000000E+00  0.10566000000E+00 0. -1.
     999900   -1    0    0    0    0 -0.00000000000E+00 -0.00000000000E+00 -0.74505805969E-08  0.93827000000E+00  0.93827000000E+00 0. -1.
     999902    2    1    2    0    0 -0.28689177495E-03  0.38003317357E-02 -0.26359549321E-01  0.10172963621E+01  0.10169476573E+01 0.  0.
     999903    2    3    3    0    0  0.13034141995E-01  0.11660048473E+00 -0.33772117608E-01  0.12996538064E+00  0.44552018383E-01 0.  0.
         14    1    1    2    0    0  0.28689177495E-03 -0.38003317357E-02  0.26359549321E-01  0.26633637915E-01  0.00000000000E+00 0. -1.
     999901    1    3    3    0    0 -0.13321033770E-01 -0.11280015299E+00  0.74125682879E-02  0.88733098144E+00  0.88000000000E+00 0.  1.
        -11    1    4    4    0    0 -0.38715661908E-02  0.10416100572E+00 -0.24865924923E-01  0.10715913158E+00  0.51100000000E-03 0.  1.
         11    1    4    4    0    0  0.16905708185E-01  0.12439479004E-01 -0.89061926854E-02  0.22806249062E-01  0.51100000000E-03 0. -1.
</event>
<event>
 7    1  0.2877139E+004  0.1043930E+01  0.7957747E-01            NaN
         13   -1    0    0    0    0  0.00000000000E+00  0.00000000000E+00  0.74505805969E-08  0.10566000000E+00  0.10566000000E+00 0. -1.
     999900   -1    0    0    0    0 -0.00000000000E+00 -0.00000000000E+00 -0.74505805969E-08  0.93827000000E+00  0.93827000000E+00 0.  1.
     999903    2    1    2    0    0 -0.10041228200E+00  0.38306680166E-01 -0.53027272263E-01  0.12789979956E+00  0.44681528649E-01 0.  0.
         14    1    1    2    0    0  0.23192402727E-01 -0.18029016545E-02 -0.17465224462E-01  0.29089036837E-01  0.00000000000E+00 0.  1.
     999901    1    1    2    0    0  0.77219879270E-01 -0.36503778512E-01  0.70492496725E-01  0.88694116360E+00  0.88000000000E+00 0. -1.
        -11    1    3    3    0    0 -0.36694049567E-01 -0.50390970038E-02 -0.57431431557E-02  0.37484537966E-01  0.51100000000E-03 0. -1.
         11    1    3    3    0    0 -0.63718232429E-01  0.43345777170E-01 -0.47284129108E-01  0.90415261593E-01  0.51100000000E-03 0.  1.
</event>
<event>
 8    1  0.2877139E+004  0.1043930E+01  0.7957747E-01            NaN
         13   -1    0    0    0    0  0.00000000000E+00  0.00000000000E+00  0.74505805969E-08  0.10566000000E+00  0.10566000000E+00 0.  1.
     999900   -1    0    0    0    0 -0.00000000000E+00 -0.00000000000E+00 -0.74505805969E-08  0.93827000000E+00  0.93827000000E+00 0. -1.
     999902    2    1    2    0    0  0.15808490201E-02  0.13064387351E-01  0.22387839599E-02  0.10305812377E+01  0.10304947832E+01 0.  0.
     999903    2    3    3    0    0  0.46376272052E-01  0.12760538255E+00  0.16718193657E-01  0.14191036344E+00  0.37751304454E-01 0.  0.
         14    1    1    2    0    0 -0.15808490201E-02 -0.13064387351E-01 -0.22387839599E-02  0.13348762269E-01  0.00000000000E+00 0. -1.
     999901    1    3    3    0    0 -0.44795423032E-01 -0.11454099520E+00 -0.14479409697E-01  0.88867087429E+00  0.88000000000E+00 0. -1.
        -11    1    4    4    0    0  0.42207208858E-01  0.12784220219E+00  0.20586563187E-01  0.13619524531E+00  0.51100000000E-03 0. -1.
         11    1    4    4    0    0  0.41690631936E-02 -0.23681963842E-03 -0.38683695301E-02  0.57151181330E-02  0.51100000000E-03 0.  1.
</event>
<event>
 8    1  0.2877139E+004  0.1043930E+01  0.7957747E-01            NaN
         13   -1    0    0    0    0  0.00000000000E+00  0.00000000000E+00  0.74505805969E-08  0.10566000000E+00  0.10566000000E+00 0.  1.
     999900   -1    0    0    0    0 -0.00000000000E+00 -0.00000000000E+00 -0.74505805969E-08  0.93827000000E+00  0.93827000000E+00 0. -1.
     999902    2    1    2    0    0  0.12589042412E-01 -0.16260170801E-02 -0.56582759307E-02  0.10300323741E+01  0.10299386135E+01 0.  0.
     999903    2    3    3    0    0  0.76563970719E-01 -0.49566744611E-01 -0.98217848441E-01  0.14157394550E+00  0.45579957310E-01 0.  0.
         14    1    1    2    0    0 -0.12589042412E-01  0.16260170801E-02  0.56582759307E-02  0.13897625945E-01  0.00000000000E+00 0.  1.
     999901    1    3    3    0    0 -0.63974928307E-01  0.47940727531E-01  0.92559572510E-01  0.88845842856E+00  0.88000000000E+00 0.  1.
        -11    1    4    4    0    0  0.36086409945E-01 -0.22175008598E-01 -0.14758949233E-01  0.44855854607E-01  0.51100000000E-03 0.  1.
         11    1    4    4    0    0  0.40477560775E-01 -0.27391736013E-01 -0.83458899207E-01  0.96718090893E-01  0.51100000000E-03 0. -1.
</event>
<event>
 8    1  0.2877139E+004  0.1043930E+01  0.7957747E-01            NaN
         13   -1    0    0    0    0  0.00000000000E+00  0.00000000000E+00  0.74505805969E-08  0.10566000000E+00  0.10566000000E+00 0. -1.
     999900   -1    0    0    0    0 -0.00000000000E+00 -0.00000000000E+00 -0.74505805969E-08  0.93827000000E+00  0.93827000000E+00 0.  1.
     999902    2    1    2    0    0 -0.10392268861E-01  0.68720710726E-02 -0.59755368478E-02  0.10301121979E+01  0.10300195186E+01 0.  0.
     999903    2    3    3    0    0  0.63797172996E-01 -0.34411420815E-01  0.10948744114E+00  0.13851806424E+00  0.44108153294E-01 0.  0.
         14    1    1    2    0    0  0.10392268861E-01 -0.68720710726E-02  0.59755368478E-02  0.13817802051E-01  0.00000000000E+00 0. -1.
     999901    1    3    3    0    0 -0.74189441856E-01  0.41283491888E-01 -0.11546297799E+00  0.89159413371E+00  0.88000000000E+00 0.  1.
        -11    1    4    4    0    0  0.74275910977E-02 -0.16944245541E-02  0.49018964487E-01  0.49610081480E-01  0.51100000000E-03 0.  1.
         11    1    4    4    0    0  0.56369581898E-01 -0.32716996261E-01  0.60468476655E-01  0.88907982756E-01  0.51100000000E-03 0. -1.
</event>
<event>
 8    1  0.2877139E+004  0.1043930E+01  0.7957747E-01            NaN
         13   -1    0    0    0    0  0.00000000000E+00  0.00000000000E+00  0.74505805969E-08  0.10566000000E+00  0.10566000000E+00 0.  1.
     999900   -1    0    0    0    0 -0.00000000000E+00 -0.00000000000E+00 -0.74505805969E-08  0.93827000000E+00  0.93827000000E+00 0.  1.
     999902    2    1    2    0    0 -0.98249560491E-02 -0.12947306161E-01  0.15462801281E-01  0.10214965268E+01  0.10212501620E+01 0.  0.
     999903    2    3    3    0    0  0.12195958148E+00  0.17186825301E-01 -0.39161336168E-02  0.13096254463E+00  0.44343269105E-01 0.  0.
         14    1    1    2    0    0  0.98249560491E-02  0.12947306161E-01 -0.15462801281E-01  0.22433473241E-01  0.00000000000E+00 0. -1.
     999901    1    3    3    0    0 -0.13178453753E+00 -0.30134131463E-01  0.19378934897E-01  0.89053398213E+00  0.88000000000E+00 0. -1.
        -11    1    4    4    0    0  0.80005151446E-01 -0.10333846723E-01 -0.42543164963E-02  0.80783494452E-01  0.51100000000E-03 0.  1.
         11    1    4    4    0    0  0.41954430033E-01  0.27520672025E-01  0.33818287953E-03  0.50179050177E-01  0.51100000000E-03 0. -1.
</event>
<event>
 8    1  0.2877139E+004  0.1043930E+01  0.7957747E-01            NaN
         13   -1    0    0    0    0  0.00000000000E+00  0.00000000000E+00  0.74505805969E-08  0.10566000000E+00  0.10566000000E+00 0. -1.
     999900   -1    0    0    0    0 -0.00000000000E+00 -0.00000000000E+00 -0.74505805969E-08  0.93827000000E+00  0.93827000000E+00 0. -1.
     999902    2    1    2    0    0  0.28040651209E-02 -0.11051510471E-01  0.60835608741E-02  0.10310068279E+01  0.10309258318E+01 0.  0.
     999903    2    3    3    0    0  0.15663935015E-01  0.51419388565E-01 -0.12073335459E+00  0.13963119464E+00  0.45066786284E-01 0.  0.
         14    1    1    2    0    0 -0.28040651209E-02  0.11051510471E-01 -0.60835608741E-02  0.12923172126E-01  0.00000000000E+00 0.  1.
     999901    1    3    3    0    0 -0.12859869894E-01 -0.62470899037E-01  0.12681691546E+00  0.89137563324E+00  0.88000000000E+00 0. -1.
        -11    1    4    4    0    0 -0.13314320631E-01  0.15372175720E-01 -0.18822403019E-01  0.27714957995E-01  0.51100000000E-03 0.  1.
         11    1    4    4    0    0  0.28978255646E-01  0.36047212845E-01 -0.10191095157E+00  0.11191623664E+00  0.51100000000E-03 0. -1.
</event>
<event>
 7    1  0.2877139E+004  0.1043930E+01  0.7957747E-01            NaN
         13   -1    0    0    0    0  0.00000000000E+00  0.00000000000E+00  0.74505805969E-08  0.10566000000E+00  0.10566000000E+00 0. -1.
     999900   -1    0    0    0    0 -0.00000000000E+00 -0.00000000000E+00 -0.74505805969E-08  0.93827000000E+00  0.93827000000E+00 0.  1.
     999903    2    1    2    0    0 -0.66750873219E-01  0.37860259712E-01  0.75861895348E-01  0.11656669017E+00  0.44087274254E-01 0.  0.
         14    1    1    2    0    0  0.15184379836E-01 -0.39234364354E-01  0.39049819474E-02  0.42251031008E-01  0.00000000000E+00 0.  1.
     999901    1    1    2    0    0  0.51566493383E-01  0.13741046421E-02 -0.79766877295E-01  0.88511227882E+00  0.88000000000E+00 0.  1.
        -11    1    3    3    0    0 -0.23424894478E-01 -0.71425413129E-02  0.31705397944E-01  0.40065383531E-01  0.51100000000E-03 0.  1.
         11    1    3    3    0    0 -0.43325978741E-01  0.45002801025E-01  0.44156497404E-01  0.76501306642E-01  0.51100000000E-03 0. -1.
</event>
<event>
 8    1  0.2877139E+004  0.1043930E+01  0.7957747E-01            NaN
         13   -1    0    0    0    0  0.00000000000E+00  0.00000000000E+00  0.74505805969E-08  0.10566000000E+00  0.10566000000E+00 0. -1.
     999900   -1    0    0    0    0 -0.00000000000E+00 -0.00000000000E+00 -0.74505805969E-08  0.93827000000E+00  0.93827000000E+00 0.  1.
     999902    2    1    2    0    0  0.39608097174E-02  0.11517085160E-01 -0.60190754123E-02  0.10303446942E+01  0.10302551278E+01 0.  0.
     999903    2    3    3    0    0 -0.12557872018E+00  0.93944094562E-02 -0.42877287011E-01  0.14009555869E+00  0.43932151474E-01 0.  0.
         14    1    1    2    0    0 -0.39608097174E-02 -0.11517085160E-01  0.60190754123E-02  0.13585305776E-01  0.00000000000E+00 0. -1.
     999901    1    3    3    0    0  0.12953952989E+00  0.21226757038E-02  0.36858211598E-01  0.89024913553E+00  0.88000000000E+00 0. -1.
        -11    1    4    4    0    0 -0.65716715788E-01  0.23425988445E-01 -0.10341595876E-01  0.70531364617E-01  0.51100000000E-03 0. -1.
         11    1    4    4    0    0 -0.59862004389E-01 -0.14031578989E-01 -0.32535691135E-01  0.69564194073E-01  0.51100000000E-03 0.  1.
</event>
<event>
 8    1  0.2877139E+004  0.1043930E+01  0.7957747E-01            NaN
         13   -1    0    0    0    0  0.00000000000E+00  0.00000000000E+00  0.74505805969E-08  0.10566000000E+00  0.10566000000E+00 0. -1.
     999900   -1    0    0    0    0 -0.00000000000E+00 -0.00000000000E+00 -0.74505805969E-08  0.93827000000E+00  0.93827000000E+00 0. -1.
     999902    2    1    2    0    0 -0.59034752534E-02 -0.10864657478E-01 -0.43979555309E-02  0.10308062119E+01  0.10307226652E+01 0.  0.
     999903    2    3    3    0    0 -0.31756435176E-01 -0.12563472326E+00  0.35549722048E-01  0.14207882932E+00  0.46152531245E-01 0.  0.
         14    1    1    2    0    0  0.59034752534E-02  0.10864657478E-01  0.43979555309E-02  0.13123788136E-01  0.00000000000E+00 0. -1.
     999901    1    3    3    0    0  0.25852959923E-01  0.11477006578E+00 -0.39947677579E-01  0.88872738254E+00  0.88000000000E+00 0. -1.
        -11    1    4    4    0    0 -0.35205653074E-02 -0.18389987272E-01  0.24195385471E-01  0.30598428245E-01  0.51100000000E-03 0. -1.
         11    1    4    4    0    0 -0.28235869869E-01 -0.10724473599E+00  0.11354336577E-01  0.11148040108E+00  0.51100000000E-03 0.  1.
</event>
<event>
 8    1  0.2877139E+004  0.1043930E+01  0.7957747E-01            NaN
         13   -1    0    0    0    0  0.00000000000E+00  0.00000000000E+00  0.74505805969E-08  0.10566000000E+00  0.10566000000E+00 0.  1.
     999900   -1    0    0    0    0 -0.00000000000E+00 -0.00000000000E+00 -0.74505805969E-08  0.93827000000E+00  0.93827000000E+00 0. -1.
     999902    2    1    2    0    0 -0.11567487806E-02 -0.13380954427E-01  0.63991892985E-02  0.10290525798E+01  0.10289450298E+01 0.  0.
     999903    2    3    3    0    0  0.96264871841E-01  0.82145472132E-01  0.31498509498E-01  0.13818432564E+00  0.45694065365E-01 0.  0.
         14    1    1    2    0    0  0.11567487806E-02  0.13380954427E-01 -0.63991892985E-02  0.14877420234E-01  0.00000000000E+00 0. -1.
     999901    1    3    3    0    0 -0.97421620621E-01 -0.95526426560E-01 -0.25099320199E-01  0.89086825413E+00  0.88000000000E+00 0.  1.
        -11    1    4    4    0    0  0.61122055947E-01  0.78086955862E-01  0.23469424456E-01  0.10190462896E+00  0.51100000000E-03 0. -1.
         11    1    4    4    0    0  0.35142815894E-01  0.40585162700E-02  0.80290850414E-02  0.36279696676E-01  0.51100000000E-03 0.  1.
</event>
<event>
 8    1  0.2877139E+004  0.1043930E+01  0.7957747E-01            NaN
         13   -1    0    0    0    0  0.00000000000E+00  0.00000000000E+00  0.74505805969E-08  0.10566000000E+00  0.10566000000E+00 0.  1.
     999900   -1    0    0    0    0 -0.00000000000E+00 -0.00000000000E+00 -0.74505805969E-08  0.93827000000E+00  0.93827000000E+00 0.  1.
     999902    2    1    2    0    0 -0.93081116105E-02  0.35155845487E-02 -0.85425888369E-02  0.10308160341E+01  0.10307326133E+01 0.  0.
     999903    2    3    3    0    0  0.12505206212E+00 -0.87347950968E-02  0.40153240707E-01  0.13920288266E+00  0.45286255267E-01 0.  0.
         14    1    1    2    0    0  0.93081116105E-02 -0.35155845487E-02  0.85425888369E-02  0.13113965857E-01  0.00000000000E+00 0.  1.
     999901    1    3    3    0    0 -0.13436017373E+00  0.12250379646E-01 -0.48695829544E-01  0.89161315148E+00  0.88000000000E+00 0.  1.
        -11    1    4    4    0    0  0.95955584751E-02 -0.12424231029E-02  0.19359418009E-01  0.21648707681E-01  0.51100000000E-03 0.  1.
         11    1    4    4    0    0  0.11545650364E+00 -0.74923719939E-02  0.20793822698E-01  0.11755417498E+00  0.51100000000E-03 0. -1.
</event>
<event>
 8    1  0.2877139E+004  0.1043930E+01  0.7957747E-01            NaN
         13   -1    0    0    0    0  0.00000000000E+00  0.00000000000E+00  0.74505805969E-08  0.10566000000E+00  0.10566000000E+00 0.  1.
     999900   -1    0    0    0    0 -0.00000000000E+00 -0.00000000000E+00 -0.74505805969E-08  0.93827000000E+00  0.93827000000E+00 0.  1.
     999902    2    1    2    0    0  0.48776639148E-02  0.17767631001E-02 -0.16053063099E-01  0.10270584462E+01  0.10269198618E+01 0.  0.
     999903    2    3    3    0    0 -0.12314554967E+00 -0.41655159751E-02 -0.41195960619E-01  0.13741951991E+00  0.44775432486E-01 0.  0.
         14    1    1    2    0    0 -0.48776639148E-02 -0.17767631001E-02  0.16053063099E-01  0.16871553789E-01  0.00000000000E+00 0.  1.
     999901    1    3    3    0    0  0.12802321358E+00  0.59422790752E-02  0.25142897520E-01  0.88963892630E+00  0.88000000000E+00 0. -1.
        -11    1    4    4    0    0 -0.82621341673E-01 -0.19033582842E-01 -0.12797182221E-01  0.85747258670E-01  0.51100000000E-03 0.  1.
         11    1    4    4    0    0 -0.40524207995E-01  0.14868066867E-01 -0.28398778399E-01  0.51672261238E-01  0.51100000000E-03 0. -1.
</event>
<event>
 7    1  0.2877139E+004  0.1043930E+01  0.7957747E-01            NaN
         13   -1    0    0    0    0  0.00000000000E+00  0.00000000000E+00  0.74505805969E-08  0.10566000000E+00  0.10566000000E+00 0. -1.
     999900   -1    0    0    0    0 -0.00000000000E+00 -0.00000000000E+00 -0.74505805969E-08  0.93827000000E+00  0.93827000000E+00 0.  1.
     999902    2    1    2    0    0  0.13242367798E-01  0.26554626776E-02 -0.79565475829E-02  0.10282545913E+01  0.10281351011E+01 0.  0.
         14    1    1    2    0    0 -0.13242367798E-01 -0.26554626776E-02  0.79565475829E-02  0.15675408651E-01  0.00000000000E+00 0. -1.
     999901    1    3    3    0    0  0.64421559012E-01  0.12430885151E+00 -0.38823792212E-01  0.89191373724E+00  0.88000000000E+00 0. -1.
        -11    1    3    3    0    0 -0.37226328536E-01 -0.72412635011E-01  0.22549013465E-01  0.84487326711E-01  0.51100000000E-03 0.  1.
         11    1    3    3    0    0 -0.13952862677E-01 -0.49240753817E-01  0.83182311635E-02  0.51853527402E-01  0.51100000000E-03 0. -1.
</event>
<event>
 8    1  0.2877139E+004  0.1043930E+01  0.7957747E-01            NaN
         13   -1    0    0    0    0  0.00000000000E+00  0.00000000000E+00  0.74505805969E-08  0.10566000000E+00  0.10566000000E+00 0.  1.
     999900   -1    0    0    0    0 -0.00000000000E+00 -0.00000000000E+00 -0.74505805969E-08  0.93827000000E+00  0.93827000000E+00 0. -1.
     999902    2    1    2    0    0  0.87213829843E-03  0.34196787147E-02  0.57592380053E-02  0.10371754719E+01  0.10371534775E+01 0.  0.
     999903    2    3    3    0    0  0.41859193641E-01 -0.13132173048E+00  0.19758283358E-01  0.14586679396E+00  0.43464270750E-01 0.  0.
         14    1    1    2    0    0 -0.87213829843E-03 -0.34196787147E-02 -0.57592380053E-02  0.67545281201E-02  0.00000000000E+00 0. -1.
     999901    1    3    3    0    0 -0.40987055342E-01  0.13474140919E+00 -0.13999045352E-01  0.89130867792E+00  0.88000000000E+00 0. -1.
        -11    1    4    4    0    0  0.26798464553E-01 -0.99996839021E-01  0.33015040226E-01  0.10866360715E+00  0.51100000000E-03 0.  1.
         11    1    4    4    0    0  0.15060729088E-01 -0.31324891458E-01 -0.13256756868E-01  0.37203186815E-01  0.51100000000E-03 0. -1.
</event>
<event>
 8    1  0.2877139E+004  0.1043930E+01  0.7957747E-01            NaN
         13   -1    0    0    0    0  0.00000000000E+00  0.00000000000E+00  0.74505805969E-08  0.10566000000E+00  0.10566000000E+00 0. -1.
     999900   -1    0    0    0    0 -0.00000000000E+00 -0.00000000000E+00 -0.74505805969E-08  0.93827000000E+00  0.93827000000E+00 0. -1.
     999902    2    1    2    0    0  0.12630011191E-01 -0.59952650860E-02 -0.12661130498E-02  0.10298920718E+01  0.10297963955E+01 0.  0.
     999903    2    3    3    0    0  0.71318767008E-01  0.29774746565E-01 -0.10746687838E+00  0.14084625388E+00  0.48121047590E-01 0.  0.
         14    1    1    2    0    0 -0.12630011191E-01  0.59952650860E-02  0.12661130498E-02  0.14037928209E-01  0.00000000000E+00 0.  1.
     999901    1    3    3    0    0 -0.58688755817E-01 -0.35770011651E-01  0.10620076533E+00  0.88904581791E+00  0.88000000000E+00 0.  1.
        -11    1    4    4    0    0  0.39574289283E-01 -0.83996160212E-02 -0.58357593381E-01  0.71010898796E-01  0.51100000000E-03 0. -1.
         11    1    4    4    0    0  0.31744477725E-01  0.38174362586E-01 -0.49109285002E-01  0.69835355081E-01  0.51100000000E-03 0.  1.
</event>
<event>
 8    1  0.2877139E+004  0.1043930E+01  0.7957747E-01            NaN
         13   -1    0    0    0    0  0.00000000000E+00  0.00000000000E+00  0.74505805969E-08  0.10566000000E+00  0.10566000000E+00 0. -1.
     999900   -1    0    0    0    0 -0.00000000000E+00 -0.00000000000E+00 -0.74505805969E-08  0.93827000000E+00  0.93827000000E+00 0. -1.
     999902    2    1    2    0    0  0.53206244620E-02 -0.96780287404E-02 -0.12651065789E-02  0.10328136256E+01  0.10327538000E+01 0.  0.
     999903    2    3    3    0    0  0.62223481015E-01 -0.11844774813E+00 -0.29087850405E-01  0.14385755694E+00  0.44127803284E-01 0.  0.
         14    1    1    2    0    0 -0.53206244620E-02  0.96780287404E-02  0.12651065789E-02  0.11116374392E-01  0.00000000000E+00 0.  1.
     999901    1    3    3    0    0 -0.56902856553E-01  0.10876971939E+00  0.27822743826E-01  0.88895606866E+00  0.88000000000E+00 0.  1.
        -11    1    4    4    0    0  0.40649674130E-01 -0.90307595090E-01 -0.16996953577E-02  0.99050531665E-01  0.51100000000E-03 0. -1.
         11    1    4    4    0    0  0.21573806885E-01 -0.28140153038E-01 -0.27388155048E-01  0.44807025280E-01  0.51100000000E-03 0.  1.
</event>
<event>
 8    1  0.2877139E+004  0.1043930E+01  0.7957747E-01            NaN
         13   -1    0    0    0    0  0.00000000000E+00  0.00000000000E+00  0.74505805969E-08  0.10566000000E+00  0.10566000000E+00 0.  1.
     999900   -1    0    0    0    0 -0.00000000000E+00 -0.00000000000E+00 -0.74505805969E-08  0.93827000000E+00  0.93827000000E+00 0.  1.
     999902    2    1    2    0    0 -0.43277976943E-02 -0.12662558382E-01  0.46772587856E-02  0.10297544236E+01  0.10296568486E+01 0.  0.
     999903    2    3    3    0    0  0.95295546339E-01  0.98205925386E-02 -0.90671917983E-01  0.13873154604E+00  0.42980925612E-01 0.  0.
         14    1    1    2    0    0  0.43277976943E-02  0.12662558382E-01 -0.46772587856E-02  0.14175576440E-01  0.00000000000E+00 0.  1.
     999901    1    3    3    0    0 -0.99623344033E-01 -0.22483150920E-01  0.95349176768E-01  0.89102287752E+00  0.88000000000E+00 0.  1.
        -11    1    4    4    0    0  0.62988566754E-02  0.13482874875E-01 -0.20502115460E-01  0.25338929923E-01  0.51100000000E-03 0. -1.
         11    1    4    4    0    0  0.88996689664E-01 -0.36622823365E-02 -0.70169802523E-01  0.11339261612E+00  0.51100000000E-03 0.  1.
</event>
<event>
 8    1  0.2877139E+004  0.1043930E+01  0.7957747E-01            NaN
         13   -1    0    0    0    0  0.00000000000E+00  0.00000000000E+00  0.74505805969E-08  0.10566000000E+00  0.10566000000E+00 0.  1.
     999900   -1    0    0    0    0 -0.00000000000E+00 -0.00000000000E+00 -0.74505805969E-08  0.93827000000E+00  0.93827000000E+00 0. -1.
     999902    2    1    2    0    0  0.22837685721E-02 -0.31669023118E-02 -0.13009661735E-01  0.10303470634E+01  0.10302575284E+01 0.  0.
     999903    2    3    3    0    0 -0.66134050699E-02 -0.98473845953E-01 -0.91967370223E-01  0.14164188563E+00  0.43169330730E-01 0.  0.
         14    1    1    2    0    0 -0.22837685721E-02  0.31669023118E-02  0.13009661735E-01  0.13582936634E-01  0.00000000000E+00 0.  1.
     999901    1    3    3    0    0  0.88971736420E-02  0.95306943641E-01  0.78957708489E-01  0.88870517774E+00  0.88000000000E+00 0.  1.
        -11    1    4    4    0    0 -0.10693083040E-01 -0.18483445447E-02 -0.71517402312E-02  0.13006418100E-01  0.51100000000E-03 0. -1.
         11    1    4    4    0    0  0.40796779701E-02 -0.96625501408E-01 -0.84815629992E-01  0.12863546753E+00  0.51100000000E-03 0.  1.
</event>
<event>
 8    1  0.2877139E+004  0.1043930E+01  0.7957747E-01            NaN
         13   -1    0    0    0    0  0.00000000000E+00  0.00000000000E+00  0.74505805969E-08  0.10566000000E+00  0.10566000000E+00 0.  1.
     999900   -1    0    0    0    0 -0.00000000000E+00 -0.00000000000E+00 -0.74505805969E-08  0.93827000000E+00  0.93827000000E+00 0.  1.
     999902    2    1    2    0    0 -0.41758068644E-02 -0.19379090728E-02 -0.99857746236E-02  0.10329341576E+01  0.10328756292E+01 0.  0.
     999903    2    3    3    0    0 -0.84114383529E-02 -0.95409484786E-01 -0.96916081807E-01  0.14371441294E+00  0.45687892181E-01 0.  0.
         14    1    1    2    0    0  0.41758068644E-02  0.19379090728E-02  0.99857746236E-02  0.10995842368E-01  0.00000000000E+00 0.  1.
     999901    1    3    3    0    0  0.42356314885E-02  0.93471575714E-01  0.86930307183E-01  0.88921974469E+00  0.88000000000E+00 0. -1.
        -11    1    4    4    0    0 -0.14650305205E-01 -0.43239850978E-01 -0.72725325334E-01  0.85869378833E-01  0.51100000000E-03 0. -1.
         11    1    4    4    0    0  0.62388668526E-02 -0.52169633808E-01 -0.24190756473E-01  0.57845034108E-01  0.51100000000E-03 0.  1.
</event>
<event>
 8    1  0.2877139E+004  0.1043930E+01  0.7957747E-01            NaN
         13   -1    0    0    0    0  0.00000000000E+00  0.00000000000E+00  0.74505805969E-08  0.10566000000E+00  0.10566000000E+00 0.  1.
     999900   -1    0    0    0    0 -0.00000000000E+00 -0.00000000000E+00 -0.74505805969E-08  0.93827000000E+00  0.93827000000E+00 0. -1.
     999902    2    1    2    0    0 -0.10677940943E-01 -0.58562887021E-02  0.45970472673E-02  0.10309128043E+01  0.10308306179E+01 0.  0.
     999903    2    3    3    0    0  0.74378392118E-01 -0.10498166135E+00 -0.33465125044E-01  0.14045834267E+00  0.45335824643E-01 0.  0.
         14    1    1    2    0    0  0.10677940943E-01  0.58562887021E-02 -0.45970472673E-02  0.13017195693E-01  0.00000000000E+00 0. -1.
     999901    1    3    3    0    0 -0.85056333061E-01  0.99125372648E-01  0.38062172311E-01  0.89045446164E+00  0.88000000000E+00 0.  1.
        -11    1    4    4    0    0  0.37290115776E-01 -0.52541549958E-01  0.65783963336E-02  0.64766531680E-01  0.51100000000E-03 0. -1.
         11    1    4    4    0    0  0.37088276343E-01 -0.52440111392E-01 -0.40043521377E-01  0.75691810985E-01  0.51100000000E-03 0.  1.
</event>
<event>
 8    1  0.2877139E+004  0.1043930E+01  0.7957747E-01            NaN
         13   -1    0    0    0    0  0.00000000000E+00  0.00000000000E+00  0.74505805969E-08  0.10566000000E+00  0.10566000000E+00 0.  1.
     999900   -1    0    0    0    0 -0.00000000000E+00 -0.00000000000E+00 -0.74505805969E-08  0.93827000000E+00  0.93827000000E+00 0.  1.
     999902    2    1    2    0    0  0.13105092838E-01  0.10134365101E-01 -0.34723957739E-02  0.10270035016E+01  0.10268640056E+01 0.  0.
     999903    2    3    3    0    0 -0.61714366450E-01  0.57750540696E-01 -0.98416893936E-01  0.13746445843E+00  0.45462119859E-01 0.  0.
         14    1    1    2    0    0 -0.13105092838E-01 -0.10134365101E-01  0.34723957739E-02  0.16926498360E-01  0.00000000000E+00 0. -1.
     999901    1    3    3    0    0  0.74819459289E-01 -0.47616175595E-01  0.94944498162E-01  0.88953904321E+00  0.88000000000E+00 0. -1.
        -11    1    4    4    0    0  0.24791221234E-02  0.10173700995E-01 -0.31637832822E-01  0.33329623837E-01  0.51100000000E-03 0. -1.
         11    1    4    4    0    0 -0.64193488574E-01  0.47576839702E-01 -0.66779061114E-01  0.10413483459E+00  0.51100000000E-03 0.  1.
</event>
<event>
 8    1  0.2877139E+004  0.1043930E+01  0.7957747E-01            NaN
         13   -1    0    0    0    0  0.00000000000E+00  0.00000000000E+00  0.74505805969E-08  0.10566000000E+00  0.10566000000E+00 0. -1.
     999900   -1    0    0    0    0 -0.00000000000E+00 -0.00000000000E+00 -0.74505805969E-08  0.93827000000E+00  0.93827000000E+00 0. -1.
     999902    2    1    2    0    0 -0.11237119662E-01 -0.83301040681E-02 -0.28096657285E-02  0.10296626347E+01  0.10295637831E+01 0.  0.
     999903    2    3    3    0    0  0.12010818247E+00 -0.40080667769E-01 -0.34319204680E-01  0.13879084943E+00  0.45306253993E-01 0.  0.
         14    1    1    2    0    0  0.11237119662E-01  0.83301040681E-02  0.28096657285E-02  0.14267365335E-01  0.00000000000E+00 0. -1.
     999901    1    3    3    0    0 -0.13134530213E+00  0.31750563701E-01  0.31509538951E-01  0.89087178524E+00  0.88000000000E+00 0.  1.
        -11    1    4    4    0    0  0.50056426758E-01 -0.94725835361E-03  0.32809060643E-02  0.50175378661E-01  0.51100000000E-03 0. -1.
         11    1    4    4    0    0  0.70051755709E-01 -0.39133409415E-01 -0.37600110744E-01  0.88615470767E-01  0.51100000000E-03 0.  1.
</event>
<event>
 8    1  0.2877139E+004  0.1043930E+01  0.7957747E-01            NaN
         13   -1    0    0    0    0  0.00000000000E+00  0.00000000000E+00  0.74505805969E-08  0.10566000000E+00  0.10566000000E+00 0. -1.
     999900   -1    0    0    0    0 -0.00000000000E+00 -0.00000000000E+00 -0.74505805969E-08  0.93827000000E+00  0.93827000000E+00 0. -1.
     999902    2    1    2    0    0 -0.13547091333E-01  0.53857593872E-02  0.51640467099E-03  0.10293424450E+01  0.10292390744E+01 0.  0.
     999903    2    3    3    0    0  0.14747686023E-01  0.13120502174E+00 -0.10511784153E-01  0.13987479399E+00  0.44968971675E-01 0.  0.
         14    1    1    2    0    0  0.13547091333E-01 -0.53857593872E-02 -0.51640467099E-03  0.14587555023E-01  0.00000000000E+00 0. -1.
     999901    1    3    3    0    0 -0.28294777356E-01 -0.12581926236E+00  0.11028188824E-01  0.88946765099E+00  0.88000000000E+00 0. -1.
        -11    1    4    4    0    0 -0.55780030140E-02  0.93593952696E-01 -0.20482551371E-01  0.95972590517E-01  0.51100000000E-03 0.  1.
         11    1    4    4    0    0  0.20325689037E-01  0.37611069048E-01  0.99707672183E-02  0.43902203472E-01  0.51100000000E-03 0. -1.
</event>
<event>
 8    1  0.2877139E+004  0.1043930E+01  0.7957747E-01            NaN
         13   -1    0    0    0    0  0.00000000000E+00  0.00000000000E+00  0.74505805969E-08  0.10566000000E+00  0.10566000000E+00 0.  1.
     999900   -1    0    0    0    0 -0.00000000000E+00 -0.00000000000E+00 -0.74505805969E-08  0.93827000000E+00  0.93827000000E+00 0.  1.
     999902    2    1    2    0    0 -0.94572451004E-02  0.72659659528E-02  0.95904631766E-02  0.10286260551E+01  0.10285122024E+01 0.  0.
     999903    2    3    3    0    0 -0.10519082112E+00  0.46826776240E-01  0.66977411278E-01  0.14069405481E+00  0.45287830793E-01 0.  0.
         14    1    1    2    0    0  0.94572451004E-02 -0.72659659528E-02 -0.95904631766E-02  0.15303944918E-01  0.00000000000E+00 0. -1.
     999901    1    3    3    0    0  0.95733576017E-01 -0.39560810287E-01 -0.57386948102E-01  0.88793200027E+00  0.88000000000E+00 0.  1.
        -11    1    4    4    0    0 -0.70918780381E-01  0.48769745876E-01  0.32397384202E-01  0.91966369656E-01  0.51100000000E-03 0. -1.
         11    1    4    4    0    0 -0.34272040736E-01 -0.19429696359E-02  0.34580027076E-01  0.48727685158E-01  0.51100000000E-03 0.  1.
</event>
<event>
 8    1  0.2877139E+004  0.1043930E+01  0.7957747E-01            NaN
         13   -1    0    0    0    0  0.00000000000E+00  0.00000000000E+00  0.74505805969E-08  0.10566000000E+00  0.10566000000E+00 0.  1.
     999900   -1    0    0    0    0 -0.00000000000E+00 -0.00000000000E+00 -0.74505805969E-08  0.93827000000E+00  0.93827000000E+00 0.  1.
     999902    2    1    2    0    0  0.11181907429E-01  0.98209770234E-02  0.50931511786E-02  0.10282001929E+01  0.10280798655E+01 0.  0.
     999903    2    3    3    0    0  0.72913501039E-02 -0.12580374134E+00 -0.27445152830E-01  0.13720752068E+00  0.46828647161E-01 0.  0.
         14    1    1    2    0    0 -0.11181907429E-01 -0.98209770234E-02 -0.50931511786E-02  0.15729807131E-01  0.00000000000E+00 0. -1.
     999901    1    3    3    0    0  0.38905573250E-02  0.13562471837E+00  0.32538304009E-01  0.89099267219E+00  0.88000000000E+00 0. -1.
        -11    1    4    4    0    0  0.10823202285E-01 -0.62859102172E-01  0.89496675155E-02  0.64410916025E-01  0.51100000000E-03 0. -1.
         11    1    4    4    0    0 -0.35318521809E-02 -0.62944639171E-01 -0.36394820346E-01  0.72796604654E-01  0.51100000000E-03 0.  1.
</event>
<event>
 8    1  0.2877139E+004  0.1043930E+01  0.7957747E-01            NaN
         13   -1    0    0    0    0  0.00000000000E+00  0.00000000000E+00  0.74505805969E-08  0.10566000000E+00  0.10566000000E+00 0.  1.
     999900   -1    0    0    0    0 -0.00000000000E+00 -0.00000000000E+00 -0.74505805969E-08  0.93827000000E+00  0.93827000000E+00 0. -1.
     999902    2    1    2    0    0 -0.96766585981E-02  0.84532617902E-02 -0.45358793522E-02  0.10303039383E+01  0.10302138301E+01 0.  0.
     999903    2    3    3    0    0 -0.12164594047E+00 -0.37331405629E-01 -0.41811801813E-01  0.14124665652E+00  0.44844425818E-01 0.  0.
         14    1    1    2    0    0  0.96766585981E-02 -0.84532617902E-02  0.45358793522E-02  0.13626061721E-01  0.00000000000E+00 0.  1.
     999901    1    3    3    0    0  0.11196928188E+00  0.45784667419E-01  0.37275922461E-01  0.88905728176E+00  0.88000000000E+00 0. -1.
        -11    1    4    4    0    0 -0.11537414085E+00 -0.28124149242E-01 -0.25457149301E-01  0.12145158591E+00  0.51100000000E-03 0. -1.
         11    1    4    4    0    0 -0.62717996207E-02 -0.92072563874E-02 -0.16354652513E-01  0.19795070611E-01  0.51100000000E-03 0.  1.
</event>
<event>
 8    1  0.2877139E+004  0.1043930E+01  0.7957747E-01            NaN
         13   -1    0    0    0    0  0.00000000000E+00  0.00000000000E+00  0.74505805969E-08  0.10566000000E+00  0.10566000000E+00 0. -1.
     999900   -1    0    0    0    0 -0.00000000000E+00 -0.00000000000E+00 -0.74505805969E-08  0.93827000000E+00  0.93827000000E+00 0.  1.
     999902    2    1    2    0    0 -0.72472611422E-02 -0.10928489276E-01 -0.49888972602E-02  0.10298998978E+01  0.10298043288E+01 0.  0.
     999903    2    3    3    0    0  0.46457654286E-01  0.12033695208E+00 -0.11173790861E-01  0.13852282442E+00  0.49238436268E-01 0.  0.
         14    1    1    2    0    0  0.72472611422E-02  0.10928489276E-01  0.49888972602E-02  0.14030102202E-01  0.00000000000E+00 0. -1.
     999901    1    3    3    0    0 -0.53704915428E-01 -0.13126544135E+00  0.61848936012E-02  0.89137707338E+00  0.88000000000E+00 0.  1.
        -11    1    4    4    0    0  0.69771452435E-02  0.80761752877E-01  0.19980797221E-02  0.81088807656E-01  0.51100000000E-03 0.  1.
         11    1    4    4    0    0  0.39480509042E-01  0.39575199201E-01 -0.13171870583E-01  0.57434016764E-01  0.51100000000E-03 0. -1.
</event>
<event>
 8    1  0.2877139E+004  0.1043930E+01  0.7957747E-01            NaN
         13   -1    0    0    0    0  0.00000000000E+00  0.00000000000E+00  0.74505805969E-08  0.10566000000E+00  0.10566000000E+00 0.  1.
     999900   -1    0    0    0    0 -0.00000000000E+00 -0.00000000000E+00 -0.74505805969E-08  0.93827000000E+00  0.93827000000E+00 0.  1.
     999902    2    1    2    0    0 -0.42754526999E-02 -0.45902047095E-02 -0.12215140166E-01  0.10301983168E+01  0.10301067968E+01 0.  0.
     999903    2    3    3    0    0  0.95484755625E-01  0.87608386339E-01 -0.25881032408E-01  0.13967070015E+00  0.45227300684E-01 0.  0.
         14    1    1    2    0    0  0.42754526999E-02  0.45902047095E-02  0.12215140166E-01  0.13731683231E-01  0.00000000000E+00 0.  1.
     999901    1    3    3    0    0 -0.99760208325E-01 -0.92198591049E-01  0.13665892241E-01  0.89052761662E+00  0.88000000000E+00 0.  1.
        -11    1    4    4    0    0  0.56353701723E-01  0.28047414753E-01  0.24044478888E-02  0.62995552723E-01  0.51100000000E-03 0.  1.
         11    1    4    4    0    0  0.39131053902E-01  0.59560971586E-01 -0.28285480297E-01  0.76675147423E-01  0.51100000000E-03 0. -1.
</event>
<event>
 8    1  0.2877139E+004  0.1043930E+01  0.7957747E-01            NaN
         13   -1    0    0    0    0  0.00000000000E+00  0.00000000000E+00  0.74505805969E-08  0.10566000000E+00  0.10566000000E+00 0. -1.
     999900   -1    0    0    0    0 -0.00000000000E+00 -0.00000000000E+00 -0.74505805969E-08  0.93827000000E+00  0.93827000000E+00 0. -1.
     999902    2    1    2    0    0 -0.14372781065E-03  0.99545547170E-02  0.35295425556E-02  0.10333672594E+01  0.10333132736E+01 0.  0.
     999903    2    3    3    0    0 -0.84960796094E-01 -0.10308988544E+00  0.14943137418E-01  0.14201814116E+00  0.45825688318E-01 0.  0.
         14    1    1    2    0    0  0.14372781065E-03 -0.99545547170E-02 -0.35295425556E-02  0.10562740551E-01  0.00000000000E+00 0. -1.
     999901    1    3    3    0    0  0.84817068284E-01  0.11304444016E+00 -0.11413594862E-01  0.89134911829E+00  0.88000000000E+00 0.  1.
        -11    1    4    4    0    0 -0.49677890490E-01 -0.90451304168E-01  0.53867360942E-02  0.10333735663E+00  0.51100000000E-03 0. -1.
         11    1    4    4    0    0 -0.35282905604E-01 -0.12638581274E-01  0.95564013234E-02  0.38680784528E-01  0.51100000000E-03 0.  1.
</event>
<event>
 8    1  0.2877139E+004  0.1043930E+01  0.7957747E-01            NaN
         13   -1    0    0    0    0  0.00000000000E+00  0.00000000000E+00  0.74505805969E-08  0.10566000000E+00  0.10566000000E+00 0.  1.
     999900   -1    0    0    0    0 -0.00000000000E+00 -0.00000000000E+00 -0.74505805969E-08  0.93827000000E+00  0.93827000000E+00 0.  1.
     999902    2    1    2    0    0  0.56979503043E-02 -0.15142873157E-01 -0.82588845089E-03  0.10277295266E+01  0.10276018317E+01 0.  0.
     999903    2    3    3    0    0 -0.54223967886E-02 -0.12030562359E+00  0.54063143126E-01  0.13970043254E+00  0.45722444739E-01 0.  0.
         14    1    1    2    0    0 -0.56979503043E-02  0.15142873157E-01  0.82588845089E-03  0.16200473353E-01  0.00000000000E+00 0.  1.
     999901    1    3    3    0    0  0.11120347093E-01  0.10516275043E+00 -0.54889031577E-01  0.88802909411E+00  0.88000000000E+00 0.  1.
        -11    1    4    4    0    0  0.15851232225E-01 -0.39061283726E-01  0.50494692730E-02  0.42459436057E-01  0.51100000000E-03 0.  1.
         11    1    4    4    0    0 -0.21273629014E-01 -0.81244339862E-01  0.49013673853E-01  0.97240996481E-01  0.51100000000E-03 0. -1.
</event>
<event>
 8    1  0.2877139E+004  0.1043930E+01  0.7957747E-01            NaN
         13   -1    0    0    0    0  0.00000000000E+00  0.00000000000E+00  0.74505805969E-08  0.10566000000E+00  0.10566000000E+00 0. -1.
     999900   -1    0    0    0    0 -0.00000000000E+00 -0.00000000000E+00 -0.74505805969E-08  0.93827000000E+00  0.93827000000E+00 0.  1.
     999902    2    1    2    0    0 -0.91454715986E-02  0.98662013107E-02  0.56126833679E-02  0.10293531761E+01  0.10292499587E+01 0.  0.
     999903    2    3    3    0    0 -0.38783129368E-01  0.12738841380E+00  0.10767271571E-02  0.14103429417E+00  0.46449689942E-01 0.  0.
         14    1    1    2    0    0  0.91454715986E-02 -0.98662013107E-02 -0.56126833679E-02  0.14576823853E-01  0.00000000000E+00 0.  1.
     999901    1    3    3    0    0  0.29637657770E-01 -0.11752221249E+00  0.45359562108E-02  0.88831888198E+00  0.88000000000E+00 0. -1.
        -11    1    4    4    0    0 -0.27975375771E-01  0.79072937422E-01 -0.21543220105E-01  0.86599783693E-01  0.51100000000E-03 0.  1.
         11    1    4    4    0    0 -0.10807753597E-01  0.48315476376E-01  0.22619947262E-01  0.54434510472E-01  0.51100000000E-03 0. -1.
</event>
<event>
 8    1  0.2877139E+004  0.1043930E+01  0.7957747E-01            NaN
         13   -1    0    0    0    0  0.00000000000E+00  0.00000000000E+00  0.74505805969E-08  0.10566000000E+00  0.10566000000E+00 0.  1.
     999900   -1    0    0    0    0 -0.00000000000E+00 -0.00000000000E+00 -0.74505805969E-08  0.93827000000E+00  0.93827000000E+00 0.  1.
     999902    2    1    2    0    0 -0.80034721935E-02  0.99667643984E-02  0.34938076685E-02  0.10306786359E+01  0.10305934464E+01 0.  0.
     999903    2    3    3    0    0 -0.87808383348E-01 -0.11384634247E-01 -0.10204710288E+00  0.14053056397E+00  0.38669188260E-01 0.  0.
         14    1    1    2    0    0  0.80034721935E-02 -0.99667643984E-02 -0.34938076685E-02  0.13251364147E-01  0.00000000000E+00 0. -1.
     999901    1    3    3    0    0  0.79804911155E-01  0.21351398645E-01  0.10554091055E+00  0.89014807188E+00  0.88000000000E+00 0. -1.
        -11    1    4    4    0    0 -0.84363812070E-01 -0.19775302898E-02 -0.79878327856E-01  0.11619798533E+00  0.51100000000E-03 0.  1.
         11    1    4    4    0    0 -0.34445712785E-02 -0.94071039572E-02 -0.22168775029E-01  0.24332578643E-01  0.51100000000E-03 0. -1.
</event>
<event>
 8    1  0.2877139E+004  0.1043930E+01  0.7957747E-01            NaN
         13   -1    0    0    0    0  0.00000000000E+00  0.00000000000E+00  0.74505805969E-08  0.10566000000E+00  0.10566000000E+00 0.  1.
     999900   -1    0    0    0    0 -0.00000000000E+00 -0.00000000000E+00 -0.74505805969E-08  0.93827000000E+00  0.93827000000E+00 0.  1.
     999902    2    1    2    0    0  0.38713427888E-02 -0.70096624092E-02 -0.12716635151E-01  0.10289021768E+01  0.10287924251E+01 0.  0.
     999903    2    3    3    0    0  0.58209129218E-02  0.77332772698E-01  0.10404625827E+00  0.13718976769E+00  0.44510310492E-01 0.  0.
         14    1    1    2    0    0 -0.38713427888E-02  0.70096624092E-02  0.12716635151E-01  0.15027823250E-01  0.00000000000E+00 0.  1.
     999901    1    3    3    0    0 -0.19495701331E-02 -0.84342435107E-01 -0.11676289342E+00  0.89171240906E+00  0.88000000000E+00 0.  1.
        -11    1    4    4    0    0 -0.80691302309E-02  0.51784072708E-01  0.37144334634E-01  0.64239113983E-01  0.51100000000E-03 0. -1.
         11    1    4    4    0    0  0.13890043153E-01  0.25548699990E-01  0.66901923635E-01  0.72950653712E-01  0.51100000000E-03 0.  1.
</event>
<event>
 8    1  0.2877139E+004  0.1043930E+01  0.7957747E-01            NaN
         13   -1    0    0    0    0  0.00000000000E+00  0.00000000000E+00  0.74505805969E-08  0.10566000000E+00  0.10566000000E+00 0.  1.
     999900   -1    0    0    0    0 -0.00000000000E+00 -0.00000000000E+00 -0.74505805969E-08  0.93827000000E+00  0.93827000000E+00 0.  1.
     999902    2    1    2    0    0 -0.71747361365E-03 -0.93042924583E-02 -0.11404515268E-02  0.10345286567E+01  0.10344859382E+01 0.  0.
     999903    2    3    3    0    0  0.74819939734E-01 -0.84742075177E-01  0.76499068496E-01  0.14468335836E+00  0.47978370312E-01 0.  0.
         14    1    1    2    0    0  0.71747361365E-03  0.93042924583E-02  0.11404515268E-02  0.94013433200E-02  0.00000000000E+00 0.  1.
     999901    1    3    3    0    0 -0.75537413348E-01  0.75437782718E-01 -0.77639520023E-01  0.88984529832E+00  0.88000000000E+00 0. -1.
        -11    1    4    4    0    0  0.32446566101E-01 -0.71063941332E-01  0.52179110566E-01  0.93945644443E-01  0.51100000000E-03 0. -1.
         11    1    4    4    0    0  0.42373373633E-01 -0.13678133844E-01  0.24319957930E-01  0.50737713914E-01  0.51100000000E-03 0.  1.
</event>
<event>
 8    1  0.2877139E+004  0.1043930E+01  0.7957747E-01            NaN
         13   -1    0    0    0    0  0.00000000000E+00  0.00000000000E+00  0.74505805969E-08  0.10566000000E+00  0.10566000000E+00 0. -1.
     999900   -1    0    0    0    0 -0.00000000000E+00 -0.00000000000E+00 -0.74505805969E-08  0.93827000000E+00  0.93827000000E+00 0. -1.
     999902    2    1    2    0    0  0.64674012231E-02 -0.14464533710E-01 -0.22646316768E-02  0.10279244206E+01  0.10277998035E+01 0.  0.
     999903    2    3    3    0    0 -0.44624671420E-01 -0.20525550216E-01 -0.12126900974E+00  0.13842502333E+00  0.45195739313E-01 0.  0.
         14    1    1    2    0    0 -0.64674012231E-02  0.14464533710E-01  0.22646316768E-02  0.16005579361E-01  0.00000000000E+00 0. -1.
     999901    1    3    3    0    0  0.51092072643E-01  0.60610165053E-02  0.11900437806E+00  0.88949939730E+00  0.88000000000E+00 0.  1.
        -11    1    4    4    0    0 -0.44393789739E-01 -0.79187545797E-02 -0.55773484007E-01  0.71724876304E-01  0.51100000000E-03 0. -1.
         11    1    4    4    0    0 -0.23088168113E-03 -0.12606795636E-01 -0.65495525728E-01  0.66700147031E-01  0.51100000000E-03 0.  1.
</event>
<event>
 8    1  0.2877139E+004  0.1043930E+01  0.7957747E-01            NaN
         13   -1    0    0    0    0  0.00000000000E+00  0.00000000000E+00  0.74505805969E-08  0.10566000000E+00  0.10566000000E+00 0. -1.
     999900   -1    0    0    0    0 -0.00000000000E+00 -0.00000000000E+00 -0.74505805969E-08  0.93827000000E+00  0.93827000000E+00 0. -1.
     999902    2    1    2    0    0  0.69654535628E-02  0.10098752602E-02  0.13649545369E-01  0.10285726734E+01  0.10284580191E+01 0.  0.
     999903    2    3    3    0    0 -0.12456671300E+00 -0.10124513128E-01  0.22470517572E-01  0.13868363819E+00  0.55757112449E-01 0.  0.
         14    1    1    2    0    0 -0.69654535628E-02 -0.10098752602E-02 -0.13649545369E-01  0.15357326595E-01  0.00000000000E+00 0.  1.
     999901    1    3    3    0    0  0.13153216656E+00  0.11134388389E-01 -0.88209722036E-02  0.88988903521E+00  0.88000000000E+00 0. -1.
        -11    1    4    4    0    0 -0.15506012759E-01 -0.22118557947E-01  0.21917506785E-02  0.27105939005E-01  0.51100000000E-03 0.  1.
         11    1    4    4    0    0 -0.10906070024E+00  0.11994044818E-01  0.20278766894E-01  0.11157769918E+00  0.51100000000E-03 0. -1.
</event>
<event>
 8    1  0.2877139E+004  0.1043930E+01  0.7957747E-01            NaN
         13   -1    0    0    0    0  0.00000000000E+00  0.00000000000E+00  0.74505805969E-08  0.10566000000E+00  0.10566000000E+00 0.  1.
     999900   -1    0    0    0    0 -0.00000000000E+00 -0.00000000000E+00 -0.74505805969E-08  0.93827000000E+00  0.93827000000E+00 0. -1.
     999902    2    1    2    0    0  0.40118691150E-02 -0.11306838958E-01  0.61621064862E-02  0.10304425519E+01  0.10303542796E+01 0.  0.
     999903    2    3    3    0    0 -0.11394943306E+00 -0.54571004464E-01  0.42856643821E-01  0.14076106621E+00  0.44883382445E-01 0.  0.
         14    1    1    2    0    0 -0.40118691150E-02  0.11306838958E-01 -0.61621064862E-02  0.13487448142E-01  0.00000000000E+00 0. -1.
     999901    1    3    3    0    0  0.11796130217E+00  0.43264165506E-01 -0.36694537334E-01  0.88968148564E+00  0.88000000000E+00 0. -1.
        -11    1    4    4    0    0 -0.68078484240E-02 -0.82154340881E-02 -0.80781160941E-02  0.13392432118E-01  0.51100000000E-03 0. -1.
         11    1    4    4    0    0 -0.10714158463E+00 -0.46355570376E-01  0.50934759915E-01  0.12736863410E+00  0.51100000000E-03 0.  1.
</event>
<event>
 8    1  0.2877139E+004  0.1043930E+01  0.7957747E-01            NaN
         13   -1    0    0    0    0  0.00000000000E+00  0.00000000000E+00  0.74505805969E-08  0.10566000000E+00  0.10566000000E+00 0.  1.
     999900   -1    0    0    0    0 -0.00000000000E+00 -0.00000000000E+00 -0.74505805969E-08  0.93827000000E+00  0.93827000000E+00 0.  1.
     999902    2    1    2    0    0  0.12426175443E-01  0.14704147091E-02 -0.14793786642E-02  0.10313299795E+01  0.10312530078E+01 0.  0.
     999903    2    3    3    0    0  0.21459540532E-01 -0.83109818643E-01  0.10272278410E+00  0.14110893487E+00  0.44631908916E-01 0.  0.
         14    1    1    2    0    0 -0.12426175443E-01 -0.14704147091E-02  0.14793786642E-02  0.12600020507E-01  0.00000000000E+00 0.  1.
     999901    1    3    3    0    0 -0.90333650897E-02  0.84580233352E-01 -0.10420216276E+00  0.89022104462E+00  0.88000000000E+00 0. -1.
        -11    1    4    4    0    0 -0.57411439734E-02 -0.39991597853E-01  0.23042080777E-01  0.46513301759E-01  0.51100000000E-03 0. -1.
         11    1    4    4    0    0  0.27200684506E-01 -0.43118220790E-01  0.79680703321E-01  0.94595633115E-01  0.51100000000E-03 0.  1.
</event>
<event>
 7    1  0.2877139E+004  0.1043930E+01  0.7957747E-01            NaN
         13   -1    0    0    0    0  0.00000000000E+00  0.00000000000E+00  0.74505805969E-08  0.10566000000E+00  0.10566000000E+00 0. -1.
     999900   -1    0    0    0    0 -0.00000000000E+00 -0.00000000000E+00 -0.74505805969E-08  0.93827000000E+00  0.93827000000E+00 0. -1.
     999903    2    1    2    0    0 -0.21328357678E-01  0.83539428252E-01  0.78413761813E-01  0.12382187972E+00  0.41825888426E-01 0.  0.
         14    1    1    2    0    0 -0.23938651245E-01  0.29549315986E-02  0.17108546669E-01  0.29571828034E-01  0.00000000000E+00 0.  1.
     999901    1    1    2    0    0  0.45267008923E-01 -0.86494359851E-01 -0.95522308482E-01  0.89053629224E+00  0.88000000000E+00 0. -1.
        -11    1    3    3    0    0  0.53778308920E-02  0.28506568621E-01  0.71081012832E-02  0.29871922343E-01  0.51100000000E-03 0. -1.
         11    1    3    3    0    0 -0.26706188570E-01  0.55032859631E-01  0.71305660530E-01  0.93949957380E-01  0.51100000000E-03 0.  1.
</event>
<event>
 8    1  0.2877139E+004  0.1043930E+01  0.7957747E-01            NaN
         13   -1    0    0    0    0  0.00000000000E+00  0.00000000000E+00  0.74505805969E-08  0.10566000000E+00  0.10566000000E+00 0.  1.
     999900   -1    0    0    0    0 -0.00000000000E+00 -0.00000000000E+00 -0.74505805969E-08  0.93827000000E+00  0.93827000000E+00 0.  1.
     999902    2    1    2    0    0  0.10255947845E-01 -0.51079802541E-02  0.62189779810E-02  0.10308934508E+01  0.10308110182E+01 0.  0.
     999903    2    3    3    0    0  0.80544908742E-01  0.20002364189E-01  0.10338727906E+00  0.14240442656E+00  0.51985712786E-01 0.  0.
         14    1    1    2    0    0 -0.10255947845E-01  0.51079802541E-02 -0.62189779810E-02  0.13036549222E-01  0.00000000000E+00 0. -1.
     999901    1    3    3    0    0 -0.70288960897E-01 -0.25110344444E-01 -0.97168301083E-01  0.88848902422E+00  0.88000000000E+00 0.  1.
        -11    1    4    4    0    0  0.28473669079E-01 -0.17450409818E-01  0.29532351967E-01  0.44583489851E-01  0.51100000000E-03 0. -1.
         11    1    4    4    0    0  0.52071239664E-01  0.37452774007E-01  0.73854927097E-01  0.97820936708E-01  0.51100000000E-03 0.  1.
</event>
<event>
 8    1  0.2877139E+004  0.1043930E+01  0.7957747E-01            NaN
         13   -1    0    0    0    0  0.00000000000E+00  0.00000000000E+00  0.74505805969E-08  0.10566000000E+00  0.10566000000E+00 0.  1.
     999900   -1    0    0    0    0 -0.00000000000E+00 -0.00000000000E+00 -0.74505805969E-08  0.93827000000E+00  0.93827000000E+00 0.  1.
     999902    2    1    2    0    0  0.30797099490E-02 -0.10746526416E-01  0.94459780475E-02  0.10292944630E+01  0.10291904063E+01 0.  0.
     999903    2    3    3    0    0 -0.40188624596E-01 -0.10376394933E+00 -0.68842666088E-01  0.13988257775E+00  0.49454425034E-01 0.  0.
         14    1    1    2    0    0 -0.30797099490E-02  0.10746526416E-01 -0.94459780475E-02  0.14635537047E-01  0.00000000000E+00 0.  1.
     999901    1    3    3    0    0  0.43268334545E-01  0.93017422918E-01  0.78288644136E-01  0.88941188520E+00  0.88000000000E+00 0. -1.
        -11    1    4    4    0    0  0.19220806615E-02 -0.48204308495E-01 -0.45622438985E-01  0.66400435326E-01  0.51100000000E-03 0.  1.
         11    1    4    4    0    0 -0.42110705257E-01 -0.55559640839E-01 -0.23220227103E-01  0.73482142424E-01  0.51100000000E-03 0. -1.
</event>
<event>
 8    1  0.2877139E+004  0.1043930E+01  0.7957747E-01            NaN
         13   -1    0    0    0    0  0.00000000000E+00  0.00000000000E+00  0.74505805969E-08  0.10566000000E+00  0.10566000000E+00 0. -1.
     999900   -1    0    0    0    0 -0.00000000000E+00 -0.00000000000E+00 -0.74505805969E-08  0.93827000000E+00  0.93827000000E+00 0.  1.
     999902    2    1    2    0    0 -0.22064642331E-02 -0.10258364992E-01 -0.58437828749E-02  0.10319194906E+01  0.10318495931E+01 0.  0.
     999903    2    3    3    0    0  0.94504734164E-01  0.60447825652E-01  0.71666879646E-01  0.14042617934E+00  0.44702190113E-01 0.  0.
         14    1    1    2    0    0  0.22064642331E-02  0.10258364992E-01  0.58437828749E-02  0.12010509357E-01  0.00000000000E+00 0. -1.
     999901    1    3    3    0    0 -0.96711198397E-01 -0.70706190644E-01 -0.77510662521E-01  0.89149331130E+00  0.88000000000E+00 0.  1.
        -11    1    4    4    0    0  0.77745805911E-02  0.24493867671E-01  0.77502983331E-02  0.26846264212E-01  0.51100000000E-03 0.  1.
         11    1    4    4    0    0  0.86730153573E-01  0.35953957981E-01  0.63916581313E-01  0.11357991513E+00  0.51100000000E-03 0. -1.
</event>
<event>
 8    1  0.2877139E+004  0.1043930E+01  0.7957747E-01            NaN
         13   -1    0    0    0    0  0.00000000000E+00  0.00000000000E+00  0.74505805969E-08  0.10566000000E+00  0.10566000000E+00 0. -1.
     999900   -1    0    0    0    0 -0.00000000000E+00 -0.00000000000E+00 -0.74505805969E-08  0.93827000000E+00  0.93827000000E+00 0.  1.
     999902    2    1    2    0    0 -0.26008804790E-02 -0.12365334549E-01  0.51034434814E-02  0.10303024099E+01  0.10302122813E+01 0.  0.
     999903    2    3    3    0    0  0.62366516938E-01 -0.28710185972E-01  0.11496012560E+00  0.14094510961E+00  0.43998138959E-01 0.  0.
         14    1    1    2    0    0  0.26008804790E-02  0.12365334549E-01 -0.51034434814E-02  0.13627590144E-01  0.00000000000E+00 0.  1.
     999901    1    3    3    0    0 -0.64967397417E-01  0.16344851424E-01 -0.10985668212E+00  0.88935730025E+00  0.88000000000E+00 0.  1.
        -11    1    4    4    0    0  0.90908307841E-02  0.11504299046E-01  0.23797823332E-01  0.27956924316E-01  0.51100000000E-03 0.  1.
         11    1    4    4    0    0  0.53275686153E-01 -0.40214485018E-01  0.91162302267E-01  0.11298818529E+00  0.51100000000E-03 0. -1.
</event>
<event>
 7    1  0.2877139E+004  0.1043930E+01  0.7957747E-01            NaN
         13   -1    0    0    0    0  0.00000000000E+00  0.00000000000E+00  0.74505805969E-08  0.10566000000E+00  0.10566000000E+00 0.  1.
     999900   -1    0    0    0    0 -0.00000000000E+00 -0.00000000000E+00 -0.74505805969E-08  0.93827000000E+00  0.93827000000E+00 0. -1.
     999903    2    1    2    0    0 -0.43320788018E-01  0.29430656075E-01  0.68131207153E-01  0.96989932756E-01  0.44970339962E-01 0.  0.
         14    1    1    2    0    0  0.25921099208E-01 -0.53106294294E-01  0.19184854206E-01  0.62130833801E-01  0.00000000000E+00 0. -1.
     999901    1    1    2    0    0  0.17399688810E-01  0.23675638219E-01 -0.87316061360E-01  0.88480923344E+00  0.88000000000E+00 0. -1.
        -11    1    3    3    0    0 -0.37467859436E-01  0.48000824682E-02  0.20340598255E-01  0.42905504784E-01  0.51100000000E-03 0. -1.
         11    1    3    3    0    0 -0.58529285826E-02  0.24630573607E-01  0.47790608898E-01  0.54084427972E-01  0.51100000000E-03 0.  1.
</event>
<event>
 8    1  0.2877139E+004  0.1043930E+01  0.7957747E-01            NaN
         13   -1    0    0    0    0  0.00000000000E+00  0.00000000000E+00  0.74505805969E-08  0.10566000000E+00  0.10566000000E+00 0.  1.
     999900   -1    0    0    0    0 -0.00000000000E+00 -0.00000000000E+00 -0.74505805969E-08  0.93827000000E+00  0.93827000000E+00 0.  1.
     999902    2    1    2    0    0 -0.17022091862E-02  0.13648138937E-01 -0.56266527368E-03  0.10301646157E+01  0.10300726429E+01 0.  0.
     999903    2    3    3    0    0  0.82210371423E-01 -0.99533083303E-01  0.20573614748E-01  0.13870623048E+00  0.46376339973E-01 0.  0.
         14    1    1    2    0    0  0.17022091862E-02 -0.13648138937E-01  0.56266527368E-03  0.13765384294E-01  0.00000000000E+00 0.  1.
     999901    1    3    3    0    0 -0.83912580610E-01  0.11318122224E+00 -0.21136280022E-01  0.89145838522E+00  0.88000000000E+00 0. -1.
        -11    1    4    4    0    0  0.49476702725E-01 -0.90516464953E-01  0.17214918761E-01  0.10458388542E+00  0.51100000000E-03 0. -1.
         11    1    4    4    0    0  0.32733668699E-01 -0.90166183502E-02  0.33586959875E-02  0.34122345064E-01  0.51100000000E-03 0.  1.
</event>
<event>
 7    1  0.2877139E+004  0.1043930E+01  0.7957747E-01            NaN
         13   -1    0    0    0    0  0.00000000000E+00  0.00000000000E+00  0.74505805969E-08  0.10566000000E+00  0.10566000000E+00 0. -1.
     999900   -1    0    0    0    0 -0.00000000000E+00 -0.00000000000E+00 -0.74505805969E-08  0.93827000000E+00  0.93827000000E+00 0.  1.
     999902    2    1    2    0    0 -0.60191021528E-02 -0.12258829721E-01  0.36495395482E-02  0.10297939597E+01  0.10296969320E+01 0.  0.
         14    1    1    2    0    0  0.60191021528E-02  0.12258829721E-01 -0.36495395482E-02  0.14136040314E-01  0.00000000000E+00 0.  1.
     999901    1    3    3    0    0 -0.17996504034E-01 -0.69064566001E-01 -0.10846983533E+00  0.88952768007E+00  0.88000000000E+00 0.  1.
        -11    1    3    3    0    0 -0.40862264883E-02  0.14935495135E-01  0.87980021415E-01  0.89333708929E-01  0.51100000000E-03 0. -1.
         11    1    3    3    0    0  0.16063628369E-01  0.41870241145E-01  0.24139353468E-01  0.50932570687E-01  0.51100000000E-03 0.  1.
</event>
<event>
 8    1  0.2877139E+004  0.1043930E+01  0.7957747E-01            NaN
         13   -1    0    0    0    0  0.00000000000E+00  0.00000000000E+00  0.74505805969E-08  0.10566000000E+00  0.10566000000E+00 0.  1.
     999900   -1    0    0    0    0 -0.00000000000E+00 -0.00000000000E+00 -0.74505805969E-08  0.93827000000E+00  0.93827000000E+00 0.  1.
     999902    2    1    2    0    0  0.12963149575E-01  0.78659551763E-02  0.11521557725E-02  0.10287232922E+01  0.10286108924E+01 0.  0.
     999903    2    3    3    0    0  0.10221429462E+00  0.61318268313E-01 -0.58771668233E-01  0.14057140132E+00  0.45809582291E-01 0.  0.
         14    1    1    2    0    0 -0.12963149575E-01 -0.78659551763E-02 -0.11521557725E-02  0.15206707752E-01  0.00000000000E+00 0.  1.
     999901    1    3    3    0    0 -0.89251145042E-01 -0.53452313137E-01  0.59923824006E-01  0.88815189093E+00  0.88000000000E+00 0. -1.
        -11    1    4    4    0    0  0.50663242793E-01  0.56376361357E-01 -0.32067689036E-01  0.82302224097E-01  0.51100000000E-03 0. -1.
         11    1    4    4    0    0  0.51551051825E-01  0.49419069563E-02 -0.26703979197E-01  0.58269177225E-01  0.51100000000E-03 0.  1.
</event>
<event>
 8    1  0.2877139E+004  0.1043930E+01  0.7957747E-01            NaN
         13   -1    0    0    0    0  0.00000000000E+00  0.00000000000E+00  0.74505805969E-08  0.10566000000E+00  0.10566000000E+00 0.  1.
     999900   -1    0    0    0    0 -0.00000000000E+00 -0.00000000000E+00 -0.74505805969E-08  0.93827000000E+00  0.93827000000E+00 0.  1.
     999902    2    1    2    0    0 -0.10403767958E-03 -0.14354338218E-01  0.20521873729E-02  0.10294293337E+01  0.10293271996E+01 0.  0.
     999903    2    3    3    0    0 -0.42320239422E-01 -0.36140785544E-01  0.12147648269E+00  0.14009305352E+00  0.42099510111E-01 0.  0.
         14    1    1    2    0    0  0.10403767958E-03  0.14354338218E-01 -0.20521873729E-02  0.14500666279E-01  0.00000000000E+00 0. -1.
     999901    1    3    3    0    0  0.42216201743E-01  0.21786447326E-01 -0.11942429532E+00  0.88933628021E+00  0.88000000000E+00 0.  1.
        -11    1    4    4    0    0 -0.47065912405E-02 -0.30091320739E-01  0.41242617311E-01  0.51272353062E-01  0.51100000000E-03 0.  1.
         11    1    4    4    0    0 -0.37613648182E-01 -0.60494648049E-02  0.80233865382E-01  0.88820700454E-01  0.51100000000E-03 0. -1.
</event>
<event>
 8    1  0.2877139E+004  0.1043930E+01  0.7957747E-01            NaN
         13   -1    0    0    0    0  0.00000000000E+00  0.00000000000E+00  0.74505805969E-08  0.10566000000E+00  0.10566000000E+00 0.  1.
     999900   -1    0    0    0    0 -0.00000000000E+00 -0.00000000000E+00 -0.74505805969E-08  0.93827000000E+00  0.93827000000E+00 0.  1.
     999902    2    1    2    0    0  0.83218611075E-02  0.10670043976E-01  0.36118685415E-02  0.10299246865E+01  0.10298294573E+01 0.  0.
     999903    2    3    3    0    0  0.12103108451E+00  0.48078640555E-01 -0.29906038921E-01  0.14131553609E+00  0.45995983339E-01 0.  0.
         14    1    1    2    0    0 -0.83218611075E-02 -0.10670043976E-01 -0.36118685415E-02  0.14005313460E-01  0.00000000000E+00 0. -1.
     999901    1    3    3    0    0 -0.11270922340E+00 -0.37408596579E-01  0.33517907463E-01  0.88860915045E+00  0.88000000000E+00 0.  1.
        -11    1    4    4    0    0  0.38455801369E-01  0.59552264833E-02  0.10321824481E-01  0.40263066985E-01  0.51100000000E-03 0.  1.
         11    1    4    4    0    0  0.82575283136E-01  0.42123414072E-01 -0.40227863402E-01  0.10105246911E+00  0.51100000000E-03 0. -1.
</event>
<event>
 8    1  0.2877139E+004  0.1043930E+01  0.7957747E-01            NaN
         13   -1    0    0    0    0  0.00000000000E+00  0.00000000000E+00  0.74505805969E-08  0.10566000000E+00  0.10566000000E+00 0.  1.
     999900   -1    0    0    0    0 -0.00000000000E+00 -0.00000000000E+00 -0.74505805969E-08  0.93827000000E+00  0.93827000000E+00 0. -1.
     999902    2    1    2    0    0 -0.54116060692E-02 -0.85271526609E-02  0.10384350974E-01  0.10294444017E+01  0.10293424812E+01 0.  0.
     999903    2    3    3    0    0 -0.11933728818E+00 -0.26250638354E-01  0.54633572386E-01  0.14082121014E+00  0.43764159209E-01 0.  0.
         14    1    1    2    0    0  0.54116060692E-02  0.85271526609E-02 -0.10384350974E-01  0.14485598293E-01  0.00000000000E+00 0.  1.
     999901    1    3    3    0    0  0.11392568211E+00  0.17723485694E-01 -0.44249221411E-01  0.88862319156E+00  0.88000000000E+00 0. -1.
        -11    1    4    4    0    0 -0.28979610657E-01 -0.13662170040E-01 -0.41215511126E-02  0.32306671580E-01  0.51100000000E-03 0. -1.
         11    1    4    4    0    0 -0.90357677520E-01 -0.12588468315E-01  0.58755123498E-01  0.10851453856E+00  0.51100000000E-03 0.  1.
</event>
<event>
 8    1  0.2877139E+004  0.1043930E+01  0.7957747E-01            NaN
         13   -1    0    0    0    0  0.00000000000E+00  0.00000000000E+00  0.74505805969E-08  0.10566000000E+00  0.10566000000E+00 0. -1.
     999900   -1    0    0    0    0 -0.00000000000E+00 -0.00000000000E+00 -0.74505805969E-08  0.93827000000E+00  0.93827000000E+00 0. -1.
     999902    2    1    2    0    0 -0.28222007755E-02  0.12630611858E-01 -0.65249441955E-02  0.10294361368E+01  0.10293340992E+01 0.  0.
     999903    2    3    3    0    0  0.12387065236E+00 -0.41281375934E-01  0.11359766102E-01  0.13855037292E+00  0.44934074307E-01 0.  0.
         14    1    1    2    0    0  0.28222007755E-02 -0.12630611858E-01  0.65249441955E-02  0.14493863180E-01  0.00000000000E+00 0.  1.
     999901    1    3    3    0    0 -0.12669285314E+00  0.53911987792E-01 -0.17884710298E-01  0.89088576390E+00  0.88000000000E+00 0.  1.
        -11    1    4    4    0    0  0.64774961002E-01  0.61890328440E-03  0.13072153221E-01  0.66085708931E-01  0.51100000000E-03 0.  1.
         11    1    4    4    0    0  0.59095691360E-01 -0.41900279218E-01 -0.17123871189E-02  0.72464663986E-01  0.51100000000E-03 0. -1.
</event>
<event>
 8    1  0.2877139E+004  0.1043930E+01  0.7957747E-01            NaN
         13   -1    0    0    0    0  0.00000000000E+00  0.00000000000E+00  0.74505805969E-08  0.10566000000E+00  0.10566000000E+00 0.  1.
     999900   -1    0    0    0    0 -0.00000000000E+00 -0.00000000000E+00 -0.74505805969E-08  0.93827000000E+00  0.93827000000E+00 0. -1.
     999902    2    1    2    0    0 -0.67750767020E-03 -0.14476170858E-01 -0.20308837989E-02  0.10292963734E+01  0.10291923441E+01 0.  0.
     999903    2    3    3    0    0  0.10212951954E+00  0.62624557172E-01  0.52351194378E-01  0.13830186299E+00  0.45105252794E-01 0.  0.
         14    1    1    2    0    0  0.67750767020E-03  0.14476170858E-01  0.20308837989E-02  0.14633626630E-01  0.00000000000E+00 0.  1.
     999901    1    3    3    0    0 -0.10280702721E+00 -0.77100728030E-01 -0.54382078177E-01  0.89099451038E+00  0.88000000000E+00 0. -1.
        -11    1    4    4    0    0  0.54675116183E-01  0.91641793656E-02  0.14009064374E-01  0.57182737944E-01  0.51100000000E-03 0.  1.
         11    1    4    4    0    0  0.47454403359E-01  0.53460377807E-01  0.38342130004E-01  0.81119125042E-01  0.51100000000E-03 0. -1.
</event>
<event>
 8    1  0.2877139E+004  0.1043930E+01  0.7957747E-01            NaN
         13   -1    0    0    0    0  0.00000000000E+00  0.00000000000E+00  0.74505805969E-08  0.10566000000E+00  0.10566000000E+00 0.  1.
     999900   -1    0    0    0    0 -0.00000000000E+00 -0.00000000000E+00 -0.74505805969E-08  0.93827000000E+00  0.93827000000E+00 0. -1.
     999902    2    1    2    0    0  0.10405656801E-01  0.94645510186E-02 -0.81074321074E-04  0.10298636575E+01  0.10297675908E+01 0.  0.
     999903    2    3    3    0    0  0.22899998785E-02  0.13055367131E+00  0.28546786470E-01  0.14107347223E+00  0.45136463740E-01 0.  0.
         14    1    1    2    0    0 -0.10405656801E-01 -0.94645510186E-02  0.81074321074E-04  0.14066342542E-01  0.00000000000E+00 0.  1.
     999901    1    3    3    0    0  0.81156569229E-02 -0.12108912029E+00 -0.28627860791E-01  0.88879018523E+00  0.88000000000E+00 0. -1.
        -11    1    4    4    0    0 -0.18180437741E-01  0.47404288831E-01 -0.10512153668E-03  0.50773684991E-01  0.51100000000E-03 0.  1.
         11    1    4    4    0    0  0.20470437620E-01  0.83149382475E-01  0.28651908007E-01  0.90299787241E-01  0.51100000000E-03 0. -1.
</event>
<event>
 8    1  0.2877139E+004  0.1043930E+01  0.7957747E-01            NaN
         13   -1    0    0    0    0  0.00000000000E+00  0.00000000000E+00  0.74505805969E-08  0.10566000000E+00  0.10566000000E+00 0. -1.
     999900   -1    0    0    0    0 -0.00000000000E+00 -0.00000000000E+00 -0.74505805969E-08  0.93827000000E+00  0.93827000000E+00 0. -1.
     999902    2    1    2    0    0 -0.96831158026E-02 -0.54744393851E-02  0.66797872277E-02  0.10309549557E+01  0.10308733040E+01 0.  0.
     999903    2    3    3    0    0  0.10612274898E+00 -0.64246664922E-01  0.48286500417E-01  0.14045156353E+00  0.44781511494E-01 0.  0.
         14    1    1    2    0    0  0.96831158026E-02  0.54744393851E-02 -0.66797872277E-02  0.12975044340E-01  0.00000000000E+00 0.  1.
     999901    1    3    3    0    0 -0.11580586478E+00  0.58772225537E-01 -0.41606713190E-01  0.89050339213E+00  0.88000000000E+00 0. -1.
        -11    1    4    4    0    0  0.16131396203E-01 -0.87115210116E-02 -0.87287205204E-02  0.20311677053E-01  0.51100000000E-03 0. -1.
         11    1    4    4    0    0  0.89991352773E-01 -0.55535143910E-01  0.57015220938E-01  0.12013988648E+00  0.51100000000E-03 0.  1.
</event>
<event>
 8    1  0.2877139E+004  0.1043930E+01  0.7957747E-01            NaN
         13   -1    0    0    0    0  0.00000000000E+00  0.00000000000E+00  0.74505805969E-08  0.10566000000E+00  0.10566000000E+00 0. -1.
     999900   -1    0    0    0    0 -0.00000000000E+00 -0.00000000000E+00 -0.74505805969E-08  0.93827000000E+00  0.93827000000E+00 0.  1.
     999902    2    1    2    0    0  0.81148514706E-02  0.10820318142E-01 -0.36417606927E-02  0.10299231260E+01  0.10298278754E+01 0.  0.
     999903    2    3    3    0    0  0.13267098334E+00 -0.33438767065E-02 -0.16110481883E-01  0.14095162845E+00  0.44665899793E-01 0.  0.
         14    1    1    2    0    0 -0.81148514706E-02 -0.10820318142E-01  0.36417606927E-02  0.14006874028E-01  0.00000000000E+00 0. -1.
     999901    1    3    3    0    0 -0.12455613187E+00  0.14164194848E-01  0.12468721190E-01  0.88897149752E+00  0.88000000000E+00 0.  1.
        -11    1    4    4    0    0  0.88000063084E-01  0.11038409901E-01  0.63577340529E-02  0.88918724120E-01  0.51100000000E-03 0.  1.
         11    1    4    4    0    0  0.44670920255E-01 -0.14382286608E-01 -0.22468215936E-01  0.52032904328E-01  0.51100000000E-03 0. -1.
</event>
<event>
 8    1  0.2877139E+004  0.1043930E+01  0.7957747E-01            NaN
         13   -1    0    0    0    0  0.00000000000E+00  0.00000000000E+00  0.74505805969E-08  0.10566000000E+00  0.10566000000E+00 0.  1.
     999900   -1    0    0    0    0 -0.00000000000E+00 -0.00000000000E+00 -0.74505805969E-08  0.93827000000E+00  0.93827000000E+00 0. -1.
     999902    2    1    2    0    0  0.10221860072E-01  0.49913207336E-02  0.81791004975E-02  0.10299193829E+01  0.10298240811E+01 0.  0.
     999903    2    3    3    0    0  0.90400902688E-01  0.90796737870E-01 -0.38694588817E-01  0.14088148090E+00  0.43976694300E-01 0.  0.
         14    1    1    2    0    0 -0.10221860072E-01 -0.49913207336E-02 -0.81791004975E-02  0.14010617079E-01  0.00000000000E+00 0. -1.
     999901    1    3    3    0    0 -0.80179042616E-01 -0.85805417136E-01  0.46873689314E-01  0.88903790202E+00  0.88000000000E+00 0.  1.
        -11    1    4    4    0    0  0.63911065521E-01  0.56009423938E-01 -0.45866174777E-01  0.96569389433E-01  0.51100000000E-03 0. -1.
         11    1    4    4    0    0  0.26489837167E-01  0.34787313931E-01  0.71715859601E-02  0.44312091464E-01  0.51100000000E-03 0.  1.
</event>
<event>
 8    1  0.2877139E+004  0.1043930E+01  0.7957747E-01            NaN
         13   -1    0    0    0    0  0.00000000000E+00  0.00000000000E+00  0.74505805969E-08  0.10566000000E+00  0.10566000000E+00 0. -1.
     999900   -1    0    0    0    0 -0.00000000000E+00 -0.00000000000E+00 -0.74505805969E-08  0.93827000000E+00  0.93827000000E+00 0. -1.
     999902    2    1    2    0    0  0.38481480191E-02  0.58859146152E-03  0.13422009022E-01  0.10299548431E+01  0.10298600264E+01 0.  0.
     999903    2    3    3    0    0 -0.12212503855E+00 -0.34237307478E-01  0.22825396380E-01  0.14025235879E+00  0.55344441100E-01 0.  0.
         14    1    1    2    0    0 -0.38481480191E-02 -0.58859146152E-03 -0.13422009022E-01  0.13975156861E-01  0.00000000000E+00 0.  1.
     999901    1    3    3    0    0  0.12597318657E+00  0.34825898939E-01 -0.94033873578E-02  0.88970248435E+00  0.88000000000E+00 0.  1.
        -11    1    4    4    0    0 -0.34526374308E-01 -0.36683284012E-01  0.13281921812E-01  0.52099946418E-01  0.51100000000E-03 0. -1.
         11    1    4    4    0    0 -0.87598664243E-01  0.24459765348E-02  0.95434745686E-02  0.88152412367E-01  0.51100000000E-03 0.  1.
</event>
<event>
 8    1  0.2877139E+004  0.1043930E+01  0.7957747E-01            NaN
         13   -1    0    0    0    0  0.00000000000E+00  0.00000000000E+00  0.74505805969E-08  0.10566000000E+00  0.10566000000E+00 0.  1.
     999900   -1    0    0    0    0 -0.00000000000E+00 -0.00000000000E+00 -0.74505805969E-08  0.93827000000E+00  0.93827000000E+00 0. -1.
     999902    2    1    2    0    0 -0.20264508280E-01 -0.66067221107E-03  0.19089471226E-01  0.10160822946E+01  0.10157006127E+01 0.  0.
     999903    2    3    3    0    0  0.21428882277E-01  0.98749734897E-01  0.65432598996E-01  0.12829377624E+00  0.44352687334E-01 0.  0.
         14    1    1    2    0    0  0.20264508280E-01  0.66067221107E-03 -0.19089471226E-01  0.27847705386E-01  0.00000000000E+00 0. -1.
     999901    1    3    3    0    0 -0.41693390557E-01 -0.99410407108E-01 -0.46343127770E-01  0.88778851837E+00  0.88000000000E+00 0. -1.
        -11    1    4    4    0    0 -0.90860059975E-02  0.61412940828E-01  0.38678135672E-01  0.73146183128E-01  0.51100000000E-03 0.  1.
         11    1    4    4    0    0  0.30514888274E-01  0.37336794069E-01  0.26754463324E-01  0.55147593116E-01  0.51100000000E-03 0. -1.
</event>
<event>
 7    1  0.2877139E+004  0.1043930E+01  0.7957747E-01            NaN
         13   -1    0    0    0    0  0.00000000000E+00  0.00000000000E+00  0.74505805969E-08  0.10566000000E+00  0.10566000000E+00 0.  1.
     999900   -1    0    0    0    0 -0.00000000000E+00 -0.00000000000E+00 -0.74505805969E-08  0.93827000000E+00  0.93827000000E+00 0.  1.
     999902    2    1    2    0    0 -0.10140489048E-01  0.39843695106E-02  0.90538726492E-02  0.10297639374E+01  0.10296664943E+01 0.  0.
         14    1    1    2    0    0  0.10140489048E-01 -0.39843695106E-02 -0.90538726492E-02  0.14166062561E-01  0.00000000000E+00 0. -1.
     999901    1    3    3    0    0 -0.11974770769E+00  0.45273572981E-01  0.27404027544E-01  0.88968544477E+00  0.88000000000E+00 0.  1.
        -11    1    3    3    0    0  0.31532611555E-01 -0.50751907863E-01 -0.13644312470E-01  0.61290212326E-01  0.51100000000E-03 0. -1.
         11    1    3    3    0    0  0.78074607085E-01  0.94627043928E-02 -0.47058424243E-02  0.78788280345E-01  0.51100000000E-03 0.  1.
</event>
<event>
 8    1  0.2877139E+004  0.1043930E+01  0.7957747E-01            NaN
         13   -1    0    0    0    0  0.00000000000E+00  0.00000000000E+00  0.74505805969E-08  0.10566000000E+00  0.10566000000E+00 0.  1.
     999900   -1    0    0    0    0 -0.00000000000E+00 -0.00000000000E+00 -0.74505805969E-08  0.93827000000E+00  0.93827000000E+00 0. -1.
     999902    2    1    2    0    0  0.40456097502E-02 -0.66413857271E-02  0.85090836975E-02  0.10324026643E+01  0.10323383078E+01 0.  0.
     999903    2    3    3    0    0 -0.98430233987E-01  0.90172717423E-01  0.12341085673E-01  0.14117376366E+00  0.44250414925E-01 0.  0.
         14    1    1    2    0    0 -0.40456097502E-02  0.66413857271E-02 -0.85090836975E-02  0.11527335685E-01  0.00000000000E+00 0. -1.
     999901    1    3    3    0    0  0.10247584374E+00 -0.96814103150E-01 -0.38320019760E-02  0.89122890065E+00  0.88000000000E+00 0.  1.
        -11    1    4    4    0    0 -0.38441464135E-01  0.40031956712E-01 -0.16396286282E-01  0.57874027404E-01  0.51100000000E-03 0.  1.
         11    1    4    4    0    0 -0.59988769852E-01  0.50140760710E-01  0.28737371956E-01  0.83299736259E-01  0.51100000000E-03 0. -1.
</event>
<event>
 8    1  0.2877139E+004  0.1043930E+01  0.7957747E-01            NaN
         13   -1    0    0    0    0  0.00000000000E+00  0.00000000000E+00  0.74505805969E-08  0.10566000000E+00  0.10566000000E+00 0.  1.
     999900   -1    0    0    0    0 -0.00000000000E+00 -0.00000000000E+00 -0.74505805969E-08  0.93827000000E+00  0.93827000000E+00 0.  1.
     999902    2    1    2    0    0 -0.20766209219E-02 -0.11440153103E-01  0.65601461232E-02  0.10305799073E+01  0.10304934354E+01 0.  0.
     999903    2    3    3    0    0  0.11508563252E+00  0.32698486773E-01  0.57686195021E-01  0.14024902161E+00  0.45035509521E-01 0.  0.
         14    1    1    2    0    0  0.20766209219E-02  0.11440153103E-01 -0.65601461232E-02  0.13350092682E-01  0.00000000000E+00 0.  1.
     999901    1    3    3    0    0 -0.11716225344E+00 -0.44138639876E-01 -0.51126048898E-01  0.89033088570E+00  0.88000000000E+00 0.  1.
        -11    1    4    4    0    0  0.99558519732E-01  0.38498299792E-01  0.35380858526E-01  0.11245480963E+00  0.51100000000E-03 0.  1.
         11    1    4    4    0    0  0.15527112788E-01 -0.57998130186E-02  0.22305336495E-01  0.27794211983E-01  0.51100000000E-03 0. -1.
</event>
<event>
 8    1  0.2877139E+004  0.1043930E+01  0.7957747E-01            NaN
         13   -1    0    0    0    0  0.00000000000E+00  0.00000000000E+00  0.74505805969E-08  0.10566000000E+00  0.10566000000E+00 0. -1.
     999900   -1    0    0    0    0 -0.00000000000E+00 -0.00000000000E+00 -0.74505805969E-08  0.93827000000E+00  0.93827000000E+00 0.  1.
     999902    2    1    2    0    0  0.12474934779E-01  0.47691814506E-02  0.13750373660E-02  0.10305039128E+01  0.10304164471E+01 0.  0.
     999903    2    3    3    0    0  0.33771618158E-01  0.59399769571E-01  0.11559985131E+00  0.14118655776E+00  0.43605775419E-01 0.  0.
         14    1    1    2    0    0 -0.12474934779E-01 -0.47691814506E-02 -0.13750373660E-02  0.13426087189E-01  0.00000000000E+00 0. -1.
     999901    1    3    3    0    0 -0.21296683379E-01 -0.54630588121E-01 -0.11422481394E+00  0.88931735505E+00  0.88000000000E+00 0.  1.
        -11    1    4    4    0    0  0.35546945924E-01  0.36732495109E-01  0.48999014819E-01  0.70809788417E-01  0.51100000000E-03 0. -1.
         11    1    4    4    0    0 -0.17753277661E-02  0.22667274462E-01  0.66600836491E-01  0.70376769338E-01  0.51100000000E-03 0.  1.
</event>
<event>
 8    1  0.2877139E+004  0.1043930E+01  0.7957747E-01            NaN
         13   -1    0    0    0    0  0.00000000000E+00  0.00000000000E+00  0.74505805969E-08  0.10566000000E+00  0.10566000000E+00 0. -1.
     999900   -1    0    0    0    0 -0.00000000000E+00 -0.00000000000E+00 -0.74505805969E-08  0.93827000000E+00  0.93827000000E+00 0. -1.
     999902    2    1    2    0    0  0.50088784250E-02 -0.12845750113E-01  0.21634039508E-03  0.10301405489E+01  0.10300482520E+01 0.  0.
     999903    2    3    3    0    0  0.77898717072E-01  0.32832618799E-01 -0.10221275565E+00  0.14003316116E+00  0.44895966718E-01 0.  0.
         14    1    1    2    0    0 -0.50088784250E-02  0.12845750113E-01 -0.21634039508E-03  0.13789451120E-01  0.00000000000E+00 0.  1.
     999901    1    3    3    0    0 -0.72889838647E-01 -0.45678368911E-01  0.10242909604E+00  0.89010738772E+00  0.88000000000E+00 0.  1.
        -11    1    4    4    0    0  0.17812370089E-01 -0.88608522557E-02 -0.37150133791E-01  0.42144854876E-01  0.51100000000E-03 0. -1.
         11    1    4    4    0    0  0.60086346983E-01  0.41693471055E-01 -0.65062621858E-01  0.97888306280E-01  0.51100000000E-03 0.  1.
</event>
<event>
 8    1  0.2877139E+004  0.1043930E+01  0.7957747E-01            NaN
         13   -1    0    0    0    0  0.00000000000E+00  0.00000000000E+00  0.74505805969E-08  0.10566000000E+00  0.10566000000E+00 0.  1.
     999900   -1    0    0    0    0 -0.00000000000E+00 -0.00000000000E+00 -0.74505805969E-08  0.93827000000E+00  0.93827000000E+00 0.  1.
     999902    2    1    2    0    0  0.15780262169E-01  0.20248908220E-02 -0.17060537390E-02  0.10279291414E+01  0.10278045983E+01 0.  0.
     999903    2    3    3    0    0 -0.38571815307E-01  0.11586058484E+00 -0.45780821060E-01  0.13784189922E+00  0.44643538713E-01 0.  0.
         14    1    1    2    0    0 -0.15780262169E-01 -0.20248908220E-02  0.17060537390E-02  0.16000858612E-01  0.00000000000E+00 0.  1.
     999901    1    3    3    0    0  0.54352077476E-01 -0.11383569401E+00  0.44074767321E-01  0.89008724217E+00  0.88000000000E+00 0. -1.
        -11    1    4    4    0    0 -0.27753275952E-01  0.29433710414E-01 -0.27279836008E-01  0.48795883110E-01  0.51100000000E-03 0.  1.
         11    1    4    4    0    0 -0.10818539355E-01  0.86426874421E-01 -0.18500985052E-01  0.89046016109E-01  0.51100000000E-03 0. -1.
</event>
<event>
 8    1  0.2877139E+004  0.1043930E+01  0.7957747E-01            NaN
         13   -1    0    0    0    0  0.00000000000E+00  0.00000000000E+00  0.74505805969E-08  0.10566000000E+00  0.10566000000E+00 0.  1.
     999900   -1    0    0    0    0 -0.00000000000E+00 -0.00000000000E+00 -0.74505805969E-08  0.93827000000E+00  0.93827000000E+00 0.  1.
     999902    2    1    2    0    0  0.74343566063E-02 -0.10535766284E-01  0.82165038141E-02  0.10286400371E+01  0.10285263939E+01 0.  0.
     999903    2    3    3    0    0 -0.10747079568E-01  0.11116986900E+00 -0.65187439324E-01  0.13705102580E+00  0.45379972833E-01 0.  0.
         14    1    1    2    0    0 -0.74343566063E-02  0.10535766284E-01 -0.82165038141E-02  0.15289962860E-01  0.00000000000E+00 0. -1.
     999901    1    3    3    0    0  0.18181436174E-01 -0.12170563528E+00  0.73403943138E-01  0.89158901134E+00  0.88000000000E+00 0. -1.
        -11    1    4    4    0    0  0.20247136747E-02  0.75930511303E-01 -0.20408967909E-01  0.78653220560E-01  0.51100000000E-03 0.  1.
         11    1    4    4    0    0 -0.12771793242E-01  0.35239357693E-01 -0.44778471415E-01  0.58397805237E-01  0.51100000000E-03 0. -1.
</event>
<event>
 8    1  0.2877139E+004  0.1043930E+01  0.7957747E-01            NaN
         13   -1    0    0    0    0  0.00000000000E+00  0.00000000000E+00  0.74505805969E-08  0.10566000000E+00  0.10566000000E+00 0.  1.
     999900   -1    0    0    0    0 -0.00000000000E+00 -0.00000000000E+00 -0.74505805969E-08  0.93827000000E+00  0.93827000000E+00 0.  1.
     999902    2    1    2    0    0 -0.11637637349E-01 -0.11892003758E-02 -0.71427020040E-02  0.10302235419E+01  0.10301323601E+01 0.  0.
     999903    2    3    3    0    0 -0.11718793796E+00  0.63885273178E-01  0.11916570767E-01  0.14132601751E+00  0.44907656732E-01 0.  0.
         14    1    1    2    0    0  0.11637637349E-01  0.11892003758E-02  0.71427020040E-02  0.13706458059E-01  0.00000000000E+00 0.  1.
     999901    1    3    3    0    0  0.10555030061E+00 -0.65074473554E-01 -0.19059272771E-01  0.88889752443E+00  0.88000000000E+00 0. -1.
        -11    1    4    4    0    0 -0.42113859013E-01  0.24475791621E-02 -0.61926268871E-02  0.42640092794E-01  0.51100000000E-03 0. -1.
         11    1    4    4    0    0 -0.75074078946E-01  0.61437694016E-01  0.18109197654E-01  0.98685924712E-01  0.51100000000E-03 0.  1.
</event>
<event>
 8    1  0.2877139E+004  0.1043930E+01  0.7957747E-01            NaN
         13   -1    0    0    0    0  0.00000000000E+00  0.00000000000E+00  0.74505805969E-08  0.10566000000E+00  0.10566000000E+00 0. -1.
     999900   -1    0    0    0    0 -0.00000000000E+00 -0.00000000000E+00 -0.74505805969E-08  0.93827000000E+00  0.93827000000E+00 0. -1.
     999902    2    1    2    0    0  0.11730290108E-01 -0.68789617288E-02 -0.51404230224E-02  0.10293923327E+01  0.10292896730E+01 0.  0.
     999903    2    3    3    0    0 -0.72908674110E-01  0.40659130371E-01  0.99997114828E-01  0.13783329020E+00  0.45052783171E-01 0.  0.
         14    1    1    2    0    0 -0.11730290108E-01  0.68789617288E-02  0.51404230224E-02  0.14537667259E-01  0.00000000000E+00 0.  1.
     999901    1    3    3    0    0  0.84638964218E-01 -0.47538092100E-01 -0.10513753785E+00  0.89155904254E+00  0.88000000000E+00 0. -1.
        -11    1    4    4    0    0 -0.23743738557E-01  0.10799451423E-01  0.66105055204E-01  0.71067100097E-01  0.51100000000E-03 0. -1.
         11    1    4    4    0    0 -0.49164935553E-01  0.29859678948E-01  0.33892059624E-01  0.66766190107E-01  0.51100000000E-03 0.  1.
</event>
<event>
 8    1  0.2877139E+004  0.1043930E+01  0.7957747E-01            NaN
         13   -1    0    0    0    0  0.00000000000E+00  0.00000000000E+00  0.74505805969E-08  0.10566000000E+00  0.10566000000E+00 0.  1.
     999900   -1    0    0    0    0 -0.00000000000E+00 -0.00000000000E+00 -0.74505805969E-08  0.93827000000E+00  0.93827000000E+00 0. -1.
     999902    2    1    2    0    0 -0.65082233455E-02  0.11175768673E-01 -0.36233945311E-02  0.10304992977E+01  0.10304117715E+01 0.  0.
     999903    2    3    3    0    0  0.11044624174E+00 -0.59897959919E-02  0.71497591818E-01  0.13942345013E+00  0.45746506314E-01 0.  0.
         14    1    1    2    0    0  0.65082233455E-02 -0.11175768673E-01  0.36233945311E-02  0.13430702308E-01  0.00000000000E+00 0.  1.
     999901    1    3    3    0    0 -0.11695446509E+00  0.17165564665E-01 -0.75120986349E-01  0.89107584756E+00  0.88000000000E+00 0. -1.
        -11    1    4    4    0    0  0.34275736005E-01 -0.19106382440E-01  0.96034644646E-02  0.40402568970E-01  0.51100000000E-03 0.  1.
         11    1    4    4    0    0  0.76170505737E-01  0.13116586448E-01  0.61894127354E-01  0.99020881163E-01  0.51100000000E-03 0. -1.
</event>
<event>
 8    1  0.2877139E+004  0.1043930E+01  0.7957747E-01            NaN
         13   -1    0    0    0    0  0.00000000000E+00  0.00000000000E+00  0.74505805969E-08  0.10566000000E+00  0.10566000000E+00 0.  1.
     999900   -1    0    0    0    0 -0.00000000000E+00 -0.00000000000E+00 -0.74505805969E-08  0.93827000000E+00  0.93827000000E+00 0. -1.
     999902    2    1    2    0    0  0.11141785918E-01  0.72991079714E-03  0.80691221532E-02  0.10301538287E+01  0.10300617107E+01 0.  0.
     999903    2    3    3    0    0 -0.18675730642E-01 -0.13059291064E+00  0.77139427590E-02  0.13990953983E+00  0.45955230376E-01 0.  0.
         14    1    1    2    0    0 -0.11141785918E-01 -0.72991079714E-03 -0.80691221532E-02  0.13776171294E-01  0.00000000000E+00 0. -1.
     999901    1    3    3    0    0  0.29817516560E-01  0.13132282143E+00  0.35517939422E-03  0.89024428888E+00  0.88000000000E+00 0. -1.
        -11    1    4    4    0    0 -0.30989881023E-01 -0.56795713361E-01  0.70706488471E-02  0.65087487109E-01  0.51100000000E-03 0.  1.
         11    1    4    4    0    0  0.12314150381E-01 -0.73797197276E-01  0.64329391188E-03  0.74822052721E-01  0.51100000000E-03 0. -1.
</event>
<event>
 8    1  0.2877139E+004  0.1043930E+01  0.7957747E-01            NaN
         13   -1    0    0    0    0  0.00000000000E+00  0.00000000000E+00  0.74505805969E-08  0.10566000000E+00  0.10566000000E+00 0.  1.
     999900   -1    0    0    0    0 -0.00000000000E+00 -0.00000000000E+00 -0.74505805969E-08  0.93827000000E+00  0.93827000000E+00 0. -1.
     999902    2    1    2    0    0 -0.99511445009E-02 -0.81063659343E-02 -0.44666757271E-02  0.10303399434E+01  0.10302503139E+01 0.  0.
     999903    2    3    3    0    0  0.59304650975E-01  0.79020965951E-01 -0.88278872733E-01  0.13937865272E+00  0.43265399305E-01 0.  0.
         14    1    1    2    0    0  0.99511445009E-02  0.81063659343E-02  0.44666757271E-02  0.13590056571E-01  0.00000000000E+00 0.  1.
     999901    1    3    3    0    0 -0.69255795476E-01 -0.87127331886E-01  0.83812197006E-01  0.89096129071E+00  0.88000000000E+00 0.  1.
        -11    1    4    4    0    0 -0.17638589021E-02  0.12098279951E-01  0.87708288181E-03  0.12268250543E-01  0.51100000000E-03 0. -1.
         11    1    4    4    0    0  0.61068509877E-01  0.66922686000E-01 -0.89155955615E-01  0.12711040218E+00  0.51100000000E-03 0.  1.
</event>
<event>
 8    1  0.2877139E+004  0.1043930E+01  0.7957747E-01            NaN
         13   -1    0    0    0    0  0.00000000000E+00  0.00000000000E+00  0.74505805969E-08  0.10566000000E+00  0.10566000000E+00 0.  1.
     999900   -1    0    0    0    0 -0.00000000000E+00 -0.00000000000E+00 -0.74505805969E-08  0.93827000000E+00  0.93827000000E+00 0.  1.
     999902    2    1    2    0    0  0.15790973049E-01 -0.11538154205E-01 -0.22032439214E-02  0.10242490926E+01  0.10240599912E+01 0.  0.
     999903    2    3    3    0    0  0.68957932690E-01 -0.19956190545E-01 -0.10691207702E+00  0.13640815602E+00  0.44983850379E-01 0.  0.
         14    1    1    2    0    0 -0.15790973049E-01  0.11538154205E-01  0.22032439214E-02  0.19680907399E-01  0.00000000000E+00 0.  1.
     999901    1    3    3    0    0 -0.53166959642E-01  0.84180363398E-02  0.10470883310E+00  0.88784093658E+00  0.88000000000E+00 0. -1.
        -11    1    4    4    0    0  0.57230924928E-01  0.46054255951E-02 -0.69783412867E-01  0.90369101719E-01  0.51100000000E-03 0. -1.
         11    1    4    4    0    0  0.11727007762E-01 -0.24561616140E-01 -0.37128664153E-01  0.46039054305E-01  0.51100000000E-03 0.  1.
</event>
<event>
 8    1  0.2877139E+004  0.1043930E+01  0.7957747E-01            NaN
         13   -1    0    0    0    0  0.00000000000E+00  0.00000000000E+00  0.74505805969E-08  0.10566000000E+00  0.10566000000E+00 0.  1.
     999900   -1    0    0    0    0 -0.00000000000E+00 -0.00000000000E+00 -0.74505805969E-08  0.93827000000E+00  0.93827000000E+00 0.  1.
     999902    2    1    2    0    0 -0.36578810643E-02  0.12476701084E-01 -0.38064849446E-03  0.10309225768E+01  0.10308405145E+01 0.  0.
     999903    2    3    3    0    0 -0.13572322937E-01  0.73642180023E-01  0.11160694397E+00  0.14166404704E+00  0.44779612002E-01 0.  0.
         14    1    1    2    0    0  0.36578810643E-02 -0.12476701084E-01  0.38064849446E-03  0.13007423154E-01  0.00000000000E+00 0. -1.
     999901    1    3    3    0    0  0.99144418730E-02 -0.61165478938E-01 -0.11198759247E+00  0.88925852981E+00  0.88000000000E+00 0.  1.
        -11    1    4    4    0    0 -0.25753700813E-01  0.42613443237E-01  0.86950185408E-01  0.10019857541E+00  0.51100000000E-03 0. -1.
         11    1    4    4    0    0  0.12181377875E-01  0.31028736786E-01  0.24656758566E-01  0.41465471630E-01  0.51100000000E-03 0.  1.
</event>
<event>
 8    1  0.2877139E+004  0.1043930E+01  0.7957747E-01            NaN
         13   -1    0    0    0    0  0.00000000000E+00  0.00000000000E+00  0.74505805969E-08  0.10566000000E+00  0.10566000000E+00 0. -1.
     999900   -1    0    0    0    0 -0.00000000000E+00 -0.00000000000E+00 -0.74505805969E-08  0.93827000000E+00  0.93827000000E+00 0. -1.
     999902    2    1    2    0    0  0.81513048266E-02 -0.89586017753E-02  0.70336826385E-02  0.10299238225E+01  0.10298285815E+01 0.  0.
     999903    2    3    3    0    0  0.86513601494E-01 -0.80803858713E-01  0.62652732026E-01  0.14178201563E+00  0.46507077964E-01 0.  0.
         14    1    1    2    0    0 -0.81513048266E-02  0.89586017753E-02 -0.70336826385E-02  0.14006177480E-01  0.00000000000E+00 0.  1.
     999901    1    3    3    0    0 -0.78362296667E-01  0.71845256937E-01 -0.55619049387E-01  0.88814180689E+00  0.88000000000E+00 0.  1.
        -11    1    4    4    0    0  0.40659289178E-01 -0.59748754183E-01  0.54833987149E-01  0.90720001601E-01  0.51100000000E-03 0.  1.
         11    1    4    4    0    0  0.45854312315E-01 -0.21055104530E-01  0.78187448769E-02  0.51062014033E-01  0.51100000000E-03 0. -1.
</event>
<event>
 7    1  0.2877139E+004  0.1043930E+01  0.7957747E-01            NaN
         13   -1    0    0    0    0  0.00000000000E+00  0.00000000000E+00  0.74505805969E-08  0.10566000000E+00  0.10566000000E+00 0. -1.
     999900   -1    0    0    0    0 -0.00000000000E+00 -0.00000000000E+00 -0.74505805969E-08  0.93827000000E+00  0.93827000000E+00 0.  1.
     999903    2    1    2    0    0  0.41371607352E-01  0.17995970408E-01 -0.12432188089E-01  0.66923059420E-01  0.47840064126E-01 0.  0.
         14    1    1    2    0    0  0.60735308358E-01 -0.65982218005E-01  0.38680308906E-02  0.89762979213E-01  0.00000000000E+00 0. -1.
     999901    1    1    2    0    0 -0.10210691571E+00  0.47986247597E-01  0.85641571985E-02  0.88724396137E+00  0.88000000000E+00 0.  1.
        -11    1    3    3    0    0  0.12350891298E-01  0.72216562612E-02  0.18343448446E-01  0.23268864538E-01  0.51100000000E-03 0. -1.
         11    1    3    3    0    0  0.29020716055E-01  0.10774314147E-01 -0.30775636535E-01  0.43654194882E-01  0.51100000000E-03 0.  1.
</event>
<event>
 8    1  0.2877139E+004  0.1043930E+01  0.7957747E-01            NaN
         13   -1    0    0    0    0  0.00000000000E+00  0.00000000000E+00  0.74505805969E-08  0.10566000000E+00  0.10566000000E+00 0. -1.
     999900   -1    0    0    0    0 -0.00000000000E+00 -0.00000000000E+00 -0.74505805969E-08  0.93827000000E+00  0.93827000000E+00 0. -1.
     999902    2    1    2    0    0 -0.78767609664E-02  0.20199784244E-02 -0.11277099352E-01  0.10300268836E+01  0.10299330484E+01 0.  0.
     999903    2    3    3    0    0 -0.82087364060E-01  0.89449317552E-01  0.53721473710E-01  0.14020897106E+00  0.45089278993E-01 0.  0.
         14    1    1    2    0    0  0.78767609664E-02 -0.20199784244E-02  0.11277099352E-01  0.13903116412E-01  0.00000000000E+00 0.  1.
     999901    1    3    3    0    0  0.74210603093E-01 -0.87429339127E-01 -0.64998573062E-01  0.88981791253E+00  0.88000000000E+00 0.  1.
        -11    1    4    4    0    0 -0.65552046897E-01  0.87827797390E-01  0.34720576349E-01  0.11496335238E+00  0.51100000000E-03 0. -1.
         11    1    4    4    0    0 -0.16535317163E-01  0.16215201618E-02  0.19000897361E-01  0.25245618686E-01  0.51100000000E-03 0.  1.
</event>
<event>
 8    1  0.2877139E+004  0.1043930E+01  0.7957747E-01            NaN
         13   -1    0    0    0    0  0.00000000000E+00  0.00000000000E+00  0.74505805969E-08  0.10566000000E+00  0.10566000000E+00 0. -1.
     999900   -1    0    0    0    0 -0.00000000000E+00 -0.00000000000E+00 -0.74505805969E-08  0.93827000000E+00  0.93827000000E+00 0. -1.
     999902    2    1    2    0    0  0.43403223240E-02  0.11565600858E-01 -0.61591739231E-02  0.10301264880E+01  0.10300340015E+01 0.  0.
     999903    2    3    3    0    0  0.10457126559E+00 -0.69008605467E-01 -0.43004035458E-01  0.14001638886E+00  0.45364136364E-01 0.  0.
         14    1    1    2    0    0 -0.43403223240E-02 -0.11565600858E-01  0.61591739231E-02  0.13803512035E-01  0.00000000000E+00 0.  1.
     999901    1    3    3    0    0 -0.10023094326E+00  0.80574206326E-01  0.36844861535E-01  0.89011009911E+00  0.88000000000E+00 0.  1.
        -11    1    4    4    0    0  0.66924599930E-01 -0.66865610246E-01 -0.38094500294E-01  0.10198707753E+00  0.51100000000E-03 0.  1.
         11    1    4    4    0    0  0.37646665656E-01 -0.21429952219E-02 -0.49095351644E-02  0.38029311328E-01  0.51100000000E-03 0. -1.
</event>
<event>
 8    1  0.2877139E+004  0.1043930E+01  0.7957747E-01            NaN
         13   -1    0    0    0    0  0.00000000000E+00  0.00000000000E+00  0.74505805969E-08  0.10566000000E+00  0.10566000000E+00 0. -1.
     999900   -1    0    0    0    0 -0.00000000000E+00 -0.00000000000E+00 -0.74505805969E-08  0.93827000000E+00  0.93827000000E+00 0.  1.
     999902    2    1    2    0    0 -0.41488337857E-02  0.11393771314E-01 -0.73787912147E-02  0.10297357263E+01  0.10296378920E+01 0.  0.
     999903    2    3    3    0    0 -0.12902776078E+00 -0.16579435080E-01 -0.26259160456E-01  0.14027874867E+00  0.45448246411E-01 0.  0.
         14    1    1    2    0    0  0.41488337857E-02 -0.11393771314E-01  0.73787912147E-02  0.14194273716E-01  0.00000000000E+00 0. -1.
     999901    1    3    3    0    0  0.12487892699E+00  0.27973206394E-01  0.18880369241E-01  0.88945697761E+00  0.88000000000E+00 0.  1.
        -11    1    4    4    0    0 -0.17693487047E-01 -0.15100428793E-01  0.66024492555E-02  0.24185447914E-01  0.51100000000E-03 0.  1.
         11    1    4    4    0    0 -0.11133427373E+00 -0.14790062863E-02 -0.32861609711E-01  0.11609330076E+00  0.51100000000E-03 0. -1.
</event>
<event>
 8    1  0.2877139E+004  0.1043930E+01  0.7957747E-01            NaN
         13   -1    0    0    0    0  0.00000000000E+00  0.00000000000E+00  0.74505805969E-08  0.10566000000E+00  0.10566000000E+00 0.  1.
     999900   -1    0    0    0    0 -0.00000000000E+00 -0.00000000000E+00 -0.74505805969E-08  0.93827000000E+00  0.93827000000E+00 0.  1.
     999902    2    1    2    0    0  0.20886473148E-02  0.79898288383E-02 -0.12869589585E-01  0.10286386250E+01  0.10285249607E+01 0.  0.
     999903    2    3    3    0    0 -0.88232204554E-01  0.93820190373E-01 -0.28273026640E-01  0.13972807097E+00  0.46232237012E-01 0.  0.
         14    1    1    2    0    0 -0.20886473148E-02 -0.79898288383E-02  0.12869589585E-01  0.15291374972E-01  0.00000000000E+00 0.  1.
     999901    1    3    3    0    0  0.90320851869E-01 -0.85830361535E-01  0.15403437056E-01  0.88891055406E+00  0.88000000000E+00 0. -1.
        -11    1    4    4    0    0 -0.89858002893E-02  0.29787603836E-01 -0.21089274145E-01  0.37590750912E-01  0.51100000000E-03 0.  1.
         11    1    4    4    0    0 -0.79246404265E-01  0.64032586538E-01 -0.71837524951E-02  0.10213732006E+00  0.51100000000E-03 0. -1.
</event>
<event>
 8    1  0.2877139E+004  0.1043930E+01  0.7957747E-01            NaN
         13   -1    0    0    0    0  0.00000000000E+00  0.00000000000E+00  0.74505805969E-08  0.10566000000E+00  0.10566000000E+00 0. -1.
     999900   -1    0    0    0    0 -0.00000000000E+00 -0.00000000000E+00 -0.74505805969E-08  0.93827000000E+00  0.93827000000E+00 0. -1.
     999902    2    1    2    0    0  0.40517786635E-02 -0.60440127745E-02  0.11192179204E-01  0.10305803979E+01  0.10304939324E+01 0.  0.
     999903    2    3    3    0    0 -0.12544957974E-01 -0.12922060900E+00 -0.30982958878E-01  0.14084635461E+00  0.44971214188E-01 0.  0.
         14    1    1    2    0    0 -0.40517786635E-02  0.60440127745E-02 -0.11192179204E-01  0.13349602095E-01  0.00000000000E+00 0.  1.
     999901    1    3    3    0    0  0.16596736637E-01  0.12317659622E+00  0.42175138083E-01  0.88973404329E+00  0.88000000000E+00 0.  1.
        -11    1    4    4    0    0  0.10151814690E-01 -0.37378262330E-01  0.61354751947E-02  0.39218605447E-01  0.51100000000E-03 0.  1.
         11    1    4    4    0    0 -0.22696772664E-01 -0.91842346669E-01 -0.37118434073E-01  0.10162774916E+00  0.51100000000E-03 0. -1.
</event>
<event>
 7    1  0.2877139E+004  0.1043930E+01  0.7957747E-01            NaN
         13   -1    0    0    0    0  0.00000000000E+00  0.00000000000E+00  0.74505805969E-08  0.10566000000E+00  0.10566000000E+00 0. -1.
     999900   -1    0    0    0    0 -0.00000000000E+00 -0.00000000000E+00 -0.74505805969E-08  0.93827000000E+00  0.93827000000E+00 0.  1.
     999903    2    1    2    0    0 -0.40973682132E-01 -0.52100368819E-01 -0.94873498237E-01  0.12420941648E+00  0.45096645290E-01 0.  0.
         14    1    1    2    0    0 -0.22146653664E-01 -0.17411286005E-01 -0.65794439569E-02  0.28929504518E-01  0.00000000000E+00 0. -1.
     999901    1    1    2    0    0  0.63120335797E-01  0.69511654823E-01  0.10145294219E+00  0.89079107900E+00  0.88000000000E+00 0. -1.
        -11    1    3    3    0    0 -0.43373536280E-01 -0.47603739877E-01 -0.57038572940E-01  0.86029295148E-01  0.51100000000E-03 0. -1.
         11    1    3    3    0    0  0.23998541478E-02 -0.44966289419E-02 -0.37834925297E-01  0.38180121333E-01  0.51100000000E-03 0.  1.
</event>
<event>
 7    1  0.2877139E+004  0.1043930E+01  0.7957747E-01            NaN
         13   -1    0    0    0    0  0.00000000000E+00  0.00000000000E+00  0.74505805969E-08  0.10566000000E+00  0.10566000000E+00 0.  1.
     999900   -1    0    0    0    0 -0.00000000000E+00 -0.00000000000E+00 -0.74505805969E-08  0.93827000000E+00  0.93827000000E+00 0.  1.
     999903    2    1    2    0    0 -0.59885106629E-02  0.98584680827E-01 -0.49894916994E-01  0.11960122047E+00  0.45388849316E-01 0.  0.
         14    1    1    2    0    0 -0.47191225417E-02  0.32747947376E-01 -0.53110469939E-03  0.33090485749E-01  0.00000000000E+00 0. -1.
     999901    1    1    2    0    0  0.10707633205E-01 -0.13133262820E+00  0.50426021693E-01  0.89123829378E+00  0.88000000000E+00 0.  1.
        -11    1    3    3    0    0 -0.11647044981E-01  0.28538989425E-01  0.39344906733E-02  0.31078431622E-01  0.51100000000E-03 0.  1.
         11    1    3    3    0    0  0.56585343184E-02  0.70045691402E-01 -0.53829407667E-01  0.88522788848E-01  0.51100000000E-03 0. -1.
</event>
<event>
 8    1  0.2877139E+004  0.1043930E+01  0.7957747E-01            NaN
         13   -1    0    0    0    0  0.00000000000E+00  0.00000000000E+00  0.74505805969E-08  0.10566000000E+00  0.10566000000E+00 0. -1.
     999900   -1    0    0    0    0 -0.00000000000E+00 -0.00000000000E+00 -0.74505805969E-08  0.93827000000E+00  0.93827000000E+00 0. -1.
     999902    2    1    2    0    0 -0.97824093332E-03 -0.13173514224E-01 -0.57246920331E-02  0.10295331069E+01  0.10294324396E+01 0.  0.
     999903    2    3    3    0    0  0.10172445749E+00 -0.77535078704E-01  0.36026193634E-01  0.14024496928E+00  0.44846528275E-01 0.  0.
         14    1    1    2    0    0  0.97824093332E-03  0.13173514224E-01  0.57246920331E-02  0.14396893110E-01  0.00000000000E+00 0. -1.
     999901    1    3    3    0    0 -0.10270269842E+00  0.64361564480E-01 -0.41750885667E-01  0.88928813761E+00  0.88000000000E+00 0.  1.
        -11    1    4    4    0    0  0.32609252789E-02 -0.56831157701E-02 -0.82601345151E-02  0.10555680070E-01  0.51100000000E-03 0.  1.
         11    1    4    4    0    0  0.98463532212E-01 -0.71851962934E-01  0.44286328149E-01  0.12968928921E+00  0.51100000000E-03 0. -1.
</event>
<event>
 8    1  0.2877139E+004  0.1043930E+01  0.7957747E-01            NaN
         13   -1    0    0    0    0  0.00000000000E+00  0.00000000000E+00  0.74505805969E-08  0.10566000000E+00  0.10566000000E+00 0. -1.
     999900   -1    0    0    0    0 -0.00000000000E+00 -0.00000000000E+00 -0.74505805969E-08  0.93827000000E+00  0.93827000000E+00 0. -1.
     999902    2    1    2    0    0 -0.11793517254E-01  0.70376125908E-02 -0.23518836589E-02  0.10299963574E+01  0.10299021069E+01 0.  0.
     999903    2    3    3    0    0  0.10735006383E+00 -0.26870893115E-01  0.69746966272E-01  0.13840047143E+00  0.45210287390E-01 0.  0.
         14    1    1    2    0    0  0.11793517254E-01 -0.70376125908E-02  0.23518836589E-02  0.13933642630E-01  0.00000000000E+00 0. -1.
     999901    1    3    3    0    0 -0.11914358108E+00  0.33908505706E-01 -0.72098849931E-01  0.89159588594E+00  0.88000000000E+00 0. -1.
        -11    1    4    4    0    0  0.89003974516E-02  0.62489309145E-02  0.21008371708E-01  0.23661762724E-01  0.51100000000E-03 0.  1.
         11    1    4    4    0    0  0.98449666377E-01 -0.33119824030E-01  0.48738594564E-01  0.11473870870E+00  0.51100000000E-03 0. -1.
</event>
<event>
 8    1  0.2877139E+004  0.1043930E+01  0.7957747E-01            NaN
         13   -1    0    0    0    0  0.00000000000E+00  0.00000000000E+00  0.74505805969E-08  0.10566000000E+00  0.10566000000E+00 0.  1.
     999900   -1    0    0    0    0 -0.00000000000E+00 -0.00000000000E+00 -0.74505805969E-08  0.93827000000E+00  0.93827000000E+00 0. -1.
     999902    2    1    2    0    0  0.15260144071E-02 -0.13739934105E-01  0.19840577311E-02  0.10299639342E+01  0.10298692416E+01 0.  0.
     999903    2    3    3    0    0  0.97187133499E-01 -0.92406526829E-01  0.12204021118E-01  0.14123229293E+00  0.42583063737E-01 0.  0.
         14    1    1    2    0    0 -0.15260144071E-02  0.13739934105E-01 -0.19840577311E-02  0.13966065812E-01  0.00000000000E+00 0. -1.
     999901    1    3    3    0    0 -0.95661119092E-01  0.78666592724E-01 -0.10219963387E-01  0.88873164126E+00  0.88000000000E+00 0.  1.
        -11    1    4    4    0    0  0.38226482496E-01 -0.51753605661E-01 -0.12357972457E-01  0.65518549032E-01  0.51100000000E-03 0. -1.
         11    1    4    4    0    0  0.58960651003E-01 -0.40652921167E-01  0.24561993574E-01  0.75713743901E-01  0.51100000000E-03 0.  1.
</event>
<event>
 8    1  0.2877139E+004  0.1043930E+01  0.7957747E-01            NaN
         13   -1    0    0    0    0  0.00000000000E+00  0.00000000000E+00  0.74505805969E-08  0.10566000000E+00  0.10566000000E+00 0.  1.
     999900   -1    0    0    0    0 -0.00000000000E+00 -0.00000000000E+00 -0.74505805969E-08  0.93827000000E+00  0.93827000000E+00 0.  1.
     999902    2    1    2    0    0 -0.41725311380E-02  0.13015851580E-01 -0.19858235599E-02  0.10301181969E+01  0.10300255986E+01 0.  0.
     999903    2    3    3    0    0  0.12093695147E+00  0.98766605614E-02  0.52338442856E-01  0.13960521945E+00  0.45022328288E-01 0.  0.
         14    1    1    2    0    0  0.41725311380E-02 -0.13015851580E-01  0.19858235599E-02  0.13811803056E-01  0.00000000000E+00 0.  1.
     999901    1    3    3    0    0 -0.12510948260E+00  0.31391910185E-02 -0.54324266416E-01  0.89051297749E+00  0.88000000000E+00 0.  1.
        -11    1    4    4    0    0  0.89505189990E-01  0.40306220804E-02  0.15676187191E-01  0.90958391121E-01  0.51100000000E-03 0.  1.
         11    1    4    4    0    0  0.31431761475E-01  0.58460384810E-02  0.36662255664E-01  0.48646828332E-01  0.51100000000E-03 0. -1.
</event>
<event>
 8    1  0.2877139E+004  0.1043930E+01  0.7957747E-01            NaN
         13   -1    0    0    0    0  0.00000000000E+00  0.00000000000E+00  0.74505805969E-08  0.10566000000E+00  0.10566000000E+00 0.  1.
     999900   -1    0    0    0    0 -0.00000000000E+00 -0.00000000000E+00 -0.74505805969E-08  0.93827000000E+00  0.93827000000E+00 0. -1.
     999902    2    1    2    0    0  0.14827361294E-01  0.23718691791E-01  0.26106291553E-02  0.10158365423E+01  0.10154479988E+01 0.  0.
     999903    2    3    3    0    0  0.38505071920E-01  0.10622068089E+00 -0.44356481662E-01  0.13041397552E+00  0.47695219188E-01 0.  0.
         14    1    1    2    0    0 -0.14827361294E-01 -0.23718691791E-01 -0.26106291553E-02  0.28093457741E-01  0.00000000000E+00 0. -1.
     999901    1    3    3    0    0 -0.23677710625E-01 -0.82501989103E-01  0.46967110818E-01  0.88542256674E+00  0.88000000000E+00 0.  1.
        -11    1    4    4    0    0 -0.32738334955E-02  0.60739724031E-01 -0.20162687208E-01  0.64084531187E-01  0.51100000000E-03 0.  1.
         11    1    4    4    0    0  0.41778905415E-01  0.45480956863E-01 -0.24193794454E-01  0.66329444336E-01  0.51100000000E-03 0. -1.
</event>
<event>
 8    1  0.2877139E+004  0.1043930E+01  0.7957747E-01            NaN
         13   -1    0    0    0    0  0.00000000000E+00  0.00000000000E+00  0.74505805969E-08  0.10566000000E+00  0.10566000000E+00 0. -1.
     999900   -1    0    0    0    0 -0.00000000000E+00 -0.00000000000E+00 -0.74505805969E-08  0.93827000000E+00  0.93827000000E+00 0.  1.
     999902    2    1    2    0    0 -0.55431370770E-02 -0.32004000714E-02 -0.12021138593E-01  0.10303110168E+01  0.10302210029E+01 0.  0.
     999903    2    3    3    0    0  0.10120004854E+00 -0.27405956993E-01 -0.82785784626E-01  0.14071130248E+00  0.44200092826E-01 0.  0.
         14    1    1    2    0    0  0.55431370770E-02  0.32004000714E-02  0.12021138593E-01  0.13618983161E-01  0.00000000000E+00 0. -1.
     999901    1    3    3    0    0 -0.10674318562E+00  0.24205556921E-01  0.70764646032E-01  0.88959971436E+00  0.88000000000E+00 0. -1.
        -11    1    4    4    0    0  0.54220042880E-01 -0.35290514811E-02 -0.18096142545E-01  0.57271273342E-01  0.51100000000E-03 0. -1.
         11    1    4    4    0    0  0.46980005661E-01 -0.23876905511E-01 -0.64689642081E-01  0.83440029136E-01  0.51100000000E-03 0.  1.
</event>
<event>
 8    1  0.2877139E+004  0.1043930E+01  0.7957747E-01            NaN
         13   -1    0    0    0    0  0.00000000000E+00  0.00000000000E+00  0.74505805969E-08  0.10566000000E+00  0.10566000000E+00 0.  1.
     999900   -1    0    0    0    0 -0.00000000000E+00 -0.00000000000E+00 -0.74505805969E-08  0.93827000000E+00  0.93827000000E+00 0. -1.
     999902    2    1    2    0    0 -0.12639354022E-01 -0.53641078098E-02 -0.17385213431E-02  0.10300898635E+01  0.10299968823E+01 0.  0.
     999903    2    3    3    0    0  0.40835290574E-01 -0.11486427309E+00  0.53250292139E-01  0.13999234442E+00  0.43599778624E-01 0.  0.
         14    1    1    2    0    0  0.12639354022E-01  0.53641078098E-02  0.17385213431E-02  0.13840136529E-01  0.00000000000E+00 0.  1.
     999901    1    3    3    0    0 -0.53474644595E-01  0.10950016528E+00 -0.54988813482E-01  0.89009751905E+00  0.88000000000E+00 0. -1.
        -11    1    4    4    0    0  0.49000605456E-02 -0.61564335828E-01  0.42107263385E-01  0.74749319663E-01  0.51100000000E-03 0.  1.
         11    1    4    4    0    0  0.35935230028E-01 -0.53299937258E-01  0.11143028754E-01  0.65243024759E-01  0.51100000000E-03 0. -1.
</event>
<event>
 8    1  0.2877139E+004  0.1043930E+01  0.7957747E-01            NaN
         13   -1    0    0    0    0  0.00000000000E+00  0.00000000000E+00  0.74505805969E-08  0.10566000000E+00  0.10566000000E+00 0. -1.
     999900   -1    0    0    0    0 -0.00000000000E+00 -0.00000000000E+00 -0.74505805969E-08  0.93827000000E+00  0.93827000000E+00 0.  1.
     999902    2    1    2    0    0  0.37003413161E-02  0.12574947379E-01 -0.50771265396E-02  0.10298730074E+01  0.10297770692E+01 0.  0.
     999903    2    3    3    0    0  0.45311711713E-01 -0.28484621135E-01 -0.12157753954E+00  0.14027211904E+00  0.45062671904E-01 0.  0.
         14    1    1    2    0    0 -0.37003413161E-02 -0.12574947379E-01  0.50771265396E-02  0.14056992614E-01  0.00000000000E+00 0.  1.
     999901    1    3    3    0    0 -0.41611370397E-01  0.41059568514E-01  0.11650041301E+00  0.88960088834E+00  0.88000000000E+00 0. -1.
        -11    1    4    4    0    0  0.28687750507E-01 -0.16873305752E-01 -0.25109560766E-01  0.41694683582E-01  0.51100000000E-03 0. -1.
         11    1    4    4    0    0  0.16623961206E-01 -0.11611315383E-01 -0.96467978779E-01  0.98577435459E-01  0.51100000000E-03 0.  1.
</event>
<event>
 8    1  0.2877139E+004  0.1043930E+01  0.7957747E-01            NaN
         13   -1    0    0    0    0  0.00000000000E+00  0.00000000000E+00  0.74505805969E-08  0.10566000000E+00  0.10566000000E+00 0.  1.
     999900   -1    0    0    0    0 -0.00000000000E+00 -0.00000000000E+00 -0.74505805969E-08  0.93827000000E+00  0.93827000000E+00 0. -1.
     999902    2    1    2    0    0 -0.90106504480E-02 -0.82581758258E-02  0.83432718230E-02  0.10291313692E+01  0.10290249635E+01 0.  0.
     999903    2    3    3    0    0 -0.80313600826E-01 -0.35769587205E-01  0.10349481414E+00  0.14070871948E+00  0.36851449593E-01 0.  0.
         14    1    1    2    0    0  0.90106504480E-02  0.82581758258E-02 -0.83432718230E-02  0.14798630821E-01  0.00000000000E+00 0. -1.
     999901    1    3    3    0    0  0.71302950378E-01  0.27511411380E-01 -0.95151542321E-01  0.88842264970E+00  0.88000000000E+00 0. -1.
        -11    1    4    4    0    0 -0.42938086571E-01 -0.16267350351E-01  0.26741709150E-01  0.53138367448E-01  0.51100000000E-03 0. -1.
         11    1    4    4    0    0 -0.37375514255E-01 -0.19502236854E-01  0.76753104993E-01  0.87570352034E-01  0.51100000000E-03 0.  1.
</event>
<event>
 8    1  0.2877139E+004  0.1043930E+01  0.7957747E-01            NaN
         13   -1    0    0    0    0  0.00000000000E+00  0.00000000000E+00  0.74505805969E-08  0.10566000000E+00  0.10566000000E+00 0. -1.
     999900   -1    0    0    0    0 -0.00000000000E+00 -0.00000000000E+00 -0.74505805969E-08  0.93827000000E+00  0.93827000000E+00 0. -1.
     999902    2    1    2    0    0  0.80806730919E-02  0.44114183316E-02 -0.71904643805E-02  0.10322483620E+01  0.10321822611E+01 0.  0.
     999903    2    3    3    0    0  0.12909262411E+00 -0.33548663696E-01 -0.26673074307E-01  0.14294277207E+00  0.43940468342E-01 0.  0.
         14    1    1    2    0    0 -0.80806730919E-02 -0.44114183316E-02  0.71904643805E-02  0.11681638041E-01  0.00000000000E+00 0. -1.
     999901    1    3    3    0    0 -0.12101195102E+00  0.37960082028E-01  0.19482609926E-01  0.88930558989E+00  0.88000000000E+00 0.  1.
        -11    1    4    4    0    0  0.50032415972E-01 -0.99878714127E-02 -0.32077780228E-01  0.60268112038E-01  0.51100000000E-03 0.  1.
         11    1    4    4    0    0  0.79060208141E-01 -0.23560792284E-01  0.54047059209E-02  0.82674660032E-01  0.51100000000E-03 0. -1.
</event>
<event>
 8    1  0.2877139E+004  0.1043930E+01  0.7957747E-01            NaN
         13   -1    0    0    0    0  0.00000000000E+00  0.00000000000E+00  0.74505805969E-08  0.10566000000E+00  0.10566000000E+00 0.  1.
     999900   -1    0    0    0    0 -0.00000000000E+00 -0.00000000000E+00 -0.74505805969E-08  0.93827000000E+00  0.93827000000E+00 0.  1.
     999902    2    1    2    0    0 -0.60250668983E-02 -0.12265852650E-01 -0.53185940274E-04  0.10302641520E+01  0.10301735133E+01 0.  0.
     999903    2    3    3    0    0 -0.10163493791E+00  0.76998135259E-01  0.33349139206E-01  0.13996924453E+00  0.47125904668E-01 0.  0.
         14    1    1    2    0    0  0.60250668983E-02  0.12265852650E-01  0.53185940274E-04  0.13665847984E-01  0.00000000000E+00 0. -1.
     999901    1    3    3    0    0  0.95609871012E-01 -0.89263987910E-01 -0.33402325146E-01  0.89029490749E+00  0.88000000000E+00 0.  1.
        -11    1    4    4    0    0 -0.33058307900E-01  0.31967297026E-01  0.35188435966E-01  0.57907227072E-01  0.51100000000E-03 0. -1.
         11    1    4    4    0    0 -0.68576630011E-01  0.45030838233E-01 -0.18392967607E-02  0.82062017458E-01  0.51100000000E-03 0.  1.
</event>
<event>
 8    1  0.2877139E+004  0.1043930E+01  0.7957747E-01            NaN
         13   -1    0    0    0    0  0.00000000000E+00  0.00000000000E+00  0.74505805969E-08  0.10566000000E+00  0.10566000000E+00 0.  1.
     999900   -1    0    0    0    0 -0.00000000000E+00 -0.00000000000E+00 -0.74505805969E-08  0.93827000000E+00  0.93827000000E+00 0. -1.
     999902    2    1    2    0    0 -0.95159859669E-02  0.11219592508E-02  0.10445908585E-01  0.10297550295E+01  0.10296574630E+01 0.  0.
     999903    2    3    3    0    0  0.17842466359E-01  0.26458610798E-01 -0.12674102113E+00  0.13834564855E+00  0.45363204751E-01 0.  0.
         14    1    1    2    0    0  0.95159859669E-02 -0.11219592508E-02 -0.10445908585E-01  0.14174970464E-01  0.00000000000E+00 0. -1.
     999901    1    3    3    0    0 -0.27358452326E-01 -0.25336651548E-01  0.13718692971E+00  0.89140938099E+00  0.88000000000E+00 0.  1.
        -11    1    4    4    0    0  0.10681225497E-01 -0.12119206470E-01 -0.39984789467E-01  0.43127812990E-01  0.51100000000E-03 0. -1.
         11    1    4    4    0    0  0.71612408618E-02  0.38577817269E-01 -0.86756231661E-01  0.95217835561E-01  0.51100000000E-03 0.  1.
</event>
<event>
 8    1  0.2877139E+004  0.1043930E+01  0.7957747E-01            NaN
         13   -1    0    0    0    0  0.00000000000E+00  0.00000000000E+00  0.74505805969E-08  0.10566000000E+00  0.10566000000E+00 0. -1.
     999900   -1    0    0    0    0 -0.00000000000E+00 -0.00000000000E+00 -0.74505805969E-08  0.93827000000E+00  0.93827000000E+00 0.  1.
     999902    2    1    2    0    0 -0.12489022020E-01  0.71590974342E-02 -0.64151088282E-03  0.10295202851E+01  0.10294194371E+01 0.  0.
     999903    2    3    3    0    0 -0.12527056415E+00 -0.21027547474E-01  0.42014593909E-01  0.14085065781E+00  0.44031916936E-01 0.  0.
         14    1    1    2    0    0  0.12489022020E-01 -0.71590974342E-02  0.64151088282E-03  0.14409714893E-01  0.00000000000E+00 0. -1.
     999901    1    3    3    0    0  0.11278154213E+00  0.28186644908E-01 -0.42656104791E-01  0.88866962729E+00  0.88000000000E+00 0.  1.
        -11    1    4    4    0    0 -0.79809989091E-01 -0.32513818448E-01  0.17507043852E-01  0.87940550681E-01  0.51100000000E-03 0.  1.
         11    1    4    4    0    0 -0.45460575063E-01  0.11486270974E-01  0.24507550057E-01  0.52910107132E-01  0.51100000000E-03 0. -1.
</event>
<event>
 8    1  0.2877139E+004  0.1043930E+01  0.7957747E-01            NaN
         13   -1    0    0    0    0  0.00000000000E+00  0.00000000000E+00  0.74505805969E-08  0.10566000000E+00  0.10566000000E+00 0. -1.
     999900   -1    0    0    0    0 -0.00000000000E+00 -0.00000000000E+00 -0.74505805969E-08  0.93827000000E+00  0.93827000000E+00 0. -1.
     999902    2    1    2    0    0  0.35752128114E-02 -0.11040222274E-01  0.92429661495E-02  0.10290941961E+01  0.10289872513E+01 0.  0.
     999903    2    3    3    0    0 -0.99297645448E-01  0.80826131095E-01  0.26402022753E-01  0.13818640901E+00  0.44783154989E-01 0.  0.
         14    1    1    2    0    0 -0.35752128114E-02  0.11040222274E-01 -0.92429661495E-02  0.14835803913E-01  0.00000000000E+00 0.  1.
     999901    1    3    3    0    0  0.10287285826E+00 -0.91866353369E-01 -0.17159056604E-01  0.89090778708E+00  0.88000000000E+00 0. -1.
        -11    1    4    4    0    0 -0.88474140878E-01  0.47253344225E-01  0.17736980890E-01  0.10185977497E+00  0.51100000000E-03 0.  1.
         11    1    4    4    0    0 -0.10823504570E-01  0.33572786871E-01  0.86650418635E-02  0.36326634044E-01  0.51100000000E-03 0. -1.
</event>
<event>
 8    1  0.2877139E+004  0.1043930E+01  0.7957747E-01            NaN
         13   -1    0    0    0    0  0.00000000000E+00  0.00000000000E+00  0.74505805969E-08  0.10566000000E+00  0.10566000000E+00 0.  1.
     999900   -1    0    0    0    0 -0.00000000000E+00 -0.00000000000E+00 -0.74505805969E-08  0.93827000000E+00  0.93827000000E+00 0.  1.
     999902    2    1    2    0    0 -0.14426124813E-03 -0.69480739004E-02 -0.10126791840E-01  0.10316479621E+01  0.10315748491E+01 0.  0.
     999903    2    3    3    0    0  0.91984223459E-01 -0.13409372263E-01 -0.98032140344E-01  0.14245914279E+00  0.45203962156E-01 0.  0.
         14    1    1    2    0    0  0.14426124813E-03  0.69480739004E-02  0.10126791840E-01  0.12282037909E-01  0.00000000000E+00 0.  1.
     999901    1    3    3    0    0 -0.92128484707E-01  0.64612983625E-02  0.87905348503E-01  0.88918881930E+00  0.88000000000E+00 0.  1.
        -11    1    4    4    0    0  0.31149021030E-01 -0.85627508129E-02 -0.73195400679E-02  0.33127315020E-01  0.51100000000E-03 0.  1.
         11    1    4    4    0    0  0.60835202429E-01 -0.48466214500E-02 -0.90712600276E-01  0.10933182777E+00  0.51100000000E-03 0. -1.
</event>
<event>
 8    1  0.2877139E+004  0.1043930E+01  0.7957747E-01            NaN
         13   -1    0    0    0    0  0.00000000000E+00  0.00000000000E+00  0.74505805969E-08  0.10566000000E+00  0.10566000000E+00 0.  1.
     999900   -1    0    0    0    0 -0.00000000000E+00 -0.00000000000E+00 -0.74505805969E-08  0.93827000000E+00  0.93827000000E+00 0. -1.
     999902    2    1    2    0    0  0.10866972465E-01 -0.20230493960E-02  0.10470417199E-01  0.10287045786E+01  0.10285919000E+01 0.  0.
     999903    2    3    3    0    0  0.62173715192E-01  0.71565827312E-01  0.92755922978E-01  0.14032481238E+00  0.45827428721E-01 0.  0.
         14    1    1    2    0    0 -0.10866972465E-01  0.20230493960E-02 -0.10470417199E-01  0.15225421365E-01  0.00000000000E+00 0. -1.
     999901    1    3    3    0    0 -0.51306742727E-01 -0.73588876708E-01 -0.82285505778E-01  0.88837976625E+00  0.88000000000E+00 0. -1.
        -11    1    4    4    0    0  0.14556020377E-01  0.40050942855E-01  0.18021232383E-01  0.46270743353E-01  0.51100000000E-03 0.  1.
         11    1    4    4    0    0  0.47617694816E-01  0.31514884457E-01  0.74734690595E-01  0.94054069030E-01  0.51100000000E-03 0. -1.
</event>
<event>
 8    1  0.2877139E+004  0.1043930E+01  0.7957747E-01            NaN
         13   -1    0    0    0    0  0.00000000000E+00  0.00000000000E+00  0.74505805969E-08  0.10566000000E+00  0.10566000000E+00 0.  1.
     999900   -1    0    0    0    0 -0.00000000000E+00 -0.00000000000E+00 -0.74505805969E-08  0.93827000000E+00  0.93827000000E+00 0. -1.
     999902    2    1    2    0    0 -0.13478983540E-01 -0.23157534658E-01 -0.40614917920E-02  0.10168292597E+01  0.10164680483E+01 0.  0.
     999903    2    3    3    0    0 -0.10231159137E+00  0.30411456644E-01  0.55956674918E-01  0.12870592966E+00  0.45183497413E-01 0.  0.
         14    1    1    2    0    0  0.13478983540E-01  0.23157534658E-01  0.40614917920E-02  0.27100740290E-01  0.00000000000E+00 0.  1.
     999901    1    3    3    0    0  0.88832607829E-01 -0.53568991302E-01 -0.60018166710E-01  0.88812333005E+00  0.88000000000E+00 0. -1.
        -11    1    4    4    0    0 -0.65682949802E-01  0.39001110647E-01  0.26280069315E-01  0.80785145235E-01  0.51100000000E-03 0.  1.
         11    1    4    4    0    0 -0.36628641566E-01 -0.85896540037E-02  0.29676605603E-01  0.47920784425E-01  0.51100000000E-03 0. -1.
</event>
<event>
 8    1  0.2877139E+004  0.1043930E+01  0.7957747E-01            NaN
         13   -1    0    0    0    0  0.00000000000E+00  0.00000000000E+00  0.74505805969E-08  0.10566000000E+00  0.10566000000E+00 0. -1.
     999900   -1    0    0    0    0 -0.00000000000E+00 -0.00000000000E+00 -0.74505805969E-08  0.93827000000E+00  0.93827000000E+00 0. -1.
     999902    2    1    2    0    0  0.11299720404E-01  0.10472849261E-02 -0.93577923546E-02  0.10292212011E+01  0.10291160926E+01 0.  0.
     999903    2    3    3    0    0  0.88736984501E-01 -0.27120454950E-01  0.93551082729E-01  0.13940088891E+00  0.45508584397E-01 0.  0.
         14    1    1    2    0    0 -0.11299720404E-01 -0.10472849261E-02  0.93577923546E-02  0.14708798886E-01  0.00000000000E+00 0. -1.
     999901    1    3    3    0    0 -0.77437264097E-01  0.28167739876E-01 -0.10290887508E+00  0.88982031220E+00  0.88000000000E+00 0. -1.
        -11    1    4    4    0    0  0.18782342128E-01 -0.21507333503E-01  0.99394681878E-02  0.30238980126E-01  0.51100000000E-03 0. -1.
         11    1    4    4    0    0  0.69954642373E-01 -0.56131214474E-02  0.83611614541E-01  0.10916190878E+00  0.51100000000E-03 0.  1.
</event>
<event>
 8    1  0.2877139E+004  0.1043930E+01  0.7957747E-01            NaN
         13   -1    0    0    0    0  0.00000000000E+00  0.00000000000E+00  0.74505805969E-08  0.10566000000E+00  0.10566000000E+00 0. -1.
     999900   -1    0    0    0    0 -0.00000000000E+00 -0.00000000000E+00 -0.74505805969E-08  0.93827000000E+00  0.93827000000E+00 0. -1.
     999902    2    1    2    0    0  0.10125716770E-01  0.56204820243E-02  0.66861624657E-02  0.10305574637E+01  0.10304706989E+01 0.  0.
     999903    2    3    3    0    0  0.11187145388E+00  0.31074562837E-01  0.68452702715E-01  0.14217961012E+00  0.45259456212E-01 0.  0.
         14    1    1    2    0    0 -0.10125716770E-01 -0.56204820243E-02 -0.66861624657E-02  0.13372536289E-01  0.00000000000E+00 0.  1.
     999901    1    3    3    0    0 -0.10174573711E+00 -0.25454080812E-01 -0.61766540249E-01  0.88837785359E+00  0.88000000000E+00 0. -1.
        -11    1    4    4    0    0  0.25130747231E-01 -0.11404539797E-01  0.20254727458E-01  0.34236429279E-01  0.51100000000E-03 0. -1.
         11    1    4    4    0    0  0.86740706651E-01  0.42479102634E-01  0.48197975257E-01  0.10794318084E+00  0.51100000000E-03 0.  1.
</event>
<event>
 8    1  0.2877139E+004  0.1043930E+01  0.7957747E-01            NaN
         13   -1    0    0    0    0  0.00000000000E+00  0.00000000000E+00  0.74505805969E-08  0.10566000000E+00  0.10566000000E+00 0.  1.
     999900   -1    0    0    0    0 -0.00000000000E+00 -0.00000000000E+00 -0.74505805969E-08  0.93827000000E+00  0.93827000000E+00 0.  1.
     999902    2    1    2    0    0  0.75797827408E-02  0.38324947877E-02  0.10881176848E-01  0.10301263363E+01  0.10300338478E+01 0.  0.
     999903    2    3    3    0    0  0.18637423841E-01  0.22035154013E-01  0.13114122343E+00  0.14169170895E+00  0.45228512264E-01 0.  0.
         14    1    1    2    0    0 -0.75797827408E-02 -0.38324947877E-02 -0.10881176848E-01  0.13803663727E-01  0.00000000000E+00 0. -1.
     999901    1    3    3    0    0 -0.11057641101E-01 -0.18202659225E-01 -0.12026004658E+00  0.88843462733E+00  0.88000000000E+00 0.  1.
        -11    1    4    4    0    0  0.32416781568E-01  0.17415357997E-01  0.72904835997E-01  0.81667121011E-01  0.51100000000E-03 0. -1.
         11    1    4    4    0    0 -0.13779357727E-01  0.46197960162E-02  0.58236387433E-01  0.60024587936E-01  0.51100000000E-03 0.  1.
</event>
<event>
 8    1  0.2877139E+004  0.1043930E+01  0.7957747E-01            NaN
         13   -1    0    0    0    0  0.00000000000E+00  0.00000000000E+00  0.74505805969E-08  0.10566000000E+00  0.10566000000E+00 0. -1.
     999900   -1    0    0    0    0 -0.00000000000E+00 -0.00000000000E+00 -0.74505805969E-08  0.93827000000E+00  0.93827000000E+00 0. -1.
     999902    2    1    2    0    0  0.12226197943E-01  0.40350681218E-02 -0.19808623857E-02  0.10309036610E+01  0.10308213584E+01 0.  0.
     999903    2    3    3    0    0  0.13290050552E-01  0.63531004246E-01  0.11693776831E+00  0.14091347069E+00  0.44377366062E-01 0.  0.
         14    1    1    2    0    0 -0.12226197943E-01 -0.40350681218E-02  0.19808623857E-02  0.13026338959E-01  0.00000000000E+00 0.  1.
     999901    1    3    3    0    0 -0.10638526084E-02 -0.59495936124E-01 -0.11891863070E+00  0.88999019035E+00  0.88000000000E+00 0. -1.
        -11    1    4    4    0    0  0.29529736664E-01  0.37546434982E-01  0.66142736160E-01  0.81589599797E-01  0.51100000000E-03 0. -1.
         11    1    4    4    0    0 -0.16239686112E-01  0.25984569264E-01  0.50795032154E-01  0.59323870890E-01  0.51100000000E-03 0.  1.
</event>
<event>
 8    1  0.2877139E+004  0.1043930E+01  0.7957747E-01            NaN
         13   -1    0    0    0    0  0.00000000000E+00  0.00000000000E+00  0.74505805969E-08  0.10566000000E+00  0.10566000000E+00 0.  1.
     999900   -1    0    0    0    0 -0.00000000000E+00 -0.00000000000E+00 -0.74505805969E-08  0.93827000000E+00  0.93827000000E+00 0. -1.
     999902    2    1    2    0    0 -0.11097265091E-01  0.19581284911E-02 -0.78173813445E-02  0.10302152266E+01  0.10301239333E+01 0.  0.
     999903    2    3    3    0    0  0.21478912938E-01 -0.12973836615E+00  0.10925857177E-01  0.13962189451E+00  0.45623587313E-01 0.  0.
         14    1    1    2    0    0  0.11097265091E-01 -0.19581284911E-02  0.78173813445E-02  0.13714773449E-01  0.00000000000E+00 0.  1.
     999901    1    3    3    0    0 -0.32576178029E-01  0.13169649465E+00 -0.18743238521E-01  0.89059333204E+00  0.88000000000E+00 0. -1.
        -11    1    4    4    0    0  0.25525753402E-01 -0.11066473368E+00 -0.60944180500E-02  0.11373500086E+00  0.51100000000E-03 0.  1.
         11    1    4    4    0    0 -0.40468404642E-02 -0.19073632474E-01  0.17020275227E-01  0.25886893659E-01  0.51100000000E-03 0. -1.
</event>
<event>
 8    1  0.2877139E+004  0.1043930E+01  0.7957747E-01            NaN
         13   -1    0    0    0    0  0.00000000000E+00  0.00000000000E+00  0.74505805969E-08  0.10566000000E+00  0.10566000000E+00 0.  1.
     999900   -1    0    0    0    0 -0.00000000000E+00 -0.00000000000E+00 -0.74505805969E-08  0.93827000000E+00  0.93827000000E+00 0.  1.
     999902    2    1    2    0    0  0.22496797268E-02  0.11839935015E-01 -0.71970454460E-02  0.10298928143E+01  0.10297971481E+01 0.  0.
     999903    2    3    3    0    0  0.38316659730E-02  0.19024866695E-01  0.13024843617E+00  0.13919343382E+00  0.45094674585E-01 0.  0.
         14    1    1    2    0    0 -0.22496797268E-02 -0.11839935015E-01  0.71970454460E-02  0.14037185729E-01  0.00000000000E+00 0.  1.
     999901    1    3    3    0    0 -0.15819862461E-02 -0.71849316804E-02 -0.13744548162E+00  0.89069938045E+00  0.88000000000E+00 0.  1.
        -11    1    4    4    0    0 -0.13777049970E-01 -0.86284000841E-02  0.45923705829E-01  0.48718623462E-01  0.51100000000E-03 0.  1.
         11    1    4    4    0    0  0.17608715943E-01  0.27653266779E-01  0.84324730342E-01  0.90474810356E-01  0.51100000000E-03 0. -1.
</event>
<event>
 8    1  0.2877139E+004  0.1043930E+01  0.7957747E-01            NaN
         13   -1    0    0    0    0  0.00000000000E+00  0.00000000000E+00  0.74505805969E-08  0.10566000000E+00  0.10566000000E+00 0. -1.
     999900   -1    0    0    0    0 -0.00000000000E+00 -0.00000000000E+00 -0.74505805969E-08  0.93827000000E+00  0.93827000000E+00 0. -1.
     999902    2    1    2    0    0 -0.10409909834E-01 -0.66068462330E-02 -0.75305677183E-02  0.10294826442E+01  0.10293812649E+01 0.  0.
     999903    2    3    3    0    0  0.11335444504E+00 -0.74905710930E-02  0.62662529796E-01  0.13805375333E+00  0.47190118716E-01 0.  0.
         14    1    1    2    0    0  0.10409909834E-01  0.66068462330E-02  0.75305677183E-02  0.14447355815E-01  0.00000000000E+00 0. -1.
     999901    1    3    3    0    0 -0.12376435487E+00  0.88372485993E-03 -0.70193097514E-01  0.89142889085E+00  0.88000000000E+00 0. -1.
        -11    1    4    4    0    0  0.45257553122E-01  0.19644774771E-01  0.30473220301E-01  0.57991737057E-01  0.51100000000E-03 0.  1.
         11    1    4    4    0    0  0.68096891914E-01 -0.27135345864E-01  0.32189309495E-01  0.80062016276E-01  0.51100000000E-03 0. -1.
</event>
<event>
 8    1  0.2877139E+004  0.1043930E+01  0.7957747E-01            NaN
         13   -1    0    0    0    0  0.00000000000E+00  0.00000000000E+00  0.74505805969E-08  0.10566000000E+00  0.10566000000E+00 0. -1.
     999900   -1    0    0    0    0 -0.00000000000E+00 -0.00000000000E+00 -0.74505805969E-08  0.93827000000E+00  0.93827000000E+00 0. -1.
     999902    2    1    2    0    0 -0.92033092882E-02 -0.95343945216E-02 -0.39934435819E-02  0.10300897264E+01  0.10299967434E+01 0.  0.
     999903    2    3    3    0    0  0.36882829669E-01  0.41456334381E-01  0.11905295077E+00  0.13887459988E+00  0.45095217256E-01 0.  0.
         14    1    1    2    0    0  0.92033092882E-02  0.95343945216E-02  0.39934435819E-02  0.13840273566E-01  0.00000000000E+00 0. -1.
     999901    1    3    3    0    0 -0.46086138957E-01 -0.50990728902E-01 -0.12304639435E+00  0.89121512656E+00  0.88000000000E+00 0. -1.
        -11    1    4    4    0    0 -0.43884043798E-02 -0.52419099281E-02  0.25924784825E-01  0.26815877795E-01  0.51100000000E-03 0.  1.
         11    1    4    4    0    0  0.41271234048E-01  0.46698244309E-01  0.93128165946E-01  0.11205872208E+00  0.51100000000E-03 0. -1.
</event>
<event>
 8    1  0.2877139E+004  0.1043930E+01  0.7957747E-01            NaN
         13   -1    0    0    0    0  0.00000000000E+00  0.00000000000E+00  0.74505805969E-08  0.10566000000E+00  0.10566000000E+00 0.  1.
     999900   -1    0    0    0    0 -0.00000000000E+00 -0.00000000000E+00 -0.74505805969E-08  0.93827000000E+00  0.93827000000E+00 0.  1.
     999902    2    1    2    0    0 -0.13841124805E-02  0.14056496301E-01  0.35918995206E-02  0.10293559615E+01  0.10292527838E+01 0.  0.
     999903    2    3    3    0    0  0.86367245370E-01 -0.54684527579E-01 -0.81481083489E-01  0.13825381159E+00  0.45002786825E-01 0.  0.
         14    1    1    2    0    0  0.13841124805E-02 -0.14056496301E-01 -0.35918995206E-02  0.14574038486E-01  0.00000000000E+00 0.  1.
     999901    1    3    3    0    0 -0.87751357850E-01  0.68741023880E-01  0.85072983010E-01  0.89110214993E+00  0.88000000000E+00 0. -1.
        -11    1    4    4    0    0  0.38467730638E-01 -0.15750660412E-01 -0.59796681305E-01  0.72826875671E-01  0.51100000000E-03 0.  1.
         11    1    4    4    0    0  0.47899514732E-01 -0.38933867167E-01 -0.21684402184E-01  0.65426935915E-01  0.51100000000E-03 0. -1.
</event>
<event>
 8    1  0.2877139E+004  0.1043930E+01  0.7957747E-01            NaN
         13   -1    0    0    0    0  0.00000000000E+00  0.00000000000E+00  0.74505805969E-08  0.10566000000E+00  0.10566000000E+00 0. -1.
     999900   -1    0    0    0    0 -0.00000000000E+00 -0.00000000000E+00 -0.74505805969E-08  0.93827000000E+00  0.93827000000E+00 0.  1.
     999902    2    1    2    0    0  0.53580263035E-02  0.11325631829E-01 -0.71518505240E-02  0.10295033806E+01  0.10294022942E+01 0.  0.
     999903    2    3    3    0    0  0.56630811504E-01 -0.99439373864E-01 -0.62409690139E-01  0.13936226040E+00  0.49311583970E-01 0.  0.
         14    1    1    2    0    0 -0.53580263035E-02 -0.11325631829E-01  0.71518505240E-02  0.14426619428E-01  0.00000000000E+00 0. -1.
     999901    1    3    3    0    0 -0.51272785200E-01  0.11076500569E+00  0.55257839615E-01  0.89014112018E+00  0.88000000000E+00 0. -1.
        -11    1    4    4    0    0  0.26550588422E-01 -0.54086082160E-01 -0.53208994573E-02  0.60488107270E-01  0.51100000000E-03 0. -1.
         11    1    4    4    0    0  0.30080223082E-01 -0.45353291703E-01 -0.57088790682E-01  0.78874153127E-01  0.51100000000E-03 0.  1.
</event>
<event>
 8    1  0.2877139E+004  0.1043930E+01  0.7957747E-01            NaN
         13   -1    0    0    0    0  0.00000000000E+00  0.00000000000E+00  0.74505805969E-08  0.10566000000E+00  0.10566000000E+00 0. -1.
     999900   -1    0    0    0    0 -0.00000000000E+00 -0.00000000000E+00 -0.74505805969E-08  0.93827000000E+00  0.93827000000E+00 0. -1.
     999902    2    1    2    0    0  0.48370321663E-02 -0.13063479187E-01  0.93438605479E-02  0.10271562378E+01  0.10270192684E+01 0.  0.
     999903    2    3    3    0    0  0.33227702571E-01  0.11457910581E+00 -0.46401675429E-01  0.13574935850E+00  0.45192047340E-01 0.  0.
         14    1    1    2    0    0 -0.48370321663E-02  0.13063479187E-01 -0.93438605479E-02  0.16773762208E-01  0.00000000000E+00 0. -1.
     999901    1    3    3    0    0 -0.28390670405E-01 -0.12764258500E+00  0.55745535977E-01  0.89140687929E+00  0.88000000000E+00 0.  1.
        -11    1    4    4    0    0  0.10716999057E-01  0.71737151290E-01 -0.48582328818E-01  0.87301642244E-01  0.51100000000E-03 0. -1.
         11    1    4    4    0    0  0.22510703513E-01  0.42841954524E-01  0.21806533893E-02  0.48447716255E-01  0.51100000000E-03 0.  1.
</event>
<event>
 8    1  0.2877139E+004  0.1043930E+01  0.7957747E-01            NaN
         13   -1    0    0    0    0  0.00000000000E+00  0.00000000000E+00  0.74505805969E-08  0.10566000000E+00  0.10566000000E+00 0. -1.
     999900   -1    0    0    0    0 -0.00000000000E+00 -0.00000000000E+00 -0.74505805969E-08  0.93827000000E+00  0.93827000000E+00 0. -1.
     999902    2    1    2    0    0 -0.85235814227E-02  0.24825765125E-02 -0.62033980054E-02  0.10330996365E+01  0.10330428656E+01 0.  0.
     999903    2    3    3    0    0  0.57997649187E-01  0.31819956723E-01 -0.11911089361E+00  0.14291209528E+00  0.43130326292E-01 0.  0.
         14    1    1    2    0    0  0.85235814227E-02 -0.24825765125E-02  0.62033980054E-02  0.10830363485E-01  0.00000000000E+00 0. -1.
     999901    1    3    3    0    0 -0.66521230610E-01 -0.29337380210E-01  0.11290749560E+00  0.89018754123E+00  0.88000000000E+00 0.  1.
        -11    1    4    4    0    0  0.57609687664E-01  0.26783241394E-01 -0.74066343429E-01  0.97582285699E-01  0.51100000000E-03 0. -1.
         11    1    4    4    0    0  0.38796152303E-03  0.50367153285E-02 -0.45044550176E-01  0.45329809585E-01  0.51100000000E-03 0.  1.
</event>
<event>
 8    1  0.2877139E+004  0.1043930E+01  0.7957747E-01            NaN
         13   -1    0    0    0    0  0.00000000000E+00  0.00000000000E+00  0.74505805969E-08  0.10566000000E+00  0.10566000000E+00 0. -1.
     999900   -1    0    0    0    0 -0.00000000000E+00 -0.00000000000E+00 -0.74505805969E-08  0.93827000000E+00  0.93827000000E+00 0.  1.
     999902    2    1    2    0    0  0.13644259417E-01 -0.23624320030E-02  0.19998442796E-02  0.10299390645E+01  0.10298440320E+01 0.  0.
     999903    2    3    3    0    0 -0.79080891576E-01 -0.38549853609E-01 -0.96559710035E-01  0.13886024143E+00  0.47101066050E-01 0.  0.
         14    1    1    2    0    0 -0.13644259417E-01  0.23624320030E-02 -0.19998442796E-02  0.13990935536E-01  0.00000000000E+00 0.  1.
     999901    1    3    3    0    0  0.92725150993E-01  0.36187421606E-01  0.98559554315E-01  0.89107882303E+00  0.88000000000E+00 0. -1.
        -11    1    4    4    0    0 -0.15610319369E-02 -0.87096097349E-02  0.28533137676E-02  0.93111032052E-02  0.51100000000E-03 0. -1.
         11    1    4    4    0    0 -0.77519859639E-01 -0.29840243874E-01 -0.99413023803E-01  0.12954913823E+00  0.51100000000E-03 0.  1.
</event>
<event>
 8    1  0.2877139E+004  0.1043930E+01  0.7957747E-01            NaN
         13   -1    0    0    0    0  0.00000000000E+00  0.00000000000E+00  0.74505805969E-08  0.10566000000E+00  0.10566000000E+00 0.  1.
     999900   -1    0    0    0    0 -0.00000000000E+00 -0.00000000000E+00 -0.74505805969E-08  0.93827000000E+00  0.93827000000E+00 0. -1.
     999902    2    1    2    0    0 -0.15837917456E-01 -0.17650739563E-02  0.67216852416E-03  0.10279798613E+01  0.10278561126E+01 0.  0.
     999903    2    3    3    0    0  0.55833983374E-01 -0.47181140028E-02  0.11730488048E+00  0.13739085879E+00  0.44453557734E-01 0.  0.
         14    1    1    2    0    0  0.15837917456E-01  0.17650739563E-02 -0.67216852416E-03  0.15950138744E-01  0.00000000000E+00 0. -1.
     999901    1    3    3    0    0 -0.71671900830E-01  0.29530400466E-02 -0.11663271196E+00  0.89058900247E+00  0.88000000000E+00 0. -1.
        -11    1    4    4    0    0  0.26340884571E-01 -0.15694115499E-01  0.24061738756E-01  0.38979172057E-01  0.51100000000E-03 0.  1.
         11    1    4    4    0    0  0.29493098803E-01  0.10976001496E-01  0.93243141726E-01  0.98411686733E-01  0.51100000000E-03 0. -1.
</event>
<event>
 8    1  0.2877139E+004  0.1043930E+01  0.7957747E-01            NaN
         13   -1    0    0    0    0  0.00000000000E+00  0.00000000000E+00  0.74505805969E-08  0.10566000000E+00  0.10566000000E+00 0.  1.
     999900   -1    0    0    0    0 -0.00000000000E+00 -0.00000000000E+00 -0.74505805969E-08  0.93827000000E+00  0.93827000000E+00 0. -1.
     999902    2    1    2    0    0 -0.12637849106E-01 -0.50947364829E-02  0.34120271137E-02  0.10298831677E+01  0.10297873691E+01 0.  0.
     999903    2    3    3    0    0  0.56122289991E-01  0.11794355599E+00 -0.11554518424E-01  0.13854127162E+00  0.44718935724E-01 0.  0.
         14    1    1    2    0    0  0.12637849106E-01  0.50947364829E-02 -0.34120271137E-02  0.14046832343E-01  0.00000000000E+00 0. -1.
     999901    1    3    3    0    0 -0.68760139097E-01 -0.12303829248E+00  0.14966545537E-01  0.89134189604E+00  0.88000000000E+00 0.  1.
        -11    1    4    4    0    0  0.40296661521E-01  0.35611098169E-01  0.85747238315E-03  0.53786314452E-01  0.51100000000E-03 0. -1.
         11    1    4    4    0    0  0.15825628470E-01  0.82332457824E-01 -0.12411990807E-01  0.84754957168E-01  0.51100000000E-03 0.  1.
</event>
<event>
 8    1  0.2877139E+004  0.1043930E+01  0.7957747E-01            NaN
         13   -1    0    0    0    0  0.00000000000E+00  0.00000000000E+00  0.74505805969E-08  0.10566000000E+00  0.10566000000E+00 0. -1.
     999900   -1    0    0    0    0 -0.00000000000E+00 -0.00000000000E+00 -0.74505805969E-08  0.93827000000E+00  0.93827000000E+00 0.  1.
     999902    2    1    2    0    0 -0.10991877878E-01  0.76151452807E-02  0.31074636620E-02  0.10302016298E+01  0.10301101543E+01 0.  0.
     999903    2    3    3    0    0  0.10921189750E+00  0.27461679086E-01 -0.69332996780E-01  0.13885969050E+00  0.42350523350E-01 0.  0.
         14    1    1    2    0    0  0.10991877878E-01 -0.76151452807E-02 -0.31074636620E-02  0.13728370163E-01  0.00000000000E+00 0.  1.
     999901    1    3    3    0    0 -0.12020377538E+00 -0.19846533805E-01  0.72440460442E-01  0.89134193934E+00  0.88000000000E+00 0.  1.
        -11    1    4    4    0    0  0.73973502807E-01  0.36257850733E-01 -0.58204633118E-01  0.10086997222E+00  0.51100000000E-03 0. -1.
         11    1    4    4    0    0  0.35238394693E-01 -0.87961716469E-02 -0.11128363663E-01  0.37989718280E-01  0.51100000000E-03 0.  1.
</event>
<event>
 8    1  0.2877139E+004  0.1043930E+01  0.7957747E-01            NaN
         13   -1    0    0    0    0  0.00000000000E+00  0.00000000000E+00  0.74505805969E-08  0.10566000000E+00  0.10566000000E+00 0.  1.
     999900   -1    0    0    0    0 -0.00000000000E+00 -0.00000000000E+00 -0.74505805969E-08  0.93827000000E+00  0.93827000000E+00 0.  1.
     999902    2    1    2    0    0  0.79635337843E-02  0.70396517820E-02  0.10024193223E-01  0.10293197633E+01  0.10292160687E+01 0.  0.
     999903    2    3    3    0    0 -0.33581755170E-01 -0.12414395564E+00  0.25595031367E-01  0.13849003718E+00  0.44552539374E-01 0.  0.
         14    1    1    2    0    0 -0.79635337843E-02 -0.70396517820E-02 -0.10024193223E-01  0.14610236730E-01  0.00000000000E+00 0.  1.
     999901    1    3    3    0    0  0.41545288954E-01  0.13118360742E+00 -0.15570838144E-01  0.89082972609E+00  0.88000000000E+00 0.  1.
        -11    1    4    4    0    0  0.10772638839E-01 -0.30569386015E-01  0.87205995194E-02  0.33568543100E-01  0.51100000000E-03 0. -1.
         11    1    4    4    0    0 -0.44354394008E-01 -0.93574569623E-01  0.16874431847E-01  0.10492149408E+00  0.51100000000E-03 0.  1.
</event>
<event>
 8    1  0.2877139E+004  0.1043930E+01  0.7957747E-01            NaN
         13   -1    0    0    0    0  0.00000000000E+00  0.00000000000E+00  0.74505805969E-08  0.10566000000E+00  0.10566000000E+00 0. -1.
     999900   -1    0    0    0    0 -0.00000000000E+00 -0.00000000000E+00 -0.74505805969E-08  0.93827000000E+00  0.93827000000E+00 0.  1.
     999902    2    1    2    0    0  0.47374651576E-02 -0.67516595903E-02  0.10922868609E-01  0.10302428695E+01  0.10301519463E+01 0.  0.
     999903    2    3    3    0    0  0.33765966456E-02  0.54230286471E-01  0.12212952472E+00  0.14114919046E+00  0.45333737799E-01 0.  0.
         14    1    1    2    0    0 -0.47374651576E-02  0.67516595903E-02 -0.10922868609E-01  0.13687130524E-01  0.00000000000E+00 0.  1.
     999901    1    3    3    0    0  0.13608685120E-02 -0.60981946061E-01 -0.11120665611E+00  0.88909367902E+00  0.88000000000E+00 0.  1.
        -11    1    4    4    0    0 -0.66122317392E-02  0.53929442493E-01  0.72949516458E-01  0.90961527300E-01  0.51100000000E-03 0. -1.
         11    1    4    4    0    0  0.99888283849E-02  0.30084397721E-03  0.49180008261E-01  0.50187663157E-01  0.51100000000E-03 0.  1.
</event>
<event>
 8    1  0.2877139E+004  0.1043930E+01  0.7957747E-01            NaN
         13   -1    0    0    0    0  0.00000000000E+00  0.00000000000E+00  0.74505805969E-08  0.10566000000E+00  0.10566000000E+00 0. -1.
     999900   -1    0    0    0    0 -0.00000000000E+00 -0.00000000000E+00 -0.74505805969E-08  0.93827000000E+00  0.93827000000E+00 0. -1.
     999902    2    1    2    0    0 -0.97378841954E-02 -0.82611310786E-02 -0.30061502305E-02  0.10308109446E+01  0.10307274586E+01 0.  0.
     999903    2    3    3    0    0  0.23588035839E-01 -0.11777338210E+00  0.59031511393E-01  0.14123114406E+00  0.45106005702E-01 0.  0.
         14    1    1    2    0    0  0.97378841954E-02  0.82611310786E-02  0.30061502305E-02  0.13119055397E-01  0.00000000000E+00 0. -1.
     999901    1    3    3    0    0 -0.33325920035E-01  0.10951225102E+00 -0.62037661623E-01  0.88957980054E+00  0.88000000000E+00 0.  1.
        -11    1    4    4    0    0  0.30009979587E-01 -0.59125419361E-01  0.16015173488E-01  0.68214082067E-01  0.51100000000E-03 0.  1.
         11    1    4    4    0    0 -0.64219437480E-02 -0.58647962737E-01  0.43016337905E-01  0.73017061996E-01  0.51100000000E-03 0. -1.
</event>
<event>
 8    1  0.2877139E+004  0.1043930E+01  0.7957747E-01            NaN
         13   -1    0    0    0    0  0.00000000000E+00  0.00000000000E+00  0.74505805969E-08  0.10566000000E+00  0.10566000000E+00 0. -1.
     999900   -1    0    0    0    0 -0.00000000000E+00 -0.00000000000E+00 -0.74505805969E-08  0.93827000000E+00  0.93827000000E+00 0. -1.
     999902    2    1    2    0    0  0.17467934349E-03 -0.13402065169E-01 -0.17316019152E-02  0.10304154039E+01  0.10303267735E+01 0.  0.
     999903    2    3    3    0    0 -0.43354539395E-01  0.83695296756E-01  0.91642417054E-01  0.13910098235E+00  0.45455823622E-01 0.  0.
         14    1    1    2    0    0 -0.17467934349E-03  0.13402065169E-01  0.17316019152E-02  0.13514596141E-01  0.00000000000E+00 0.  1.
     999901    1    3    3    0    0  0.43529218739E-01 -0.97097361925E-01 -0.93374018969E-01  0.89131442151E+00  0.88000000000E+00 0. -1.
        -11    1    4    4    0    0 -0.37537845018E-01  0.52523093265E-01  0.84932817778E-01  0.10668462772E+00  0.51100000000E-03 0.  1.
         11    1    4    4    0    0 -0.58166943769E-02  0.31172203491E-01  0.67095992762E-02  0.32416354628E-01  0.51100000000E-03 0. -1.
</event>
<event>
 8    1  0.2877139E+004  0.1043930E+01  0.7957747E-01            NaN
         13   -1    0    0    0    0  0.00000000000E+00  0.00000000000E+00  0.74505805969E-08  0.10566000000E+00  0.10566000000E+00 0. -1.
     999900   -1    0    0    0    0 -0.00000000000E+00 -0.00000000000E+00 -0.74505805969E-08  0.93827000000E+00  0.93827000000E+00 0. -1.
     999902    2    1    2    0    0  0.93593542725E-02  0.98332538488E-02 -0.88616222488E-02  0.10277183146E+01  0.10275904415E+01 0.  0.
     999903    2    3    3    0    0 -0.37690099445E-01  0.12584322620E+00  0.38440461104E-02  0.13876758552E+00  0.44548904853E-01 0.  0.
         14    1    1    2    0    0 -0.93593542725E-02 -0.98332538488E-02  0.88616222488E-02  0.16211685370E-01  0.00000000000E+00 0. -1.
     999901    1    3    3    0    0  0.47049453718E-01 -0.11600997235E+00 -0.12705668359E-01  0.88895072911E+00  0.88000000000E+00 0. -1.
        -11    1    4    4    0    0 -0.28228835441E-01  0.45028103200E-01  0.18129174729E-01  0.56154477342E-01  0.51100000000E-03 0.  1.
         11    1    4    4    0    0 -0.94612640042E-02  0.80815122999E-01 -0.14285128619E-01  0.82613108177E-01  0.51100000000E-03 0. -1.
</event>
<event>
 8    1  0.2877139E+004  0.1043930E+01  0.7957747E-01            NaN
         13   -1    0    0    0    0  0.00000000000E+00  0.00000000000E+00  0.74505805969E-08  0.10566000000E+00  0.10566000000E+00 0.  1.
     999900   -1    0    0    0    0 -0.00000000000E+00 -0.00000000000E+00 -0.74505805969E-08  0.93827000000E+00  0.93827000000E+00 0.  1.
     999902    2    1    2    0    0  0.15402012095E-02 -0.99544675141E-02 -0.92585517118E-02  0.10302484642E+01  0.10301576158E+01 0.  0.
     999903    2    3    3    0    0  0.77825760226E-01 -0.32363914879E-01 -0.10446887713E+00  0.14154903470E+00  0.44923390284E-01 0.  0.
         14    1    1    2    0    0 -0.15402012095E-02  0.99544675141E-02  0.92585517118E-02  0.13681535844E-01  0.00000000000E+00 0.  1.
     999901    1    3    3    0    0 -0.76285559017E-01  0.22409447365E-01  0.95210325420E-01  0.88869942945E+00  0.88000000000E+00 0. -1.
        -11    1    4    4    0    0  0.36620274325E-01 -0.38884412093E-01 -0.52399357584E-01  0.74826437785E-01  0.51100000000E-03 0.  1.
         11    1    4    4    0    0  0.41205485901E-01  0.65204972138E-02 -0.52069519548E-01  0.66722596916E-01  0.51100000000E-03 0. -1.
</event>
<event>
 8    1  0.2877139E+004  0.1043930E+01  0.7957747E-01            NaN
         13   -1    0    0    0    0  0.00000000000E+00  0.00000000000E+00  0.74505805969E-08  0.10566000000E+00  0.10566000000E+00 0. -1.
     999900   -1    0    0    0    0 -0.00000000000E+00 -0.00000000000E+00 -0.74505805969E-08  0.93827000000E+00  0.93827000000E+00 0. -1.
     999902    2    1    2    0    0  0.55086333774E-02 -0.59087926043E-02 -0.10911237811E-01  0.10303537714E+01  0.10302643255E+01 0.  0.
     999903    2    3    3    0    0  0.12750792820E+00  0.25702884307E-01 -0.30973904902E-01  0.14114871259E+00  0.45217986062E-01 0.  0.
         14    1    1    2    0    0 -0.55086333774E-02  0.59087926043E-02  0.10911237811E-01  0.13576228574E-01  0.00000000000E+00 0. -1.
     999901    1    3    3    0    0 -0.12199929483E+00 -0.31611676911E-01  0.20062667091E-01  0.88920505884E+00  0.88000000000E+00 0.  1.
        -11    1    4    4    0    0  0.59154296249E-01  0.28025140234E-01  0.14103118670E-02  0.65474341161E-01  0.51100000000E-03 0. -1.
         11    1    4    4    0    0  0.68353631954E-01 -0.23222559271E-02 -0.32384216769E-01  0.75674371426E-01  0.51100000000E-03 0.  1.
</event>
<event>
 8    1  0.2877139E+004  0.1043930E+01  0.7957747E-01            NaN
         13   -1    0    0    0    0  0.00000000000E+00  0.00000000000E+00  0.74505805969E-08  0.10566000000E+00  0.10566000000E+00 0.  1.
     999900   -1    0    0    0    0 -0.00000000000E+00 -0.00000000000E+00 -0.74505805969E-08  0.93827000000E+00  0.93827000000E+00 0. -1.
     999902    2    1    2    0    0 -0.89013411655E-02 -0.23183056083E-02 -0.11943637528E-01  0.10288548916E+01  0.10287444431E+01 0.  0.
     999903    2    3    3    0    0 -0.48148102531E-01 -0.93084530361E-01  0.78858574628E-01  0.13867296776E+00  0.45039400793E-01 0.  0.
         14    1    1    2    0    0  0.89013411655E-02  0.23183056083E-02  0.11943637528E-01  0.15075108385E-01  0.00000000000E+00 0.  1.
     999901    1    3    3    0    0  0.39246761366E-01  0.90766224752E-01 -0.90802212156E-01  0.89018192386E+00  0.88000000000E+00 0. -1.
        -11    1    4    4    0    0 -0.34080660882E-01 -0.92301017587E-01  0.60425321153E-01  0.11546622818E+00  0.51100000000E-03 0.  1.
         11    1    4    4    0    0 -0.14067441649E-01 -0.78351277397E-03  0.18433253476E-01  0.23206739571E-01  0.51100000000E-03 0. -1.
</event>
<event>
 8    1  0.2877139E+004  0.1043930E+01  0.7957747E-01            NaN
         13   -1    0    0    0    0  0.00000000000E+00  0.00000000000E+00  0.74505805969E-08  0.10566000000E+00  0.10566000000E+00 0.  1.
     999900   -1    0    0    0    0 -0.00000000000E+00 -0.00000000000E+00 -0.74505805969E-08  0.93827000000E+00  0.93827000000E+00 0. -1.
     999902    2    1    2    0    0 -0.99610431182E-02  0.88546797062E-02 -0.62120693386E-02  0.10292256626E+01  0.10291206183E+01 0.  0.
     999903    2    3    3    0    0 -0.82379768497E-01 -0.68907970181E-01 -0.69869133321E-01  0.14055039948E+00  0.57775292214E-01 0.  0.
         14    1    1    2    0    0  0.99610431182E-02 -0.88546797062E-02  0.62120693386E-02  0.14704337393E-01  0.00000000000E+00 0.  1.
     999901    1    3    3    0    0  0.72418725378E-01  0.77762649887E-01  0.63657063982E-01  0.88867526313E+00  0.88000000000E+00 0.  1.
        -11    1    4    4    0    0 -0.50463952686E-01 -0.28635990086E-01 -0.56462183538E-02  0.58298982424E-01  0.51100000000E-03 0. -1.
         11    1    4    4    0    0 -0.31915815810E-01 -0.40271980095E-01 -0.64222914967E-01  0.82251417054E-01  0.51100000000E-03 0.  1.
</event>
<event>
 8    1  0.2877139E+004  0.1043930E+01  0.7957747E-01            NaN
         13   -1    0    0    0    0  0.00000000000E+00  0.00000000000E+00  0.74505805969E-08  0.10566000000E+00  0.10566000000E+00 0. -1.
     999900   -1    0    0    0    0 -0.00000000000E+00 -0.00000000000E+00 -0.74505805969E-08  0.93827000000E+00  0.93827000000E+00 0.  1.
     999902    2    1    2    0    0 -0.59783105944E-02  0.30148757259E-02 -0.14598931060E-01  0.10278689147E+01  0.10277434249E+01 0.  0.
     999903    2    3    3    0    0 -0.71781763053E-01  0.11003913367E+00  0.45355680220E-02  0.13873989413E+00  0.44350359654E-01 0.  0.
         14    1    1    2    0    0  0.59783105944E-02 -0.30148757259E-02  0.14598931060E-01  0.16061085309E-01  0.00000000000E+00 0. -1.
     999901    1    3    3    0    0  0.65803452458E-01 -0.10702425794E+00 -0.19134499082E-01  0.88912902056E+00  0.88000000000E+00 0. -1.
        -11    1    4    4    0    0 -0.58498781765E-01  0.94074876058E-01  0.20345839662E-01  0.11263393843E+00  0.51100000000E-03 0. -1.
         11    1    4    4    0    0 -0.13282981288E-01  0.15964257610E-01 -0.15810271640E-01  0.26105955705E-01  0.51100000000E-03 0.  1.
</event>
<event>
 8    1  0.2877139E+004  0.1043930E+01  0.7957747E-01            NaN
         13   -1    0    0    0    0  0.00000000000E+00  0.00000000000E+00  0.74505805969E-08  0.10566000000E+00  0.10566000000E+00 0. -1.
     999900   -1    0    0    0    0 -0.00000000000E+00 -0.00000000000E+00 -0.74505805969E-08  0.93827000000E+00  0.93827000000E+00 0.  1.
     999902    2    1    2    0    0 -0.25508562425E-02  0.12819925805E-01  0.45072262938E-02  0.10301034873E+01  0.10300106903E+01 0.  0.
     999903    2    3    3    0    0 -0.29648514379E-01  0.12800327381E+00  0.28115566737E-01  0.14186993664E+00  0.45527149250E-01 0.  0.
         14    1    1    2    0    0  0.25508562425E-02 -0.12819925805E-01 -0.45072262938E-02  0.13826512723E-01  0.00000000000E+00 0.  1.
     999901    1    3    3    0    0  0.27097658136E-01 -0.11518334801E+00 -0.23608340443E-01  0.88823355063E+00  0.88000000000E+00 0.  1.
        -11    1    4    4    0    0 -0.24754975531E-01  0.92491079058E-01  0.40470121626E-01  0.10394950882E+00  0.51100000000E-03 0.  1.
         11    1    4    4    0    0 -0.48935388485E-02  0.35512194752E-01 -0.12354554889E-01  0.37920427821E-01  0.51100000000E-03 0. -1.
</event>
<event>
 8    1  0.2877139E+004  0.1043930E+01  0.7957747E-01            NaN
         13   -1    0    0    0    0  0.00000000000E+00  0.00000000000E+00  0.74505805969E-08  0.10566000000E+00  0.10566000000E+00 0.  1.
     999900   -1    0    0    0    0 -0.00000000000E+00 -0.00000000000E+00 -0.74505805969E-08  0.93827000000E+00  0.93827000000E+00 0. -1.
     999902    2    1    2    0    0  0.10548879555E-01  0.79794692850E-02  0.17549604172E-02  0.10305871864E+01  0.10305008093E+01 0.  0.
     999903    2    3    3    0    0  0.45284802938E-01 -0.12183776246E+00 -0.22191026099E-01  0.14006345938E+00  0.47224752803E-01 0.  0.
         14    1    1    2    0    0 -0.10548879555E-01 -0.79794692850E-02 -0.17549604172E-02  0.13342813646E-01  0.00000000000E+00 0. -1.
     999901    1    3    3    0    0 -0.34735923383E-01  0.12981723174E+00  0.23945986516E-01  0.89052372697E+00  0.88000000000E+00 0. -1.
        -11    1    4    4    0    0  0.34040312389E-02 -0.30458603382E-01  0.13365209787E-01  0.33439555953E-01  0.51100000000E-03 0. -1.
         11    1    4    4    0    0  0.41880771699E-01 -0.91379159073E-01 -0.35556235886E-01  0.10662390343E+00  0.51100000000E-03 0.  1.
</event>
<event>
 8    1  0.2877139E+004  0.1043930E+01  0.7957747E-01            NaN
         13   -1    0    0    0    0  0.00000000000E+00  0.00000000000E+00  0.74505805969E-08  0.10566000000E+00  0.10566000000E+00 0.  1.
     999900   -1    0    0    0    0 -0.00000000000E+00 -0.00000000000E+00 -0.74505805969E-08  0.93827000000E+00  0.93827000000E+00 0. -1.
     999902    2    1    2    0    0 -0.13452842169E-01  0.10187001230E-01  0.76826808571E-02  0.10253887611E+01  0.10252211146E+01 0.  0.
     999903    2    3    3    0    0 -0.11878053014E+00  0.53642087581E-01  0.84805461047E-02  0.13804277274E+00  0.44694513567E-01 0.  0.
         14    1    1    2    0    0  0.13452842169E-01 -0.10187001230E-01 -0.76826808571E-02  0.18541238945E-01  0.00000000000E+00 0. -1.
     999901    1    3    3    0    0  0.10532768798E+00 -0.43455086351E-01 -0.79786524769E-03  0.88734598831E+00  0.88000000000E+00 0. -1.
        -11    1    4    4    0    0 -0.64578886473E-01  0.49657644710E-01 -0.63297672483E-02  0.81710717354E-01  0.51100000000E-03 0.  1.
         11    1    4    4    0    0 -0.54201643671E-01  0.39844428714E-02  0.14810313353E-01  0.56332055388E-01  0.51100000000E-03 0. -1.
</event>
<event>
 8    1  0.2877139E+004  0.1043930E+01  0.7957747E-01            NaN
         13   -1    0    0    0    0  0.00000000000E+00  0.00000000000E+00  0.74505805969E-08  0.10566000000E+00  0.10566000000E+00 0.  1.
     999900   -1    0    0    0    0 -0.00000000000E+00 -0.00000000000E+00 -0.74505805969E-08  0.93827000000E+00  0.93827000000E+00 0.  1.
     999902    2    1    2    0    0  0.44861042886E-02  0.11075938098E-01 -0.72980611593E-02  0.10299277419E+01  0.10298325545E+01 0.  0.
     999903    2    3    3    0    0 -0.19526083946E-01 -0.11364904972E+00  0.61456257502E-01  0.13815419207E+00  0.44859054196E-01 0.  0.
         14    1    1    2    0    0 -0.44861042886E-02 -0.11075938098E-01  0.72980611593E-02  0.14002258144E-01  0.00000000000E+00 0.  1.
     999901    1    3    3    0    0  0.24012188234E-01  0.12472498782E+00 -0.68754318662E-01  0.89177354979E+00  0.88000000000E+00 0.  1.
        -11    1    4    4    0    0  0.33180952673E-02 -0.92155385294E-01  0.42904042062E-01  0.10170861685E+00  0.51100000000E-03 0. -1.
         11    1    4    4    0    0 -0.22844179213E-01 -0.21493664424E-01  0.18552215441E-01  0.36445575219E-01  0.51100000000E-03 0.  1.
</event>
<event>
 8    1  0.2877139E+004  0.1043930E+01  0.7957747E-01            NaN
         13   -1    0    0    0    0  0.00000000000E+00  0.00000000000E+00  0.74505805969E-08  0.10566000000E+00  0.10566000000E+00 0.  1.
     999900   -1    0    0    0    0 -0.00000000000E+00 -0.00000000000E+00 -0.74505805969E-08  0.93827000000E+00  0.93827000000E+00 0. -1.
     999902    2    1    2    0    0 -0.13535027986E-01 -0.45615157161E-02  0.66434249410E-03  0.10296315470E+01  0.10295322612E+01 0.  0.
     999903    2    3    3    0    0 -0.75250604843E-01 -0.57720643873E-01  0.93831463867E-01  0.14097254722E+00  0.45547658542E-01 0.  0.
         14    1    1    2    0    0  0.13535027986E-01  0.45615157161E-02 -0.66434249410E-03  0.14298453034E-01  0.00000000000E+00 0. -1.
     999901    1    3    3    0    0  0.61715576857E-01  0.53159128157E-01 -0.93167121373E-01  0.88865899975E+00  0.88000000000E+00 0.  1.
        -11    1    4    4    0    0  0.42970244179E-02 -0.11541689145E-01  0.17713737503E-01  0.21580375912E-01  0.51100000000E-03 0. -1.
         11    1    4    4    0    0 -0.79547629261E-01 -0.46178954728E-01  0.76117726364E-01  0.11939217130E+00  0.51100000000E-03 0.  1.
</event>
<event>
 8    1  0.2877139E+004  0.1043930E+01  0.7957747E-01            NaN
         13   -1    0    0    0    0  0.00000000000E+00  0.00000000000E+00  0.74505805969E-08  0.10566000000E+00  0.10566000000E+00 0.  1.
     999900   -1    0    0    0    0 -0.00000000000E+00 -0.00000000000E+00 -0.74505805969E-08  0.93827000000E+00  0.93827000000E+00 0. -1.
     999902    2    1    2    0    0 -0.10282872409E-01  0.18897845026E-02  0.77336185136E-02  0.10309254775E+01  0.10308434520E+01 0.  0.
     999903    2    3    3    0    0  0.24669724461E-01  0.15720337378E-01 -0.12970877447E+00  0.13946410446E+00  0.42073102397E-01 0.  0.
         14    1    1    2    0    0  0.10282872409E-01 -0.18897845026E-02 -0.77336185136E-02  0.13004522512E-01  0.00000000000E+00 0. -1.
     999901    1    3    3    0    0 -0.34952596869E-01 -0.13830552876E-01  0.13744239298E+00  0.89146137303E+00  0.88000000000E+00 0.  1.
        -11    1    4    4    0    0 -0.10422764479E-02  0.23749520074E-01 -0.70819685485E-01  0.74704852701E-01  0.51100000000E-03 0. -1.
         11    1    4    4    0    0  0.25712000909E-01 -0.80291826959E-02 -0.58889088983E-01  0.64759251754E-01  0.51100000000E-03 0.  1.
</event>
<event>
 8    1  0.2877139E+004  0.1043930E+01  0.7957747E-01            NaN
         13   -1    0    0    0    0  0.00000000000E+00  0.00000000000E+00  0.74505805969E-08  0.10566000000E+00  0.10566000000E+00 0. -1.
     999900   -1    0    0    0    0 -0.00000000000E+00 -0.00000000000E+00 -0.74505805969E-08  0.93827000000E+00  0.93827000000E+00 0. -1.
     999902    2    1    2    0    0  0.14615781431E-01  0.59580722561E-02 -0.55525795266E-02  0.10271982687E+01  0.10270619906E+01 0.  0.
     999903    2    3    3    0    0  0.95399020773E-02  0.10804478339E+00 -0.73592154077E-01  0.13867317351E+00  0.45274263769E-01 0.  0.
         14    1    1    2    0    0 -0.14615781431E-01 -0.59580722561E-02  0.55525795266E-02  0.16731731269E-01  0.00000000000E+00 0. -1.
     999901    1    3    3    0    0  0.50758793536E-02 -0.10208671113E+00  0.68039574550E-01  0.88852509523E+00  0.88000000000E+00 0. -1.
        -11    1    4    4    0    0 -0.76893429692E-02  0.34777358810E-01 -0.34475905813E-02  0.35787395587E-01  0.51100000000E-03 0. -1.
         11    1    4    4    0    0  0.17229245046E-01  0.73267424577E-01 -0.70144563495E-01  0.10288577792E+00  0.51100000000E-03 0.  1.
</event>
<event>
 8    1  0.2877139E+004  0.1043930E+01  0.7957747E-01            NaN
         13   -1    0    0    0    0  0.00000000000E+00  0.00000000000E+00  0.74505805969E-08  0.10566000000E+00  0.10566000000E+00 0.  1.
     999900   -1    0    0    0    0 -0.00000000000E+00 -0.00000000000E+00 -0.74505805969E-08  0.93827000000E+00  0.93827000000E+00 0. -1.
     999902    2    1    2    0    0  0.12845460973E-02  0.47575203311E-02 -0.12963095808E-01  0.10300618382E+01  0.10299684775E+01 0.  0.
     999903    2    3    3    0    0  0.34009385412E-01 -0.54786509593E-01 -0.11804247607E+00  0.14120972298E+00  0.42987902679E-01 0.  0.
         14    1    1    2    0    0 -0.12845460973E-02 -0.47575203311E-02  0.12963095808E-01  0.13868161785E-01  0.00000000000E+00 0.  1.
     999901    1    3    3    0    0 -0.32724839315E-01  0.59544029924E-01  0.10507938026E+00  0.88885211524E+00  0.88000000000E+00 0.  1.
        -11    1    4    4    0    0  0.31339854448E-01 -0.27721436922E-01 -0.37467055711E-01  0.56166768880E-01  0.51100000000E-03 0.  1.
         11    1    4    4    0    0  0.26695309643E-02 -0.27065072671E-01 -0.80575420360E-01  0.85042954096E-01  0.51100000000E-03 0. -1.
</event>
<event>
 8    1  0.2877139E+004  0.1043930E+01  0.7957747E-01            NaN
         13   -1    0    0    0    0  0.00000000000E+00  0.00000000000E+00  0.74505805969E-08  0.10566000000E+00  0.10566000000E+00 0.  1.
     999900   -1    0    0    0    0 -0.00000000000E+00 -0.00000000000E+00 -0.74505805969E-08  0.93827000000E+00  0.93827000000E+00 0.  1.
     999902    2    1    2    0    0 -0.10822983876E-02  0.24339448290E-02 -0.93366582278E-02  0.10342207959E+01  0.10341752202E+01 0.  0.
     999903    2    3    3    0    0  0.52961739636E-01 -0.41706296219E-01 -0.11963699653E+00  0.14459431049E+00  0.45278501275E-01 0.  0.
         14    1    1    2    0    0  0.10822983876E-02 -0.24339448290E-02  0.93366582278E-02  0.97092040917E-02  0.00000000000E+00 0.  1.
     999901    1    3    3    0    0 -0.54044038024E-01  0.44140241048E-01  0.11030033830E+00  0.88962648542E+00  0.88000000000E+00 0. -1.
        -11    1    4    4    0    0  0.57792582878E-01 -0.24926332644E-01 -0.84616122978E-01  0.10545830495E+00  0.51100000000E-03 0. -1.
         11    1    4    4    0    0 -0.48308432419E-02 -0.16779963575E-01 -0.35020873553E-01  0.39136005538E-01  0.51100000000E-03 0.  1.
</event>
<event>
 8    1  0.2877139E+004  0.1043930E+01  0.7957747E-01            NaN
         13   -1    0    0    0    0  0.00000000000E+00  0.00000000000E+00  0.74505805969E-08  0.10566000000E+00  0.10566000000E+00 0. -1.
     999900   -1    0    0    0    0 -0.00000000000E+00 -0.00000000000E+00 -0.74505805969E-08  0.93827000000E+00  0.93827000000E+00 0. -1.
     999902    2    1    2    0    0  0.13099315050E-01 -0.56065214071E-02  0.21997227844E-02  0.10295125135E+01  0.10294115559E+01 0.  0.
     999903    2    3    3    0    0  0.11352651889E-01 -0.13204215430E+00  0.12866471290E-01  0.14041026986E+00  0.44558776713E-01 0.  0.
         14    1    1    2    0    0 -0.13099315050E-01  0.56065214071E-02 -0.21997227844E-02  0.14417486515E-01  0.00000000000E+00 0. -1.
     999901    1    3    3    0    0  0.17466631610E-02  0.12643563289E+00 -0.10666748506E-01  0.88910224363E+00  0.88000000000E+00 0.  1.
        -11    1    4    4    0    0 -0.23968002984E-02 -0.69764207028E-01  0.27406065554E-01  0.74994285009E-01  0.51100000000E-03 0.  1.
         11    1    4    4    0    0  0.13749452188E-01 -0.62277947270E-01 -0.14539594264E-01  0.65415984850E-01  0.51100000000E-03 0. -1.
</event>
<event>
 8    1  0.2877139E+004  0.1043930E+01  0.7957747E-01            NaN
         13   -1    0    0    0    0  0.00000000000E+00  0.00000000000E+00  0.74505805969E-08  0.10566000000E+00  0.10566000000E+00 0. -1.
     999900   -1    0    0    0    0 -0.00000000000E+00 -0.00000000000E+00 -0.74505805969E-08  0.93827000000E+00  0.93827000000E+00 0. -1.
     999902    2    1    2    0    0  0.12833035826E-01 -0.34890719462E-02  0.30800575910E-02  0.10302790958E+01  0.10301886565E+01 0.  0.
     999903    2    3    3    0    0 -0.88410865918E-01 -0.93732047176E-01  0.28520727419E-01  0.13952584716E+00  0.45297375799E-01 0.  0.
         14    1    1    2    0    0 -0.12833035826E-01  0.34890719462E-02 -0.30800575910E-02  0.13650904231E-01  0.00000000000E+00 0. -1.
     999901    1    3    3    0    0  0.10124390174E+00  0.90242975230E-01 -0.25440669828E-01  0.89075324860E+00  0.88000000000E+00 0. -1.
        -11    1    4    4    0    0 -0.38676900289E-01 -0.26555037354E-01  0.30423736135E-01  0.55919025978E-01  0.51100000000E-03 0.  1.
         11    1    4    4    0    0 -0.49733965629E-01 -0.67177009822E-01 -0.19030087164E-02  0.83606821187E-01  0.51100000000E-03 0. -1.
</event>
<event>
 8    1  0.2877139E+004  0.1043930E+01  0.7957747E-01            NaN
         13   -1    0    0    0    0  0.00000000000E+00  0.00000000000E+00  0.74505805969E-08  0.10566000000E+00  0.10566000000E+00 0. -1.
     999900   -1    0    0    0    0 -0.00000000000E+00 -0.00000000000E+00 -0.74505805969E-08  0.93827000000E+00  0.93827000000E+00 0. -1.
     999902    2    1    2    0    0  0.11205360588E-01  0.63641994748E-02 -0.37161159101E-02  0.10305183387E+01  0.10304310621E+01 0.  0.
     999903    2    3    3    0    0 -0.52582909059E-01 -0.90799490119E-01 -0.80496647973E-01  0.13956100190E+00  0.44587590054E-01 0.  0.
         14    1    1    2    0    0 -0.11205360588E-01 -0.63641994748E-02  0.37161159101E-02  0.13411661281E-01  0.00000000000E+00 0.  1.
     999901    1    3    3    0    0  0.63788269646E-01  0.97163689593E-01  0.76780532063E-01  0.89095733681E+00  0.88000000000E+00 0.  1.
        -11    1    4    4    0    0 -0.20144519717E-01 -0.73067331179E-01 -0.63454010817E-01  0.98849932575E-01  0.51100000000E-03 0.  1.
         11    1    4    4    0    0 -0.32438389342E-01 -0.17732158939E-01 -0.17042637156E-01  0.40711069330E-01  0.51100000000E-03 0. -1.
</event>
<event>
 8    1  0.2877139E+004  0.1043930E+01  0.7957747E-01            NaN
         13   -1    0    0    0    0  0.00000000000E+00  0.00000000000E+00  0.74505805969E-08  0.10566000000E+00  0.10566000000E+00 0.  1.
     999900   -1    0    0    0    0 -0.00000000000E+00 -0.00000000000E+00 -0.74505805969E-08  0.93827000000E+00  0.93827000000E+00 0.  1.
     999902    2    1    2    0    0  0.12339492505E-01 -0.21888879142E-02  0.38102784894E-02  0.10308314303E+01  0.10307482065E+01 0.  0.
     999903    2    3    3    0    0 -0.51543515010E-01 -0.12154354029E+00  0.13207395008E-01  0.14042990432E+00  0.46006049803E-01 0.  0.
         14    1    1    2    0    0 -0.12339492505E-01  0.21888879142E-02 -0.38102784894E-02  0.13098569683E-01  0.00000000000E+00 0. -1.
     999901    1    3    3    0    0  0.63883007515E-01  0.11935465238E+00 -0.93971165191E-02  0.89040152599E+00  0.88000000000E+00 0.  1.
        -11    1    4    4    0    0 -0.14994230822E-01 -0.70732675116E-01  0.25443628061E-01  0.76652316448E-01  0.51100000000E-03 0. -1.
         11    1    4    4    0    0 -0.36549284188E-01 -0.50810865178E-01 -0.12236233052E-01  0.63777587875E-01  0.51100000000E-03 0.  1.
</event>
<event>
 7    1  0.2877139E+004  0.1043930E+01  0.7957747E-01            NaN
         13   -1    0    0    0    0  0.00000000000E+00  0.00000000000E+00  0.74505805969E-08  0.10566000000E+00  0.10566000000E+00 0. -1.
     999900   -1    0    0    0    0 -0.00000000000E+00 -0.00000000000E+00 -0.74505805969E-08  0.93827000000E+00  0.93827000000E+00 0.  1.
     999903    2    1    2    0    0  0.93195738532E-01  0.17458839460E-01 -0.46113493571E-01  0.11478136471E+00  0.45365743008E-01 0.  0.
         14    1    1    2    0    0 -0.45037066733E-01 -0.41744657645E-02 -0.85789456259E-02  0.46036527372E-01  0.00000000000E+00 0.  1.
     999901    1    1    2    0    0 -0.48158671798E-01 -0.13284373695E-01  0.54692439197E-01  0.88311210792E+00  0.88000000000E+00 0. -1.
        -11    1    3    3    0    0  0.44360014157E-01 -0.78120858658E-02 -0.38521419843E-01  0.59270569841E-01  0.51100000000E-03 0. -1.
         11    1    3    3    0    0  0.48835724375E-01  0.25270925325E-01 -0.75920737278E-02  0.55510794865E-01  0.51100000000E-03 0.  1.
</event>
<event>
 8    1  0.2877139E+004  0.1043930E+01  0.7957747E-01            NaN
         13   -1    0    0    0    0  0.00000000000E+00  0.00000000000E+00  0.74505805969E-08  0.10566000000E+00  0.10566000000E+00 0.  1.
     999900   -1    0    0    0    0 -0.00000000000E+00 -0.00000000000E+00 -0.74505805969E-08  0.93827000000E+00  0.93827000000E+00 0. -1.
     999902    2    1    2    0    0  0.87214406553E-02 -0.31138473906E-02 -0.11738284299E-01  0.10289785154E+01  0.10288698841E+01 0.  0.
     999903    2    3    3    0    0  0.99214089224E-01  0.34566058282E-01  0.78819400703E-01  0.13891706303E+00  0.45246044985E-01 0.  0.
         14    1    1    2    0    0 -0.87214406553E-02  0.31138473906E-02  0.11738284299E-01  0.14951484574E-01  0.00000000000E+00 0.  1.
     999901    1    3    3    0    0 -0.90492648568E-01 -0.37679905673E-01 -0.90557685002E-01  0.89006145240E+00  0.88000000000E+00 0. -1.
        -11    1    4    4    0    0  0.44532567884E-01  0.28525228851E-01  0.61772578753E-01  0.81320052202E-01  0.51100000000E-03 0.  1.
         11    1    4    4    0    0  0.54681521339E-01  0.60408294314E-02  0.17046821950E-01  0.57597010824E-01  0.51100000000E-03 0. -1.
</event>
<event>
 8    1  0.2877139E+004  0.1043930E+01  0.7957747E-01            NaN
         13   -1    0    0    0    0  0.00000000000E+00  0.00000000000E+00  0.74505805969E-08  0.10566000000E+00  0.10566000000E+00 0. -1.
     999900   -1    0    0    0    0 -0.00000000000E+00 -0.00000000000E+00 -0.74505805969E-08  0.93827000000E+00  0.93827000000E+00 0. -1.
     999902    2    1    2    0    0  0.74065258060E-02  0.14138249726E-01  0.96894648867E-02  0.10252582979E+01  0.10250882620E+01 0.  0.
     999903    2    3    3    0    0  0.53833805681E-01  0.98239302623E-01 -0.64657675416E-01  0.13691378325E+00  0.44896880079E-01 0.  0.
         14    1    1    2    0    0 -0.74065258060E-02 -0.14138249726E-01 -0.96894648867E-02  0.18671702108E-01  0.00000000000E+00 0. -1.
     999901    1    3    3    0    0 -0.46427279875E-01 -0.84101052898E-01  0.74347140303E-01  0.88834451464E+00  0.88000000000E+00 0.  1.
        -11    1    4    4    0    0  0.96535170564E-02  0.53052638761E-01 -0.46374966433E-01  0.71124338335E-01  0.51100000000E-03 0. -1.
         11    1    4    4    0    0  0.44180288625E-01  0.45186663863E-01 -0.18282708983E-01  0.65789444919E-01  0.51100000000E-03 0.  1.
</event>
<event>
 8    1  0.2877139E+004  0.1043930E+01  0.7957747E-01            NaN
         13   -1    0    0    0    0  0.00000000000E+00  0.00000000000E+00  0.74505805969E-08  0.10566000000E+00  0.10566000000E+00 0.  1.
     999900   -1    0    0    0    0 -0.00000000000E+00 -0.00000000000E+00 -0.74505805969E-08  0.93827000000E+00  0.93827000000E+00 0. -1.
     999902    2    1    2    0    0  0.70834292325E-02  0.11880054218E-01  0.24223556227E-02  0.10298879751E+01  0.10297922425E+01 0.  0.
     999903    2    3    3    0    0 -0.10577797980E+00 -0.76980395687E-01  0.20366869528E-03  0.13823849248E+00  0.44664045832E-01 0.  0.
         14    1    1    2    0    0 -0.70834292325E-02 -0.11880054218E-01 -0.24223556227E-02  0.14042024949E-01  0.00000000000E+00 0.  1.
     999901    1    3    3    0    0  0.11286140903E+00  0.88860449904E-01  0.22186869274E-02  0.89164948258E+00  0.88000000000E+00 0. -1.
        -11    1    4    4    0    0 -0.44986411513E-01 -0.99708200577E-02  0.10243481671E-01  0.47205767774E-01  0.51100000000E-03 0. -1.
         11    1    4    4    0    0 -0.60791568288E-01 -0.67009575629E-01 -0.10039812976E-01  0.91032724701E-01  0.51100000000E-03 0.  1.
</event>
<event>
 8    1  0.2877139E+004  0.1043930E+01  0.7957747E-01            NaN
         13   -1    0    0    0    0  0.00000000000E+00  0.00000000000E+00  0.74505805969E-08  0.10566000000E+00  0.10566000000E+00 0. -1.
     999900   -1    0    0    0    0 -0.00000000000E+00 -0.00000000000E+00 -0.74505805969E-08  0.93827000000E+00  0.93827000000E+00 0.  1.
     999902    2    1    2    0    0  0.36830219424E-02  0.73513064287E-02  0.89878383128E-02  0.10317485553E+01  0.10316766421E+01 0.  0.
     999903    2    3    3    0    0 -0.13205069724E+00 -0.88649716265E-02  0.20005029096E-01  0.14112630729E+00  0.44726491688E-01 0.  0.
         14    1    1    2    0    0 -0.36830219424E-02 -0.73513064287E-02 -0.89878383128E-02  0.12181444675E-01  0.00000000000E+00 0. -1.
     999901    1    3    3    0    0  0.13573371918E+00  0.16216278055E-01 -0.11017190783E-01  0.89062224803E+00  0.88000000000E+00 0.  1.
        -11    1    4    4    0    0 -0.47708859047E-01 -0.98852472113E-02 -0.13192166008E-01  0.50479180946E-01  0.51100000000E-03 0. -1.
         11    1    4    4    0    0 -0.84341838189E-01  0.10202755848E-02  0.33197195103E-01  0.90647126348E-01  0.51100000000E-03 0.  1.
</event>
<event>
 8    1  0.2877139E+004  0.1043930E+01  0.7957747E-01            NaN
         13   -1    0    0    0    0  0.00000000000E+00  0.00000000000E+00  0.74505805969E-08  0.10566000000E+00  0.10566000000E+00 0. -1.
     999900   -1    0    0    0    0 -0.00000000000E+00 -0.00000000000E+00 -0.74505805969E-08  0.93827000000E+00  0.93827000000E+00 0. -1.
     999902    2    1    2    0    0  0.30370594042E-03 -0.96216473878E-02 -0.98398973963E-02  0.10301643937E+01  0.10300724179E+01 0.  0.
     999903    2    3    3    0    0 -0.10776109579E+00 -0.77376588821E-01  0.13452664723E-01  0.14066381647E+00  0.44785542455E-01 0.  0.
         14    1    1    2    0    0 -0.30370594042E-03  0.96216473878E-02  0.98398973963E-02  0.13765606290E-01  0.00000000000E+00 0.  1.
     999901    1    3    3    0    0  0.10806480173E+00  0.67754941433E-01 -0.23292562119E-01  0.88950057724E+00  0.88000000000E+00 0. -1.
        -11    1    4    4    0    0 -0.46242630380E-01 -0.33528454233E-01  0.28180343944E-01  0.63694042214E-01  0.51100000000E-03 0. -1.
         11    1    4    4    0    0 -0.61518465407E-01 -0.43848134587E-01 -0.14727679221E-01  0.76969774256E-01  0.51100000000E-03 0.  1.
</event>
<event>
 8    1  0.2877139E+004  0.1043930E+01  0.7957747E-01            NaN
         13   -1    0    0    0    0  0.00000000000E+00  0.00000000000E+00  0.74505805969E-08  0.10566000000E+00  0.10566000000E+00 0.  1.
     999900   -1    0    0    0    0 -0.00000000000E+00 -0.00000000000E+00 -0.74505805969E-08  0.93827000000E+00  0.93827000000E+00 0. -1.
     999902    2    1    2    0    0 -0.49251603660E-02  0.32517683918E-02 -0.12263102311E-01  0.10303206326E+01  0.10302307465E+01 0.  0.
     999903    2    3    3    0    0 -0.60414652171E-01  0.65960565736E-01 -0.10061299975E+00  0.14194166993E+00  0.44985947969E-01 0.  0.
         14    1    1    2    0    0  0.49251603660E-02 -0.32517683918E-02  0.12263102311E-01  0.13609367384E-01  0.00000000000E+00 0.  1.
     999901    1    3    3    0    0  0.55489491805E-01 -0.62708797344E-01  0.88349897440E-01  0.88837896269E+00  0.88000000000E+00 0.  1.
        -11    1    4    4    0    0 -0.34115045946E-02  0.21394829452E-01 -0.47413167426E-01  0.52131052716E-01  0.51100000000E-03 0.  1.
         11    1    4    4    0    0 -0.57003147576E-01  0.44565736284E-01 -0.53199832324E-01  0.89810617215E-01  0.51100000000E-03 0. -1.
</event>
<event>
 8    1  0.2877139E+004  0.1043930E+01  0.7957747E-01            NaN
         13   -1    0    0    0    0  0.00000000000E+00  0.00000000000E+00  0.74505805969E-08  0.10566000000E+00  0.10566000000E+00 0. -1.
     999900   -1    0    0    0    0 -0.00000000000E+00 -0.00000000000E+00 -0.74505805969E-08  0.93827000000E+00  0.93827000000E+00 0. -1.
     999902    2    1    2    0    0 -0.12684469278E-01 -0.83099061951E-03  0.87054734040E-02  0.10285231323E+01  0.10284077314E+01 0.  0.
     999903    2    3    3    0    0 -0.96497106032E-01  0.48224480780E-01 -0.75741717158E-01  0.13916250499E+00  0.44632981721E-01 0.  0.
         14    1    1    2    0    0  0.12684469278E-01  0.83099061951E-03 -0.87054734040E-02  0.15406867737E-01  0.00000000000E+00 0. -1.
     999901    1    3    3    0    0  0.83812636754E-01 -0.49055471400E-01  0.84447190562E-01  0.88936062728E+00  0.88000000000E+00 0.  1.
        -11    1    4    4    0    0 -0.98962077902E-01  0.40390759434E-01 -0.75619910422E-01  0.13093333526E+00  0.51100000000E-03 0. -1.
         11    1    4    4    0    0  0.24649718699E-02  0.78337213462E-02 -0.12180673620E-03  0.82291697230E-02  0.51100000000E-03 0.  1.
</event>
<event>
 8    1  0.2877139E+004  0.1043930E+01  0.7957747E-01            NaN
         13   -1    0    0    0    0  0.00000000000E+00  0.00000000000E+00  0.74505805969E-08  0.10566000000E+00  0.10566000000E+00 0. -1.
     999900   -1    0    0    0    0 -0.00000000000E+00 -0.00000000000E+00 -0.74505805969E-08  0.93827000000E+00  0.93827000000E+00 0. -1.
     999902    2    1    2    0    0 -0.71765172436E-02  0.10947186513E-01 -0.44819557400E-02  0.10300941329E+01  0.10300012094E+01 0.  0.
     999903    2    3    3    0    0  0.72579930064E-01 -0.86380867801E-01  0.62677774253E-01  0.13860982544E+00  0.50543839909E-01 0.  0.
         14    1    1    2    0    0  0.71765172436E-02 -0.10947186513E-01  0.44819557400E-02  0.13835867141E-01  0.00000000000E+00 0. -1.
     999901    1    3    3    0    0 -0.79756447308E-01  0.97328054314E-01 -0.67159729993E-01  0.89148430742E+00  0.88000000000E+00 0. -1.
        -11    1    4    4    0    0  0.30510077545E-01 -0.56404895776E-01  0.10136176419E-01  0.64925960083E-01  0.51100000000E-03 0.  1.
         11    1    4    4    0    0  0.42069852519E-01 -0.29975972025E-01  0.52541597834E-01  0.73683865355E-01  0.51100000000E-03 0. -1.
</event>
<event>
 8    1  0.2877139E+004  0.1043930E+01  0.7957747E-01            NaN
         13   -1    0    0    0    0  0.00000000000E+00  0.00000000000E+00  0.74505805969E-08  0.10566000000E+00  0.10566000000E+00 0.  1.
     999900   -1    0    0    0    0 -0.00000000000E+00 -0.00000000000E+00 -0.74505805969E-08  0.93827000000E+00  0.93827000000E+00 0.  1.
     999902    2    1    2    0    0 -0.59655308433E-03 -0.32109664449E-02  0.13653672418E-01  0.10298911627E+01  0.10297954739E+01 0.  0.
     999903    2    3    3    0    0  0.27863751684E-01 -0.17041047142E-01  0.13031294920E+00  0.14162844995E+00  0.44837118112E-01 0.  0.
         14    1    1    2    0    0  0.59655308433E-03  0.32109664449E-02 -0.13653672418E-01  0.14038837259E-01  0.00000000000E+00 0. -1.
     999901    1    3    3    0    0 -0.28460304768E-01  0.13830080697E-01 -0.11665927678E+00  0.88826271279E+00  0.88000000000E+00 0.  1.
        -11    1    4    4    0    0  0.13617507818E-02 -0.22947335029E-01  0.90915483978E-01  0.93778040597E-01  0.51100000000E-03 0. -1.
         11    1    4    4    0    0  0.26502000902E-01  0.59062878869E-02  0.39397465219E-01  0.47850409351E-01  0.51100000000E-03 0.  1.
</event>
<event>
 8    1  0.2877139E+004  0.1043930E+01  0.7957747E-01            NaN
         13   -1    0    0    0    0  0.00000000000E+00  0.00000000000E+00  0.74505805969E-08  0.10566000000E+00  0.10566000000E+00 0.  1.
     999900   -1    0    0    0    0 -0.00000000000E+00 -0.00000000000E+00 -0.74505805969E-08  0.93827000000E+00  0.93827000000E+00 0. -1.
     999902    2    1    2    0    0  0.73211136227E-03  0.14535833863E-01  0.33379327182E-02  0.10289978787E+01  0.10288895305E+01 0.  0.
     999903    2    3    3    0    0 -0.93023404312E-01  0.41807714781E-01  0.85099980378E-01  0.13983035527E+00  0.43695341034E-01 0.  0.
         14    1    1    2    0    0 -0.73211136227E-03 -0.14535833863E-01 -0.33379327182E-02  0.14932121348E-01  0.00000000000E+00 0.  1.
     999901    1    3    3    0    0  0.93755515674E-01 -0.27271880919E-01 -0.81762047660E-01  0.88916752339E+00  0.88000000000E+00 0.  1.
        -11    1    4    4    0    0 -0.40568357559E-01  0.14076924849E-01  0.63555071924E-01  0.76703713968E-01  0.51100000000E-03 0.  1.
         11    1    4    4    0    0 -0.52455046753E-01  0.27730789932E-01  0.21544908454E-01  0.63126641297E-01  0.51100000000E-03 0. -1.
</event>
<event>
 8    1  0.2877139E+004  0.1043930E+01  0.7957747E-01            NaN
         13   -1    0    0    0    0  0.00000000000E+00  0.00000000000E+00  0.74505805969E-08  0.10566000000E+00  0.10566000000E+00 0. -1.
     999900   -1    0    0    0    0 -0.00000000000E+00 -0.00000000000E+00 -0.74505805969E-08  0.93827000000E+00  0.93827000000E+00 0.  1.
     999902    2    1    2    0    0  0.14658186823E-01  0.69880245676E-02  0.42967601189E-02  0.10271324682E+01  0.10269951071E+01 0.  0.
     999903    2    3    3    0    0  0.13097688564E+00  0.42410908522E-03  0.17457358242E-01  0.13935641193E+00  0.44275566034E-01 0.  0.
         14    1    1    2    0    0 -0.14658186823E-01 -0.69880245676E-02 -0.42967601189E-02  0.16797531837E-01  0.00000000000E+00 0. -1.
     999901    1    3    3    0    0 -0.11631869882E+00  0.65639154824E-02 -0.13160598123E-01  0.88777605624E+00  0.88000000000E+00 0. -1.
        -11    1    4    4    0    0  0.42317236870E-01  0.61364766673E-02 -0.14170681944E-01  0.45049686236E-01  0.51100000000E-03 0.  1.
         11    1    4    4    0    0  0.88659648772E-01 -0.57123675821E-02  0.31628040186E-01  0.94306725692E-01  0.51100000000E-03 0. -1.
</event>
<event>
 8    1  0.2877139E+004  0.1043930E+01  0.7957747E-01            NaN
         13   -1    0    0    0    0  0.00000000000E+00  0.00000000000E+00  0.74505805969E-08  0.10566000000E+00  0.10566000000E+00 0. -1.
     999900   -1    0    0    0    0 -0.00000000000E+00 -0.00000000000E+00 -0.74505805969E-08  0.93827000000E+00  0.93827000000E+00 0.  1.
     999902    2    1    2    0    0 -0.10699704545E-01  0.46360702739E-02 -0.69473326986E-02  0.10303564133E+01  0.10302670023E+01 0.  0.
     999903    2    3    3    0    0 -0.77572872019E-01  0.10473525006E+00 -0.34096597363E-01  0.14174572861E+00  0.44070971744E-01 0.  0.
         14    1    1    2    0    0  0.10699704545E-01 -0.46360702739E-02  0.69473326986E-02  0.13573586724E-01  0.00000000000E+00 0.  1.
     999901    1    3    3    0    0  0.66873167475E-01 -0.10009917979E+00  0.27149264665E-01  0.88861068466E+00  0.88000000000E+00 0. -1.
        -11    1    4    4    0    0 -0.32847260231E-01  0.78987511645E-01 -0.26647959842E-01  0.89601028929E-01  0.51100000000E-03 0.  1.
         11    1    4    4    0    0 -0.44725611789E-01  0.25747738415E-01 -0.74486375215E-02  0.52144699686E-01  0.51100000000E-03 0. -1.
</event>
<event>
 8    1  0.2877139E+004  0.1043930E+01  0.7957747E-01            NaN
         13   -1    0    0    0    0  0.00000000000E+00  0.00000000000E+00  0.74505805969E-08  0.10566000000E+00  0.10566000000E+00 0.  1.
     999900   -1    0    0    0    0 -0.00000000000E+00 -0.00000000000E+00 -0.74505805969E-08  0.93827000000E+00  0.93827000000E+00 0.  1.
     999902    2    1    2    0    0 -0.14130613343E-01  0.24079394894E-02 -0.21380924850E-02  0.10294371105E+01  0.10293350867E+01 0.  0.
     999903    2    3    3    0    0  0.76054623895E-01  0.38402531081E-01  0.99097138019E-01  0.13832681458E+00  0.45332159206E-01 0.  0.
         14    1    1    2    0    0  0.14130613343E-01 -0.24079394894E-02  0.21380924850E-02  0.14492889481E-01  0.00000000000E+00 0.  1.
     999901    1    3    3    0    0 -0.90185237238E-01 -0.35994591592E-01 -0.10123523050E+00  0.89111029594E+00  0.88000000000E+00 0.  1.
        -11    1    4    4    0    0  0.12106609423E-01  0.29083863691E-01  0.26876941837E-01  0.41413430701E-01  0.51100000000E-03 0. -1.
         11    1    4    4    0    0  0.63948014472E-01  0.93186673904E-02  0.72220196181E-01  0.96913383876E-01  0.51100000000E-03 0.  1.
</event>
<event>
 8    1  0.2877139E+004  0.1043930E+01  0.7957747E-01            NaN
         13   -1    0    0    0    0  0.00000000000E+00  0.00000000000E+00  0.74505805969E-08  0.10566000000E+00  0.10566000000E+00 0. -1.
     999900   -1    0    0    0    0 -0.00000000000E+00 -0.00000000000E+00 -0.74505805969E-08  0.93827000000E+00  0.93827000000E+00 0. -1.
     999902    2    1    2    0    0 -0.13110093589E-01  0.41512228966E-02 -0.58756903726E-02  0.10289757049E+01  0.10288670324E+01 0.  0.
     999903    2    3    3    0    0 -0.39929410065E-01  0.12280748966E+00 -0.31618215577E-01  0.14023431224E+00  0.44608446156E-01 0.  0.
         14    1    1    2    0    0  0.13110093589E-01 -0.41512228966E-02  0.58756903726E-02  0.14954295129E-01  0.00000000000E+00 0.  1.
     999901    1    3    3    0    0  0.26819316476E-01 -0.11865626676E+00  0.25742525204E-01  0.88874139263E+00  0.88000000000E+00 0.  1.
        -11    1    4    4    0    0 -0.31973061068E-01  0.70496808182E-01  0.21901695874E-02  0.77441168391E-01  0.51100000000E-03 0. -1.
         11    1    4    4    0    0 -0.79563489969E-02  0.52310681474E-01 -0.33808385164E-01  0.62793143846E-01  0.51100000000E-03 0.  1.
</event>
<event>
 8    1  0.2877139E+004  0.1043930E+01  0.7957747E-01            NaN
         13   -1    0    0    0    0  0.00000000000E+00  0.00000000000E+00  0.74505805969E-08  0.10566000000E+00  0.10566000000E+00 0. -1.
     999900   -1    0    0    0    0 -0.00000000000E+00 -0.00000000000E+00 -0.74505805969E-08  0.93827000000E+00  0.93827000000E+00 0.  1.
     999902    2    1    2    0    0 -0.57099291875E-02  0.10598163852E-01  0.60677961078E-02  0.10304488087E+01  0.10303606189E+01 0.  0.
     999903    2    3    3    0    0  0.13715192875E-01  0.12206379697E+00  0.54652242602E-01  0.14187558655E+00  0.45322592526E-01 0.  0.
         14    1    1    2    0    0  0.57099291875E-02 -0.10598163852E-01 -0.60677961078E-02  0.13481191267E-01  0.00000000000E+00 0. -1.
     999901    1    3    3    0    0 -0.19425122063E-01 -0.11146563311E+00 -0.48584446494E-01  0.88857322218E+00  0.88000000000E+00 0.  1.
        -11    1    4    4    0    0 -0.16274476996E-01  0.46637633443E-01  0.25794071313E-01  0.55727216784E-01  0.51100000000E-03 0. -1.
         11    1    4    4    0    0  0.29989669872E-01  0.75426163524E-01  0.28858171289E-01  0.86148369770E-01  0.51100000000E-03 0.  1.
</event>
<event>
 8    1  0.2877139E+004  0.1043930E+01  0.7957747E-01            NaN
         13   -1    0    0    0    0  0.00000000000E+00  0.00000000000E+00  0.74505805969E-08  0.10566000000E+00  0.10566000000E+00 0.  1.
     999900   -1    0    0    0    0 -0.00000000000E+00 -0.00000000000E+00 -0.74505805969E-08  0.93827000000E+00  0.93827000000E+00 0. -1.
     999902    2    1    2    0    0  0.25903054928E-02  0.31693319404E-02  0.13287473472E-01  0.10300263566E+01  0.10299325143E+01 0.  0.
     999903    2    3    3    0    0  0.82056680084E-01 -0.22930780942E-02 -0.10274948929E+00  0.13884213363E+00  0.44509814291E-01 0.  0.
         14    1    1    2    0    0 -0.25903054928E-02 -0.31693319404E-02 -0.13287473472E-01  0.13903643363E-01  0.00000000000E+00 0. -1.
     999901    1    3    3    0    0 -0.79466374592E-01  0.54624100347E-02  0.11603696276E+00  0.89118422301E+00  0.88000000000E+00 0.  1.
        -11    1    4    4    0    0  0.54079293803E-01 -0.22676698602E-01 -0.61225527223E-01  0.84779885483E-01  0.51100000000E-03 0.  1.
         11    1    4    4    0    0  0.27977386282E-01  0.20383620507E-01 -0.41523962063E-01  0.54062248146E-01  0.51100000000E-03 0. -1.
</event>
<event>
 8    1  0.2877139E+004  0.1043930E+01  0.7957747E-01            NaN
         13   -1    0    0    0    0  0.00000000000E+00  0.00000000000E+00  0.74505805969E-08  0.10566000000E+00  0.10566000000E+00 0. -1.
     999900   -1    0    0    0    0 -0.00000000000E+00 -0.00000000000E+00 -0.74505805969E-08  0.93827000000E+00  0.93827000000E+00 0. -1.
     999902    2    1    2    0    0 -0.78345361602E-02 -0.10373188868E-01 -0.17756810562E-02  0.10308099372E+01  0.10307264383E+01 0.  0.
     999903    2    3    3    0    0 -0.83181974150E-01 -0.53504949246E-01 -0.90717505658E-01  0.14207587501E+00  0.46624757484E-01 0.  0.
         14    1    1    2    0    0  0.78345361602E-02  0.10373188868E-01  0.17756810562E-02  0.13120062780E-01  0.00000000000E+00 0. -1.
     999901    1    3    3    0    0  0.75347437990E-01  0.43131760379E-01  0.88941824602E-01  0.88873406221E+00  0.88000000000E+00 0. -1.
        -11    1    4    4    0    0 -0.65911793684E-01 -0.56539782024E-01 -0.89163604579E-01  0.12446493884E+00  0.51100000000E-03 0.  1.
         11    1    4    4    0    0 -0.17270180465E-01  0.30348327774E-02 -0.15539010787E-02  0.17610936172E-01  0.51100000000E-03 0. -1.
</event>
<event>
 7    1  0.2877139E+004  0.1043930E+01  0.7957747E-01            NaN
         13   -1    0    0    0    0  0.00000000000E+00  0.00000000000E+00  0.74505805969E-08  0.10566000000E+00  0.10566000000E+00 0. -1.
     999900   -1    0    0    0    0 -0.00000000000E+00 -0.00000000000E+00 -0.74505805969E-08  0.93827000000E+00  0.93827000000E+00 0.  1.
     999903    2    1    2    0    0  0.47487302170E-01  0.87688221812E-01 -0.68126702616E-01  0.12846031889E+00  0.43778280089E-01 0.  0.
         14    1    1    2    0    0  0.13173919552E-02 -0.99469627530E-02  0.28047281554E-01  0.29788044450E-01  0.00000000000E+00 0. -1.
     999901    1    1    2    0    0 -0.48804694126E-01 -0.77741259059E-01  0.40079421062E-01  0.88568163666E+00  0.88000000000E+00 0. -1.
        -11    1    3    3    0    0  0.46761378889E-01  0.66943410689E-01 -0.33876528300E-01  0.88407732020E-01  0.51100000000E-03 0. -1.
         11    1    3    3    0    0  0.72592328198E-03  0.20744811123E-01 -0.34250174316E-01  0.40052586868E-01  0.51100000000E-03 0.  1.
</event>
<event>
 8    1  0.2877139E+004  0.1043930E+01  0.7957747E-01            NaN
         13   -1    0    0    0    0  0.00000000000E+00  0.00000000000E+00  0.74505805969E-08  0.10566000000E+00  0.10566000000E+00 0. -1.
     999900   -1    0    0    0    0 -0.00000000000E+00 -0.00000000000E+00 -0.74505805969E-08  0.93827000000E+00  0.93827000000E+00 0.  1.
     999902    2    1    2    0    0  0.50223081486E-02  0.96973461549E-02 -0.88847848851E-02  0.10298515944E+01  0.10297553617E+01 0.  0.
     999903    2    3    3    0    0 -0.16133694800E-01 -0.11638109343E+00 -0.60797824315E-01  0.13910005046E+00  0.42983643156E-01 0.  0.
         14    1    1    2    0    0 -0.50223081486E-02 -0.96973461549E-02  0.88847848851E-02  0.14078405593E-01  0.00000000000E+00 0. -1.
     999901    1    3    3    0    0  0.21156002948E-01  0.12607843959E+00  0.51913039430E-01  0.89075154395E+00  0.88000000000E+00 0. -1.
        -11    1    4    4    0    0  0.95263405213E-02 -0.62512017442E-01 -0.44240139142E-01  0.77174830876E-01  0.51100000000E-03 0. -1.
         11    1    4    4    0    0 -0.25660035321E-01 -0.53869075990E-01 -0.16557685173E-01  0.61925219580E-01  0.51100000000E-03 0.  1.
</event>
<event>
 8    1  0.2877139E+004  0.1043930E+01  0.7957747E-01            NaN
         13   -1    0    0    0    0  0.00000000000E+00  0.00000000000E+00  0.74505805969E-08  0.10566000000E+00  0.10566000000E+00 0. -1.
     999900   -1    0    0    0    0 -0.00000000000E+00 -0.00000000000E+00 -0.74505805969E-08  0.93827000000E+00  0.93827000000E+00 0.  1.
     999902    2    1    2    0    0  0.16776825906E-02 -0.10310574675E-01  0.77029620314E-02  0.10309508555E+01  0.10308691518E+01 0.  0.
     999903    2    3    3    0    0  0.12131955651E+00 -0.92552475819E-02  0.56390363852E-01  0.14152083865E+00  0.45212611476E-01 0.  0.
         14    1    1    2    0    0 -0.16776825906E-02  0.10310574675E-01 -0.77029620314E-02  0.12979144543E-01  0.00000000000E+00 0.  1.
     999901    1    3    3    0    0 -0.11964187392E+00 -0.10553270929E-02 -0.48687401820E-01  0.88943001681E+00  0.88000000000E+00 0.  1.
        -11    1    4    4    0    0  0.99345946132E-01  0.40513026042E-02  0.28142809281E-01  0.10333590325E+00  0.51100000000E-03 0.  1.
         11    1    4    4    0    0  0.21973610376E-01 -0.13306550186E-01  0.28247554570E-01  0.38184935394E-01  0.51100000000E-03 0. -1.
</event>
<event>
 8    1  0.2877139E+004  0.1043930E+01  0.7957747E-01            NaN
         13   -1    0    0    0    0  0.00000000000E+00  0.00000000000E+00  0.74505805969E-08  0.10566000000E+00  0.10566000000E+00 0.  1.
     999900   -1    0    0    0    0 -0.00000000000E+00 -0.00000000000E+00 -0.74505805969E-08  0.93827000000E+00  0.93827000000E+00 0.  1.
     999902    2    1    2    0    0  0.96757936172E-02  0.58394260562E-02 -0.74558333250E-02  0.10303908224E+01  0.10303018672E+01 0.  0.
     999903    2    3    3    0    0  0.12134709017E+00 -0.89008314948E-02 -0.55829629660E-01  0.14189333912E+00  0.47036486322E-01 0.  0.
         14    1    1    2    0    0 -0.96757936172E-02 -0.58394260562E-02  0.74558333250E-02  0.13539177573E-01  0.00000000000E+00 0.  1.
     999901    1    3    3    0    0 -0.11167129655E+00  0.14740257551E-01  0.48373796335E-01  0.88849748330E+00  0.88000000000E+00 0.  1.
        -11    1    4    4    0    0  0.10131795951E+00  0.10975429848E-01 -0.39585222701E-01  0.10932995910E+00  0.51100000000E-03 0.  1.
         11    1    4    4    0    0  0.20029130657E-01 -0.19876261343E-01 -0.16244406959E-01  0.32563380020E-01  0.51100000000E-03 0. -1.
</event>
<event>
 8    1  0.2877139E+004  0.1043930E+01  0.7957747E-01            NaN
         13   -1    0    0    0    0  0.00000000000E+00  0.00000000000E+00  0.74505805969E-08  0.10566000000E+00  0.10566000000E+00 0. -1.
     999900   -1    0    0    0    0 -0.00000000000E+00 -0.00000000000E+00 -0.74505805969E-08  0.93827000000E+00  0.93827000000E+00 0. -1.
     999902    2    1    2    0    0  0.63738146670E-02  0.10698286918E-01  0.57097639808E-02  0.10302303554E+01  0.10301392649E+01 0.  0.
     999903    2    3    3    0    0 -0.36049594874E-01 -0.12167088933E+00  0.33810704911E-01  0.13887688606E+00  0.45169094660E-01 0.  0.
         14    1    1    2    0    0 -0.63738146670E-02 -0.10698286918E-01 -0.57097639808E-02  0.13699644561E-01  0.00000000000E+00 0. -1.
     999901    1    3    3    0    0  0.42423409541E-01  0.13236917625E+00 -0.28100940930E-01  0.89135346938E+00  0.88000000000E+00 0. -1.
        -11    1    4    4    0    0 -0.32921691826E-01 -0.92559974702E-01  0.58929384700E-02  0.98418364924E-01  0.51100000000E-03 0. -1.
         11    1    4    4    0    0 -0.31279030479E-02 -0.29110914632E-01  0.27917766441E-01  0.40458521132E-01  0.51100000000E-03 0.  1.
</event>
<event>
 8    1  0.2877139E+004  0.1043930E+01  0.7957747E-01            NaN
         13   -1    0    0    0    0  0.00000000000E+00  0.00000000000E+00  0.74505805969E-08  0.10566000000E+00  0.10566000000E+00 0. -1.
     999900   -1    0    0    0    0 -0.00000000000E+00 -0.00000000000E+00 -0.74505805969E-08  0.93827000000E+00  0.93827000000E+00 0.  1.
     999902    2    1    2    0    0 -0.46053149707E-04 -0.13978082504E-01  0.11992111938E-02  0.10299004947E+01  0.10298049339E+01 0.  0.
     999903    2    3    3    0    0 -0.11027318599E+00 -0.33432948490E-02  0.72773761575E-01  0.14007689658E+00  0.46412965985E-01 0.  0.
         14    1    1    2    0    0  0.46053149707E-04  0.13978082504E-01 -0.11992111938E-02  0.14029505296E-01  0.00000000000E+00 0. -1.
     999901    1    3    3    0    0  0.11022713284E+00 -0.10634787655E-01 -0.71574550381E-01  0.88982359813E+00  0.88000000000E+00 0.  1.
        -11    1    4    4    0    0 -0.82447868483E-01  0.10075864722E-01  0.32216239861E-01  0.89091645506E-01  0.51100000000E-03 0.  1.
         11    1    4    4    0    0 -0.27825317508E-01 -0.13419159571E-01  0.40557521714E-01  0.50985251070E-01  0.51100000000E-03 0. -1.
</event>
<event>
 8    1  0.2877139E+004  0.1043930E+01  0.7957747E-01            NaN
         13   -1    0    0    0    0  0.00000000000E+00  0.00000000000E+00  0.74505805969E-08  0.10566000000E+00  0.10566000000E+00 0.  1.
     999900   -1    0    0    0    0 -0.00000000000E+00 -0.00000000000E+00 -0.74505805969E-08  0.93827000000E+00  0.93827000000E+00 0.  1.
     999902    2    1    2    0    0 -0.84654881494E-02 -0.88386948098E-02 -0.74755270754E-02  0.10295887825E+01  0.10294888977E+01 0.  0.
     999903    2    3    3    0    0  0.91813050635E-01  0.58761236634E-02  0.91726718114E-01  0.13823397281E+00  0.47230025703E-01 0.  0.
         14    1    1    2    0    0  0.84654881494E-02  0.88386948098E-02  0.74755270754E-02  0.14341217543E-01  0.00000000000E+00 0.  1.
     999901    1    3    3    0    0 -0.10027853878E+00 -0.14714818473E-01 -0.99202245189E-01  0.89135480964E+00  0.88000000000E+00 0.  1.
        -11    1    4    4    0    0  0.12547988903E-01  0.68413758429E-02  0.42687265699E-01  0.45019109529E-01  0.51100000000E-03 0.  1.
         11    1    4    4    0    0  0.79265061732E-01 -0.96525217951E-03  0.49039452415E-01  0.93214863285E-01  0.51100000000E-03 0. -1.
</event>
<event>
 8    1  0.2877139E+004  0.1043930E+01  0.7957747E-01            NaN
         13   -1    0    0    0    0  0.00000000000E+00  0.00000000000E+00  0.74505805969E-08  0.10566000000E+00  0.10566000000E+00 0.  1.
     999900   -1    0    0    0    0 -0.00000000000E+00 -0.00000000000E+00 -0.74505805969E-08  0.93827000000E+00  0.93827000000E+00 0.  1.
     999902    2    1    2    0    0  0.12058596583E-01 -0.24432873913E-02 -0.81065034434E-02  0.10291958627E+01  0.10290903891E+01 0.  0.
     999903    2    3    3    0    0 -0.83318811059E-01  0.37041143865E-01 -0.94637205071E-01  0.13894677813E+00  0.45121346983E-01 0.  0.
         14    1    1    2    0    0 -0.12058596583E-01  0.24432873913E-02  0.81065034434E-02  0.14734137331E-01  0.00000000000E+00 0.  1.
     999901    1    3    3    0    0  0.95377407642E-01 -0.39484431257E-01  0.86530701627E-01  0.89024908454E+00  0.88000000000E+00 0. -1.
        -11    1    4    4    0    0 -0.64791410032E-01  0.53407690118E-02 -0.60727296241E-01  0.88963567023E-01  0.51100000000E-03 0.  1.
         11    1    4    4    0    0 -0.18527401027E-01  0.31700374853E-01 -0.33909908829E-01  0.49983211106E-01  0.51100000000E-03 0. -1.
</event>
<event>
 8    1  0.2877139E+004  0.1043930E+01  0.7957747E-01            NaN
         13   -1    0    0    0    0  0.00000000000E+00  0.00000000000E+00  0.74505805969E-08  0.10566000000E+00  0.10566000000E+00 0. -1.
     999900   -1    0    0    0    0 -0.00000000000E+00 -0.00000000000E+00 -0.74505805969E-08  0.93827000000E+00  0.93827000000E+00 0.  1.
     999902    2    1    2    0    0  0.79962615075E-05 -0.62943663740E-02 -0.12176899041E-01  0.10302224845E+01  0.10301312885E+01 0.  0.
     999903    2    3    3    0    0 -0.66325030092E-01 -0.93232332423E-01 -0.70772171601E-01  0.14152023607E+00  0.43908991323E-01 0.  0.
         14    1    1    2    0    0 -0.79962615075E-05  0.62943663740E-02  0.12176899041E-01  0.13707515539E-01  0.00000000000E+00 0. -1.
     999901    1    3    3    0    0  0.66333026354E-01  0.86937966049E-01  0.58595272559E-01  0.88870224839E+00  0.88000000000E+00 0.  1.
        -11    1    4    4    0    0 -0.22543036643E-01 -0.16931283518E-01  0.65113347157E-03  0.28205353365E-01  0.51100000000E-03 0.  1.
         11    1    4    4    0    0 -0.43781993449E-01 -0.76301048905E-01 -0.71423305072E-01  0.11331488271E+00  0.51100000000E-03 0. -1.
</event>
<event>
 8    1  0.2877139E+004  0.1043930E+01  0.7957747E-01            NaN
         13   -1    0    0    0    0  0.00000000000E+00  0.00000000000E+00  0.74505805969E-08  0.10566000000E+00  0.10566000000E+00 0. -1.
     999900   -1    0    0    0    0 -0.00000000000E+00 -0.00000000000E+00 -0.74505805969E-08  0.93827000000E+00  0.93827000000E+00 0. -1.
     999902    2    1    2    0    0  0.46881464836E-03  0.11551386399E-01  0.15082742624E-02  0.10322711319E+01  0.10322052899E+01 0.  0.
     999903    2    3    3    0    0  0.28165446515E-01 -0.11475122229E+00  0.61599421155E-01  0.14079460480E+00  0.45469733448E-01 0.  0.
         14    1    1    2    0    0 -0.46881464836E-03 -0.11551386399E-01 -0.15082742624E-02  0.11658868134E-01  0.00000000000E+00 0. -1.
     999901    1    3    3    0    0 -0.27696631866E-01  0.12630260869E+00 -0.60091146892E-01  0.89147652707E+00  0.88000000000E+00 0. -1.
        -11    1    4    4    0    0  0.22645825461E-01 -0.11716696700E+00  0.53740582813E-01  0.13087873367E+00  0.51100000000E-03 0. -1.
         11    1    4    4    0    0  0.55196210541E-02  0.24157447087E-02  0.78588383422E-02  0.99158711250E-02  0.51100000000E-03 0.  1.
</event>
<event>
 8    1  0.2877139E+004  0.1043930E+01  0.7957747E-01            NaN
         13   -1    0    0    0    0  0.00000000000E+00  0.00000000000E+00  0.74505805969E-08  0.10566000000E+00  0.10566000000E+00 0. -1.
     999900   -1    0    0    0    0 -0.00000000000E+00 -0.00000000000E+00 -0.74505805969E-08  0.93827000000E+00  0.93827000000E+00 0. -1.
     999902    2    1    2    0    0  0.12416051406E-01 -0.55548150628E-02  0.27714047889E-02  0.10300485380E+01  0.10299549969E+01 0.  0.
     999903    2    3    3    0    0  0.27753155856E-01  0.52947681557E-02  0.13010579178E+00  0.14068529031E+00  0.45459450337E-01 0.  0.
         14    1    1    2    0    0 -0.12416051406E-01  0.55548150628E-02 -0.27714047889E-02  0.13881462005E-01  0.00000000000E+00 0. -1.
     999901    1    3    3    0    0 -0.15337104450E-01 -0.10849583218E-01 -0.12733438699E+00  0.88936324769E+00  0.88000000000E+00 0. -1.
        -11    1    4    4    0    0  0.16682375516E-01  0.14433343517E-01  0.20424350174E-01  0.30067228987E-01  0.51100000000E-03 0. -1.
         11    1    4    4    0    0  0.11070780340E-01 -0.91385753611E-02  0.10968144160E+00  0.11061806132E+00  0.51100000000E-03 0.  1.
</event>
<event>
 8    1  0.2877139E+004  0.1043930E+01  0.7957747E-01            NaN
         13   -1    0    0    0    0  0.00000000000E+00  0.00000000000E+00  0.74505805969E-08  0.10566000000E+00  0.10566000000E+00 0. -1.
     999900   -1    0    0    0    0 -0.00000000000E+00 -0.00000000000E+00 -0.74505805969E-08  0.93827000000E+00  0.93827000000E+00 0.  1.
     999902    2    1    2    0    0 -0.16827271202E-02 -0.13180403556E-01 -0.44536757712E-02  0.10299160842E+01  0.10298207371E+01 0.  0.
     999903    2    3    3    0    0 -0.91819699321E-01  0.66643536499E-01  0.66969499754E-01  0.13885053937E+00  0.43844500744E-01 0.  0.
         14    1    1    2    0    0  0.16827271202E-02  0.13180403556E-01  0.44536757712E-02  0.14013915810E-01  0.00000000000E+00 0. -1.
     999901    1    3    3    0    0  0.90136972201E-01 -0.79823940054E-01 -0.71423175525E-01  0.89106554482E+00  0.88000000000E+00 0. -1.
        -11    1    4    4    0    0 -0.87559625058E-01  0.58237102153E-01  0.43955257407E-01  0.11397619831E+00  0.51100000000E-03 0. -1.
         11    1    4    4    0    0 -0.42600742629E-02  0.84064343453E-02  0.23014242347E-01  0.24874341055E-01  0.51100000000E-03 0.  1.
</event>
<event>
 8    1  0.2877139E+004  0.1043930E+01  0.7957747E-01            NaN
         13   -1    0    0    0    0  0.00000000000E+00  0.00000000000E+00  0.74505805969E-08  0.10566000000E+00  0.10566000000E+00 0.  1.
     999900   -1    0    0    0    0 -0.00000000000E+00 -0.00000000000E+00 -0.74505805969E-08  0.93827000000E+00  0.93827000000E+00 0. -1.
     999902    2    1    2    0    0 -0.62351138521E-02 -0.11919203577E-01 -0.55805105418E-02  0.10293668219E+01  0.10292637990E+01 0.  0.
     999903    2    3    3    0    0  0.58063650442E-01 -0.20451698498E-01  0.11599016628E+00  0.13864432638E+00  0.44484503913E-01 0.  0.
         14    1    1    2    0    0  0.62351138521E-02  0.11919203577E-01  0.55805105418E-02  0.14563178106E-01  0.00000000000E+00 0.  1.
     999901    1    3    3    0    0 -0.64298764294E-01  0.85324949210E-02 -0.12157067682E+00  0.89072249552E+00  0.88000000000E+00 0. -1.
        -11    1    4    4    0    0  0.57784800958E-01 -0.17160726175E-01  0.69360818974E-01  0.91895364814E-01  0.51100000000E-03 0.  1.
         11    1    4    4    0    0  0.27884948376E-03 -0.32909723223E-02  0.46629347306E-01  0.46748961561E-01  0.51100000000E-03 0. -1.
</event>
<event>
 8    1  0.2877139E+004  0.1043930E+01  0.7957747E-01            NaN
         13   -1    0    0    0    0  0.00000000000E+00  0.00000000000E+00  0.74505805969E-08  0.10566000000E+00  0.10566000000E+00 0.  1.
     999900   -1    0    0    0    0 -0.00000000000E+00 -0.00000000000E+00 -0.74505805969E-08  0.93827000000E+00  0.93827000000E+00 0. -1.
     999902    2    1    2    0    0 -0.96379307706E-02 -0.54637007813E-02  0.10379655717E-01  0.10287484655E+01  0.10286364403E+01 0.  0.
     999903    2    3    3    0    0  0.87858551184E-02  0.10106053015E+00  0.78052767201E-01  0.13955416862E+00  0.55612134514E-01 0.  0.
         14    1    1    2    0    0  0.96379307706E-02  0.54637007813E-02 -0.10379655717E-01  0.15181534460E-01  0.00000000000E+00 0. -1.
     999901    1    3    3    0    0 -0.18423785889E-01 -0.10652423094E+00 -0.67673111484E-01  0.88919429692E+00  0.88000000000E+00 0. -1.
        -11    1    4    4    0    0  0.30967834288E-01  0.50666100115E-01  0.30286431329E-01  0.66660254313E-01  0.51100000000E-03 0.  1.
         11    1    4    4    0    0 -0.22181979170E-01  0.50394430039E-01  0.47766335872E-01  0.72893914303E-01  0.51100000000E-03 0. -1.
</event>
<event>
 8    1  0.2877139E+004  0.1043930E+01  0.7957747E-01            NaN
         13   -1    0    0    0    0  0.00000000000E+00  0.00000000000E+00  0.74505805969E-08  0.10566000000E+00  0.10566000000E+00 0.  1.
     999900   -1    0    0    0    0 -0.00000000000E+00 -0.00000000000E+00 -0.74505805969E-08  0.93827000000E+00  0.93827000000E+00 0.  1.
     999902    2    1    2    0    0 -0.58056300226E-02  0.74075460852E-02 -0.63178924300E-02  0.10325945316E+01  0.10325323113E+01 0.  0.
     999903    2    3    3    0    0 -0.80505972523E-01  0.98250877012E-01  0.47284624238E-01  0.14315320036E+00  0.46071212673E-01 0.  0.
         14    1    1    2    0    0  0.58056300226E-02 -0.74075460852E-02  0.63178924300E-02  0.11335468394E-01  0.00000000000E+00 0.  1.
     999901    1    3    3    0    0  0.74700342500E-01 -0.90843330927E-01 -0.53602516668E-01  0.88944133125E+00  0.88000000000E+00 0.  1.
        -11    1    4    4    0    0 -0.13935939899E-01  0.49835810703E-01  0.27022241294E-01  0.58380485566E-01  0.51100000000E-03 0.  1.
         11    1    4    4    0    0 -0.66570032624E-01  0.48415066308E-01  0.20262382943E-01  0.84772714789E-01  0.51100000000E-03 0. -1.
</event>
<event>
 8    1  0.2877139E+004  0.1043930E+01  0.7957747E-01            NaN
         13   -1    0    0    0    0  0.00000000000E+00  0.00000000000E+00  0.74505805969E-08  0.10566000000E+00  0.10566000000E+00 0.  1.
     999900   -1    0    0    0    0 -0.00000000000E+00 -0.00000000000E+00 -0.74505805969E-08  0.93827000000E+00  0.93827000000E+00 0.  1.
     999902    2    1    2    0    0 -0.81313131894E-02  0.11043111372E-01  0.75679115920E-02  0.10282666080E+01  0.10281473023E+01 0.  0.
     999903    2    3    3    0    0 -0.78628047244E-01  0.97584433409E-01  0.44962056235E-01  0.14042793348E+00  0.44646685683E-01 0.  0.
         14    1    1    2    0    0  0.81313131894E-02 -0.11043111372E-01 -0.75679115920E-02  0.15663391996E-01  0.00000000000E+00 0.  1.
     999901    1    3    3    0    0  0.70496734054E-01 -0.86541322037E-01 -0.37394144643E-01  0.88783867453E+00  0.88000000000E+00 0.  1.
        -11    1    4    4    0    0 -0.60422681395E-01  0.94953915331E-01  0.29394540760E-01  0.11632474634E+00  0.51100000000E-03 0. -1.
         11    1    4    4    0    0 -0.18205365849E-01  0.26305180779E-02  0.15567515475E-01  0.24103187136E-01  0.51100000000E-03 0.  1.
</event>
<event>
 8    1  0.2877139E+004  0.1043930E+01  0.7957747E-01            NaN
         13   -1    0    0    0    0  0.00000000000E+00  0.00000000000E+00  0.74505805969E-08  0.10566000000E+00  0.10566000000E+00 0.  1.
     999900   -1    0    0    0    0 -0.00000000000E+00 -0.00000000000E+00 -0.74505805969E-08  0.93827000000E+00  0.93827000000E+00 0.  1.
     999902    2    1    2    0    0 -0.59058066805E-02 -0.71201032326E-02 -0.10518155558E-01  0.10299226441E+01  0.10298273869E+01 0.  0.
     999903    2    3    3    0    0  0.12754229884E+00  0.22826631768E-01  0.18816748490E-01  0.13887509185E+00  0.46304729782E-01 0.  0.
         14    1    1    2    0    0  0.59058066805E-02  0.71201032326E-02  0.10518155558E-01  0.14007355887E-01  0.00000000000E+00 0.  1.
     999901    1    3    3    0    0 -0.13344810552E+00 -0.29946735001E-01 -0.29334904048E-01  0.89104755227E+00  0.88000000000E+00 0.  1.
        -11    1    4    4    0    0  0.38536389017E-01  0.17777149041E-02 -0.14953627963E-01  0.41377356839E-01  0.51100000000E-03 0. -1.
         11    1    4    4    0    0  0.89005909825E-01  0.21048916864E-01  0.33770376454E-01  0.97497735008E-01  0.51100000000E-03 0.  1.
</event>
<event>
 8    1  0.2877139E+004  0.1043930E+01  0.7957747E-01            NaN
         13   -1    0    0    0    0  0.00000000000E+00  0.00000000000E+00  0.74505805969E-08  0.10566000000E+00  0.10566000000E+00 0. -1.
     999900   -1    0    0    0    0 -0.00000000000E+00 -0.00000000000E+00 -0.74505805969E-08  0.93827000000E+00  0.93827000000E+00 0. -1.
     999902    2    1    2    0    0 -0.12540471646E-01 -0.11696087709E-02 -0.71888346462E-02  0.10294279051E+01  0.10293257507E+01 0.  0.
     999903    2    3    3    0    0  0.12132360419E+00  0.40906041801E-01 -0.25074198466E-01  0.13813118825E+00  0.45373875179E-01 0.  0.
         14    1    1    2    0    0  0.12540471646E-01  0.11696087709E-02  0.71888346462E-02  0.14502094930E-01  0.00000000000E+00 0.  1.
     999901    1    3    3    0    0 -0.13386407584E+00 -0.42075650572E-01  0.17885363819E-01  0.89129671682E+00  0.88000000000E+00 0.  1.
        -11    1    4    4    0    0  0.73412505938E-01  0.33505808633E-01  0.53796879772E-02  0.80877916664E-01  0.51100000000E-03 0. -1.
         11    1    4    4    0    0  0.47911098256E-01  0.74002331687E-02 -0.30453886443E-01  0.57253271588E-01  0.51100000000E-03 0.  1.
</event>
<event>
 8    1  0.2877139E+004  0.1043930E+01  0.7957747E-01            NaN
         13   -1    0    0    0    0  0.00000000000E+00  0.00000000000E+00  0.74505805969E-08  0.10566000000E+00  0.10566000000E+00 0.  1.
     999900   -1    0    0    0    0 -0.00000000000E+00 -0.00000000000E+00 -0.74505805969E-08  0.93827000000E+00  0.93827000000E+00 0.  1.
     999902    2    1    2    0    0  0.32585639757E-02  0.12267667969E-01  0.33740313702E-02  0.10307961504E+01  0.10307124748E+01 0.  0.
     999903    2    3    3    0    0  0.79245263665E-01  0.98753235452E-01 -0.45504108638E-01  0.14195262963E+00  0.45253859845E-01 0.  0.
         14    1    1    2    0    0 -0.32585639757E-02 -0.12267667969E-01 -0.33740313702E-02  0.13133849560E-01  0.00000000000E+00 0. -1.
     999901    1    3    3    0    0 -0.75986699689E-01 -0.86485567483E-01  0.48878140008E-01  0.88884352081E+00  0.88000000000E+00 0. -1.
        -11    1    4    4    0    0  0.17174072005E-01  0.19270335260E-01 -0.30553571230E-01  0.40000955066E-01  0.51100000000E-03 0. -1.
         11    1    4    4    0    0  0.62071191660E-01  0.79482900192E-01 -0.14950537408E-01  0.10195167457E+00  0.51100000000E-03 0.  1.
</event>
<event>
 8    1  0.2877139E+004  0.1043930E+01  0.7957747E-01            NaN
         13   -1    0    0    0    0  0.00000000000E+00  0.00000000000E+00  0.74505805969E-08  0.10566000000E+00  0.10566000000E+00 0.  1.
     999900   -1    0    0    0    0 -0.00000000000E+00 -0.00000000000E+00 -0.74505805969E-08  0.93827000000E+00  0.93827000000E+00 0. -1.
     999902    2    1    2    0    0  0.53160807664E-02  0.51684863561E-02 -0.11818458593E-01  0.10299783001E+01  0.10298838035E+01 0.  0.
     999903    2    3    3    0    0 -0.89548757738E-01  0.13126422843E-02  0.95638902482E-01  0.13837228311E+00  0.44490291347E-01 0.  0.
         14    1    1    2    0    0 -0.53160807664E-02 -0.51684863561E-02  0.11818458593E-01  0.13951699877E-01  0.00000000000E+00 0.  1.
     999901    1    3    3    0    0  0.94864838504E-01  0.38558440718E-02 -0.10745736107E+00  0.89160601701E+00  0.88000000000E+00 0. -1.
        -11    1    4    4    0    0 -0.35999743490E-01 -0.81269746961E-02  0.68007091894E-01  0.77377354038E-01  0.51100000000E-03 0.  1.
         11    1    4    4    0    0 -0.53549014247E-01  0.94396169804E-02  0.27631810587E-01  0.60994929076E-01  0.51100000000E-03 0. -1.
</event>
<event>
 8    1  0.2877139E+004  0.1043930E+01  0.7957747E-01            NaN
         13   -1    0    0    0    0  0.00000000000E+00  0.00000000000E+00  0.74505805969E-08  0.10566000000E+00  0.10566000000E+00 0.  1.
     999900   -1    0    0    0    0 -0.00000000000E+00 -0.00000000000E+00 -0.74505805969E-08  0.93827000000E+00  0.93827000000E+00 0.  1.
     999902    2    1    2    0    0 -0.69712352874E-02  0.12225853741E-01  0.10697719694E-02  0.10298156799E+01  0.10297189522E+01 0.  0.
     999903    2    3    3    0    0  0.39457312899E-01 -0.22456637111E-01 -0.12352977202E+00  0.13915102263E+00  0.45190955220E-01 0.  0.
         14    1    1    2    0    0  0.69712352874E-02 -0.12225853741E-01 -0.10697719694E-02  0.14114320146E-01  0.00000000000E+00 0.  1.
     999901    1    3    3    0    0 -0.46428548186E-01  0.34682490852E-01  0.12459954399E+00  0.89066465722E+00  0.88000000000E+00 0. -1.
        -11    1    4    4    0    0  0.11732442503E-01  0.11609746239E-01 -0.57663705398E-01  0.59981667667E-01  0.51100000000E-03 0. -1.
         11    1    4    4    0    0  0.27724870395E-01 -0.34066383350E-01 -0.65866066620E-01  0.79169354967E-01  0.51100000000E-03 0.  1.
</event>
<event>
 8    1  0.2877139E+004  0.1043930E+01  0.7957747E-01            NaN
         13   -1    0    0    0    0  0.00000000000E+00  0.00000000000E+00  0.74505805969E-08  0.10566000000E+00  0.10566000000E+00 0.  1.
     999900   -1    0    0    0    0 -0.00000000000E+00 -0.00000000000E+00 -0.74505805969E-08  0.93827000000E+00  0.93827000000E+00 0.  1.
     999902    2    1    2    0    0 -0.43296329373E-02  0.11610219798E-01 -0.85340280474E-02  0.10288843176E+01  0.10287743029E+01 0.  0.
     999903    2    3    3    0    0 -0.20338447681E-01  0.27001289047E-03 -0.13108798536E+00  0.14017494162E+00  0.45290495593E-01 0.  0.
         14    1    1    2    0    0  0.43296329373E-02 -0.11610219798E-01  0.85340280474E-02  0.15045682432E-01  0.00000000000E+00 0.  1.
     999901    1    3    3    0    0  0.16008814743E-01  0.11340206907E-01  0.12255395732E+00  0.88870937595E+00  0.88000000000E+00 0. -1.
        -11    1    4    4    0    0 -0.19871621128E-02  0.14233340689E-01 -0.10220806332E+00  0.10321475732E+00  0.51100000000E-03 0. -1.
         11    1    4    4    0    0 -0.18351285568E-01 -0.13963327799E-01 -0.28879922042E-01  0.36960184298E-01  0.51100000000E-03 0.  1.
</event>
<event>
 8    1  0.2877139E+004  0.1043930E+01  0.7957747E-01            NaN
         13   -1    0    0    0    0  0.00000000000E+00  0.00000000000E+00  0.74505805969E-08  0.10566000000E+00  0.10566000000E+00 0. -1.
     999900   -1    0    0    0    0 -0.00000000000E+00 -0.00000000000E+00 -0.74505805969E-08  0.93827000000E+00  0.93827000000E+00 0.  1.
     999902    2    1    2    0    0  0.73407202953E-02  0.46359565719E-02  0.93569936656E-02  0.10311655338E+01  0.10310865271E+01 0.  0.
     999903    2    3    3    0    0  0.13404662406E+00 -0.10238809744E-01  0.22797570805E-03  0.14191923285E+00  0.45471815796E-01 0.  0.
         14    1    1    2    0    0 -0.73407202953E-02 -0.46359565719E-02 -0.93569936656E-02  0.12764466234E-01  0.00000000000E+00 0.  1.
     999901    1    3    3    0    0 -0.12670590377E+00  0.14874766316E-01  0.91290179576E-02  0.88924630092E+00  0.88000000000E+00 0.  1.
        -11    1    4    4    0    0  0.40048324645E-01 -0.16771933761E-01  0.16206969729E-01  0.46347524828E-01  0.51100000000E-03 0. -1.
         11    1    4    4    0    0  0.93998299420E-01  0.65331240174E-02 -0.15978994021E-01  0.95571708022E-01  0.51100000000E-03 0.  1.
</event>
<event>
 8    1  0.2877139E+004  0.1043930E+01  0.7957747E-01            NaN
         13   -1    0    0    0    0  0.00000000000E+00  0.00000000000E+00  0.74505805969E-08  0.10566000000E+00  0.10566000000E+00 0.  1.
     999900   -1    0    0    0    0 -0.00000000000E+00 -0.00000000000E+00 -0.74505805969E-08  0.93827000000E+00  0.93827000000E+00 0.  1.
     999902    2    1    2    0    0 -0.14101219070E-02 -0.13845480800E-01 -0.42752421081E-02  0.10293710345E+01  0.10292680716E+01 0.  0.
     999903    2    3    3    0    0  0.99047159024E-01 -0.86727952222E-01 -0.49371795539E-02  0.14066188176E+00  0.49288049586E-01 0.  0.
         14    1    1    2    0    0  0.14101219070E-02  0.13845480800E-01  0.42752421081E-02  0.14558965536E-01  0.00000000000E+00 0.  1.
     999901    1    3    3    0    0 -0.10045728093E+00  0.72882471421E-01  0.66193744573E-03  0.88870915270E+00  0.88000000000E+00 0. -1.
        -11    1    4    4    0    0  0.81092140792E-01 -0.61503545796E-01  0.16351419208E-01  0.10308371101E+00  0.51100000000E-03 0.  1.
         11    1    4    4    0    0  0.17955018232E-01 -0.25224406425E-01 -0.21288598762E-01  0.37578170757E-01  0.51100000000E-03 0. -1.
</event>
<event>
 8    1  0.2877139E+004  0.1043930E+01  0.7957747E-01            NaN
         13   -1    0    0    0    0  0.00000000000E+00  0.00000000000E+00  0.74505805969E-08  0.10566000000E+00  0.10566000000E+00 0. -1.
     999900   -1    0    0    0    0 -0.00000000000E+00 -0.00000000000E+00 -0.74505805969E-08  0.93827000000E+00  0.93827000000E+00 0. -1.
     999902    2    1    2    0    0 -0.32258809510E-02  0.59565631013E-02 -0.12048620845E-01  0.10301076914E+01  0.10300149511E+01 0.  0.
     999903    2    3    3    0    0  0.67787820286E-01 -0.99376938706E-01  0.51460956181E-01  0.13872025666E+00  0.46088122884E-01 0.  0.
         14    1    1    2    0    0  0.32258809510E-02 -0.59565631013E-02  0.12048620845E-01  0.13822308641E-01  0.00000000000E+00 0. -1.
     999901    1    3    3    0    0 -0.71013701237E-01  0.10533350181E+00 -0.63509577026E-01  0.89138743470E+00  0.88000000000E+00 0. -1.
        -11    1    4    4    0    0  0.41353359011E-01 -0.87741813565E-01  0.26528676354E-01  0.10056220930E+00  0.51100000000E-03 0. -1.
         11    1    4    4    0    0  0.26434461276E-01 -0.11635125141E-01  0.24932279827E-01  0.38158047360E-01  0.51100000000E-03 0.  1.
</event>
<event>
 8    1  0.2877139E+004  0.1043930E+01  0.7957747E-01            NaN
         13   -1    0    0    0    0  0.00000000000E+00  0.00000000000E+00  0.74505805969E-08  0.10566000000E+00  0.10566000000E+00 0. -1.
     999900   -1    0    0    0    0 -0.00000000000E+00 -0.00000000000E+00 -0.74505805969E-08  0.93827000000E+00  0.93827000000E+00 0.  1.
     999902    2    1    2    0    0  0.12530966430E-01 -0.50829784710E-02  0.43752041311E-02  0.10297171818E+01  0.10296190899E+01 0.  0.
     999903    2    3    3    0    0  0.13339685446E+00  0.62206305706E-02 -0.39640257940E-02  0.14134458136E+00  0.46142823438E-01 0.  0.
         14    1    1    2    0    0 -0.12530966430E-01  0.50829784710E-02 -0.43752041311E-02  0.14212818194E-01  0.00000000000E+00 0.  1.
     999901    1    3    3    0    0 -0.12086588803E+00 -0.11303609042E-01  0.83392299251E-02  0.88837260045E+00  0.88000000000E+00 0.  1.
        -11    1    4    4    0    0  0.16198748762E-01  0.17054543334E-01 -0.22362305961E-02  0.23633001461E-01  0.51100000000E-03 0. -1.
         11    1    4    4    0    0  0.11719810570E+00 -0.10833912763E-01 -0.17277951979E-02  0.11771157990E+00  0.51100000000E-03 0.  1.
</event>
<event>
 8    1  0.2877139E+004  0.1043930E+01  0.7957747E-01            NaN
         13   -1    0    0    0    0  0.00000000000E+00  0.00000000000E+00  0.74505805969E-08  0.10566000000E+00  0.10566000000E+00 0. -1.
     999900   -1    0    0    0    0 -0.00000000000E+00 -0.00000000000E+00 -0.74505805969E-08  0.93827000000E+00  0.93827000000E+00 0. -1.
     999902    2    1    2    0    0 -0.89108292621E-02 -0.90236711430E-02  0.61954981987E-02  0.10298156911E+01  0.10297189635E+01 0.  0.
     999903    2    3    3    0    0 -0.11185204379E+00  0.39705046546E-02  0.73222680860E-01  0.14118844329E+00  0.45232410070E-01 0.  0.
         14    1    1    2    0    0  0.89108292621E-02  0.90236711430E-02 -0.61954981987E-02  0.14114308944E-01  0.00000000000E+00 0.  1.
     999901    1    3    3    0    0  0.10294121452E+00 -0.12994175798E-01 -0.67027182661E-01  0.88862724776E+00  0.88000000000E+00 0. -1.
        -11    1    4    4    0    0 -0.14578062882E-01  0.17158883474E-01  0.14912800228E-01  0.27011107551E-01  0.51100000000E-03 0.  1.
         11    1    4    4    0    0 -0.97273980904E-01 -0.13188378820E-01  0.58309880632E-01  0.11417733574E+00  0.51100000000E-03 0. -1.
</event>
<event>
 8    1  0.2877139E+004  0.1043930E+01  0.7957747E-01            NaN
         13   -1    0    0    0    0  0.00000000000E+00  0.00000000000E+00  0.74505805969E-08  0.10566000000E+00  0.10566000000E+00 0. -1.
     999900   -1    0    0    0    0 -0.00000000000E+00 -0.00000000000E+00 -0.74505805969E-08  0.93827000000E+00  0.93827000000E+00 0. -1.
     999902    2    1    2    0    0  0.71527566075E-03 -0.14695527136E-01  0.72807401419E-02  0.10275141749E+01  0.10273830348E+01 0.  0.
     999903    2    3    3    0    0  0.82590293117E-02  0.10212225219E+00  0.78922918211E-01  0.13687625549E+00  0.44823167454E-01 0.  0.
         14    1    1    2    0    0 -0.71527566075E-03  0.14695527136E-01 -0.72807401419E-02  0.16415825111E-01  0.00000000000E+00 0.  1.
     999901    1    3    3    0    0 -0.75437536510E-02 -0.11681777933E+00 -0.71642178069E-01  0.89063791940E+00  0.88000000000E+00 0. -1.
        -11    1    4    4    0    0  0.36556756963E-03  0.65453113271E-01  0.22685785467E-01  0.69275895229E-01  0.51100000000E-03 0. -1.
         11    1    4    4    0    0  0.78934617421E-02  0.36669138923E-01  0.56237132744E-01  0.67600360264E-01  0.51100000000E-03 0.  1.
</event>
<event>
 8    1  0.2877139E+004  0.1043930E+01  0.7957747E-01            NaN
         13   -1    0    0    0    0  0.00000000000E+00  0.00000000000E+00  0.74505805969E-08  0.10566000000E+00  0.10566000000E+00 0.  1.
     999900   -1    0    0    0    0 -0.00000000000E+00 -0.00000000000E+00 -0.74505805969E-08  0.93827000000E+00  0.93827000000E+00 0. -1.
     999902    2    1    2    0    0  0.68767579643E-02  0.23317929236E-02 -0.12737307636E-01  0.10292682790E+01  0.10291638470E+01 0.  0.
     999903    2    3    3    0    0 -0.11870778855E+00  0.16122968770E-01  0.51775250077E-01  0.13790777671E+00  0.44568926064E-01 0.  0.
         14    1    1    2    0    0 -0.68767579643E-02 -0.23317929236E-02  0.12737307636E-01  0.14661721050E-01  0.00000000000E+00 0.  1.
     999901    1    3    3    0    0  0.12558454652E+00 -0.13791175847E-01 -0.64512557713E-01  0.89136050224E+00  0.88000000000E+00 0. -1.
        -11    1    4    4    0    0 -0.55438634072E-03  0.79313054610E-02  0.89071779829E-02  0.11950392929E-01  0.51100000000E-03 0. -1.
         11    1    4    4    0    0 -0.11815340221E+00  0.81916633093E-02  0.42868072095E-01  0.12595738378E+00  0.51100000000E-03 0.  1.
</event>
<event>
 8    1  0.2877139E+004  0.1043930E+01  0.7957747E-01            NaN
         13   -1    0    0    0    0  0.00000000000E+00  0.00000000000E+00  0.74505805969E-08  0.10566000000E+00  0.10566000000E+00 0.  1.
     999900   -1    0    0    0    0 -0.00000000000E+00 -0.00000000000E+00 -0.74505805969E-08  0.93827000000E+00  0.93827000000E+00 0. -1.
     999902    2    1    2    0    0 -0.49383935609E-02 -0.29457783604E-02 -0.68580842861E-02  0.10349802145E+01  0.10349415180E+01 0.  0.
     999903    2    3    3    0    0 -0.11272068722E+00 -0.52381575250E-01  0.59067069910E-01  0.14458308576E+00  0.44334717643E-01 0.  0.
         14    1    1    2    0    0  0.49383935609E-02  0.29457783604E-02  0.68580842861E-02  0.89497855385E-02  0.00000000000E+00 0.  1.
     999901    1    3    3    0    0  0.10778229366E+00  0.49435796889E-01 -0.65925154196E-01  0.89039712870E+00  0.88000000000E+00 0.  1.
        -11    1    4    4    0    0 -0.37507701315E-01 -0.34911342472E-01  0.40106113543E-01  0.65072198024E-01  0.51100000000E-03 0.  1.
         11    1    4    4    0    0 -0.75212985902E-01 -0.17470232777E-01  0.18960956368E-01  0.79510887739E-01  0.51100000000E-03 0. -1.
</event>
<event>
 8    1  0.2877139E+004  0.1043930E+01  0.7957747E-01            NaN
         13   -1    0    0    0    0  0.00000000000E+00  0.00000000000E+00  0.74505805969E-08  0.10566000000E+00  0.10566000000E+00 0.  1.
     999900   -1    0    0    0    0 -0.00000000000E+00 -0.00000000000E+00 -0.74505805969E-08  0.93827000000E+00  0.93827000000E+00 0.  1.
     999902    2    1    2    0    0 -0.26754911089E-02  0.11187126582E-01  0.79383593657E-02  0.10299540348E+01  0.10298592070E+01 0.  0.
     999903    2    3    3    0    0 -0.11200955579E+00  0.55755578744E-01  0.46754679577E-01  0.14122067133E+00  0.45852511376E-01 0.  0.
         14    1    1    2    0    0  0.26754911089E-02 -0.11187126582E-01 -0.79383593657E-02  0.13975965199E-01  0.00000000000E+00 0. -1.
     999901    1    3    3    0    0  0.10933406468E+00 -0.44568452162E-01 -0.38816320211E-01  0.88873336347E+00  0.88000000000E+00 0.  1.
        -11    1    4    4    0    0 -0.56247170667E-02  0.17883876268E-01  0.14712867900E-01  0.23836947693E-01  0.51100000000E-03 0. -1.
         11    1    4    4    0    0 -0.10638483872E+00  0.37871702476E-01  0.32041811677E-01  0.11738372364E+00  0.51100000000E-03 0.  1.
</event>
<event>
 8    1  0.2877139E+004  0.1043930E+01  0.7957747E-01            NaN
         13   -1    0    0    0    0  0.00000000000E+00  0.00000000000E+00  0.74505805969E-08  0.10566000000E+00  0.10566000000E+00 0.  1.
     999900   -1    0    0    0    0 -0.00000000000E+00 -0.00000000000E+00 -0.74505805969E-08  0.93827000000E+00  0.93827000000E+00 0. -1.
     999902    2    1    2    0    0  0.10088959903E-01 -0.84410578036E-02 -0.39829213094E-02  0.10301858292E+01  0.10300941416E+01 0.  0.
     999903    2    3    3    0    0  0.42929355000E-01  0.49100409832E-01 -0.11584302459E+00  0.14063414731E+00  0.45875671965E-01 0.  0.
         14    1    1    2    0    0 -0.10088959903E-01  0.84410578036E-02  0.39829213094E-02  0.13744170798E-01  0.00000000000E+00 0.  1.
     999901    1    3    3    0    0 -0.32840395097E-01 -0.57541467635E-01  0.11186010328E+00  0.88955168189E+00  0.88000000000E+00 0.  1.
        -11    1    4    4    0    0  0.31619485323E-01  0.55905957136E-02 -0.31105991213E-01  0.44708952379E-01  0.51100000000E-03 0.  1.
         11    1    4    4    0    0  0.11309869677E-01  0.43509814118E-01 -0.84737033375E-01  0.95925194933E-01  0.51100000000E-03 0. -1.
</event>
<event>
 8    1  0.2877139E+004  0.1043930E+01  0.7957747E-01            NaN
         13   -1    0    0    0    0  0.00000000000E+00  0.00000000000E+00  0.74505805969E-08  0.10566000000E+00  0.10566000000E+00 0. -1.
     999900   -1    0    0    0    0 -0.00000000000E+00 -0.00000000000E+00 -0.74505805969E-08  0.93827000000E+00  0.93827000000E+00 0.  1.
     999902    2    1    2    0    0  0.68518308530E-02  0.10301213518E-01 -0.73141060712E-02  0.10295578487E+01  0.10294575295E+01 0.  0.
     999903    2    3    3    0    0  0.65693340017E-01 -0.11235397095E+00 -0.12625721027E-01  0.13908896616E+00  0.47405716598E-01 0.  0.
         14    1    1    2    0    0 -0.68518308530E-02 -0.10301213518E-01  0.73141060712E-02  0.14372151322E-01  0.00000000000E+00 0.  1.
     999901    1    3    3    0    0 -0.58841509164E-01  0.12265518447E+00  0.53116149555E-02  0.89046888252E+00  0.88000000000E+00 0.  1.
        -11    1    4    4    0    0  0.55805158603E-01 -0.48791405619E-01 -0.47727039802E-02  0.74282277922E-01  0.51100000000E-03 0. -1.
         11    1    4    4    0    0  0.98881814132E-02 -0.63562565329E-01 -0.78530170465E-02  0.64806688239E-01  0.51100000000E-03 0.  1.
</event>
<event>
 8    1  0.2877139E+004  0.1043930E+01  0.7957747E-01            NaN
         13   -1    0    0    0    0  0.00000000000E+00  0.00000000000E+00  0.74505805969E-08  0.10566000000E+00  0.10566000000E+00 0.  1.
     999900   -1    0    0    0    0 -0.00000000000E+00 -0.00000000000E+00 -0.74505805969E-08  0.93827000000E+00  0.93827000000E+00 0. -1.
     999902    2    1    2    0    0  0.10718144550E-01 -0.64514817320E-02  0.58541224695E-02  0.10301180129E+01  0.10300254120E+01 0.  0.
     999903    2    3    3    0    0  0.74503736967E-02 -0.25988581290E-01  0.13098091664E+00  0.14104597347E+00  0.44800130383E-01 0.  0.
         14    1    1    2    0    0 -0.10718144550E-01  0.64514817320E-02 -0.58541224695E-02  0.13811987150E-01  0.00000000000E+00 0. -1.
     999901    1    3    3    0    0  0.32677708534E-02  0.19537099558E-01 -0.12512679417E+00  0.88907203938E+00  0.88000000000E+00 0. -1.
        -11    1    4    4    0    0  0.40378241783E-02 -0.27466672654E-01  0.33580772783E-01  0.43573518936E-01  0.51100000000E-03 0.  1.
         11    1    4    4    0    0  0.34125495184E-02  0.14780913641E-02  0.97400143859E-01  0.97472454535E-01  0.51100000000E-03 0. -1.
</event>
<event>
 7    1  0.2877139E+004  0.1043930E+01  0.7957747E-01            NaN
         13   -1    0    0    0    0  0.00000000000E+00  0.00000000000E+00  0.74505805969E-08  0.10566000000E+00  0.10566000000E+00 0. -1.
     999900   -1    0    0    0    0 -0.00000000000E+00 -0.00000000000E+00 -0.74505805969E-08  0.93827000000E+00  0.93827000000E+00 0.  1.
     999903    2    1    2    0    0  0.53915548916E-02  0.75508703471E-01 -0.80990488371E-01  0.11939402470E+00  0.44326524373E-01 0.  0.
         14    1    1    2    0    0 -0.31317440260E-01 -0.23309506898E-01  0.44556943620E-02  0.39293363161E-01  0.00000000000E+00 0. -1.
     999901    1    1    2    0    0  0.25925885369E-01 -0.52199196573E-01  0.76534794009E-01  0.88524261214E+00  0.88000000000E+00 0. -1.
        -11    1    3    3    0    0 -0.58200261171E-02  0.75855288079E-01 -0.66383057317E-01  0.10096964323E+00  0.51100000000E-03 0. -1.
         11    1    3    3    0    0  0.11211581009E-01 -0.34658460818E-03 -0.14607431054E-01  0.18424381471E-01  0.51100000000E-03 0.  1.
</event>
<event>
 8    1  0.2877139E+004  0.1043930E+01  0.7957747E-01            NaN
         13   -1    0    0    0    0  0.00000000000E+00  0.00000000000E+00  0.74505805969E-08  0.10566000000E+00  0.10566000000E+00 0. -1.
     999900   -1    0    0    0    0 -0.00000000000E+00 -0.00000000000E+00 -0.74505805969E-08  0.93827000000E+00  0.93827000000E+00 0.  1.
     999902    2    1    2    0    0  0.69023785990E-02 -0.12639229149E-01  0.13597711365E-02  0.10294648031E+01  0.10293631715E+01 0.  0.
     999903    2    3    3    0    0  0.59466307701E-01  0.93216646334E-01  0.70689536897E-01  0.13886104753E+00  0.45384964347E-01 0.  0.
         14    1    1    2    0    0 -0.69023785990E-02  0.12639229149E-01 -0.13597711365E-02  0.14465196900E-01  0.00000000000E+00 0. -1.
     999901    1    3    3    0    0 -0.52563929102E-01 -0.10585587548E+00 -0.69329765760E-01  0.89060375557E+00  0.88000000000E+00 0. -1.
        -11    1    4    4    0    0 -0.37823825417E-02  0.24721197433E-01  0.23691331831E-01  0.34452639161E-01  0.51100000000E-03 0. -1.
         11    1    4    4    0    0  0.63248690242E-01  0.68495448901E-01  0.46998205066E-01  0.10440840837E+00  0.51100000000E-03 0.  1.
</event>
<event>
 7    1  0.2877139E+004  0.1043930E+01  0.7957747E-01            NaN
         13   -1    0    0    0    0  0.00000000000E+00  0.00000000000E+00  0.74505805969E-08  0.10566000000E+00  0.10566000000E+00 0. -1.
     999900   -1    0    0    0    0 -0.00000000000E+00 -0.00000000000E+00 -0.74505805969E-08  0.93827000000E+00  0.93827000000E+00 0.  1.
     999903    2    1    2    0    0 -0.56232644797E-01  0.78727763228E-01 -0.40898036098E-01  0.11426485354E+00  0.44984845816E-01 0.  0.
         14    1    1    2    0    0  0.19368020850E-01  0.34645487491E-01  0.10720503723E-01  0.41113978587E-01  0.00000000000E+00 0.  1.
     999901    1    1    2    0    0  0.36864623946E-01 -0.11337325072E+00  0.30177532375E-01  0.88855116788E+00  0.88000000000E+00 0. -1.
        -11    1    3    3    0    0 -0.27762334180E-01  0.25287363014E-01 -0.38322292598E-01  0.53656846332E-01  0.51100000000E-03 0.  1.
         11    1    3    3    0    0 -0.28470310616E-01  0.53440400214E-01 -0.25757435003E-02  0.60608007203E-01  0.51100000000E-03 0. -1.
</event>
<event>
 8    1  0.2877139E+004  0.1043930E+01  0.7957747E-01            NaN
         13   -1    0    0    0    0  0.00000000000E+00  0.00000000000E+00  0.74505805969E-08  0.10566000000E+00  0.10566000000E+00 0. -1.
     999900   -1    0    0    0    0 -0.00000000000E+00 -0.00000000000E+00 -0.74505805969E-08  0.93827000000E+00  0.93827000000E+00 0. -1.
     999902    2    1    2    0    0 -0.71756428769E-02  0.22871866842E-02  0.10657124322E-01  0.10308802731E+01  0.10307976727E+01 0.  0.
     999903    2    3    3    0    0  0.13076107921E+00  0.18318136760E-01  0.49509447239E-02  0.13997281934E+00  0.46193769389E-01 0.  0.
         14    1    1    2    0    0  0.71756428769E-02 -0.22871866842E-02 -0.10657124322E-01  0.13049726911E-01  0.00000000000E+00 0. -1.
     999901    1    3    3    0    0 -0.13793672209E+00 -0.16030950076E-01  0.57061795981E-02  0.89090745375E+00  0.88000000000E+00 0.  1.
        -11    1    4    4    0    0  0.93261394151E-01  0.33487063088E-01  0.79249437521E-02  0.99408937665E-01  0.51100000000E-03 0.  1.
         11    1    4    4    0    0  0.37499685057E-01 -0.15168926328E-01 -0.29739990281E-02  0.40563881675E-01  0.51100000000E-03 0. -1.
</event>
<event>
 8    1  0.2877139E+004  0.1043930E+01  0.7957747E-01            NaN
         13   -1    0    0    0    0  0.00000000000E+00  0.00000000000E+00  0.74505805969E-08  0.10566000000E+00  0.10566000000E+00 0. -1.
     999900   -1    0    0    0    0 -0.00000000000E+00 -0.00000000000E+00 -0.74505805969E-08  0.93827000000E+00  0.93827000000E+00 0.  1.
     999902    2    1    2    0    0 -0.69701342490E-02  0.31596005610E-02  0.13774262288E-01  0.10281725843E+01  0.10280518309E+01 0.  0.
     999903    2    3    3    0    0 -0.67309808382E-02 -0.11675965382E+00  0.58894340569E-01  0.13889394058E+00  0.46312638820E-01 0.  0.
         14    1    1    2    0    0  0.69701342490E-02 -0.31596005610E-02 -0.13774262288E-01  0.15757415675E-01  0.00000000000E+00 0. -1.
     999901    1    3    3    0    0 -0.23915341082E-03  0.11991925438E+00 -0.45120078280E-01  0.88927864375E+00  0.88000000000E+00 0.  1.
        -11    1    4    4    0    0  0.11237971068E-01 -0.48987920833E-01  0.51024593060E-02  0.50521328102E-01  0.51100000000E-03 0.  1.
         11    1    4    4    0    0 -0.17968951906E-01 -0.67771732986E-01  0.53791881262E-01  0.88372612473E-01  0.51100000000E-03 0. -1.
</event>
<event>
 8    1  0.2877139E+004  0.1043930E+01  0.7957747E-01            NaN
         13   -1    0    0    0    0  0.00000000000E+00  0.00000000000E+00  0.74505805969E-08  0.10566000000E+00  0.10566000000E+00 0.  1.
     999900   -1    0    0    0    0 -0.00000000000E+00 -0.00000000000E+00 -0.74505805969E-08  0.93827000000E+00  0.93827000000E+00 0.  1.
     999902    2    1    2    0    0 -0.59600528849E-03 -0.91538598319E-02  0.70638428836E-02  0.10323521656E+01  0.10322872409E+01 0.  0.
     999903    2    3    3    0    0 -0.54810006659E-01  0.11861350586E+00  0.29835433178E-01  0.14118315642E+00  0.44376006795E-01 0.  0.
         14    1    1    2    0    0  0.59600528849E-03  0.91538598319E-02 -0.70638428836E-02  0.11577834357E-01  0.00000000000E+00 0. -1.
     999901    1    3    3    0    0  0.54214001370E-01 -0.12776736570E+00 -0.22771590295E-01  0.89116900923E+00  0.88000000000E+00 0. -1.
        -11    1    4    4    0    0 -0.21193109832E-01  0.27887128063E-01  0.27270763545E-01  0.44393642352E-01  0.51100000000E-03 0.  1.
         11    1    4    4    0    0 -0.33616896827E-01  0.90726377802E-01  0.25646696333E-02  0.96789514064E-01  0.51100000000E-03 0. -1.
</event>
<event>
 8    1  0.2877139E+004  0.1043930E+01  0.7957747E-01            NaN
         13   -1    0    0    0    0  0.00000000000E+00  0.00000000000E+00  0.74505805969E-08  0.10566000000E+00  0.10566000000E+00 0.  1.
     999900   -1    0    0    0    0 -0.00000000000E+00 -0.00000000000E+00 -0.74505805969E-08  0.93827000000E+00  0.93827000000E+00 0.  1.
     999902    2    1    2    0    0  0.43199483316E-02 -0.13087590432E-01  0.46934779892E-02  0.10293706143E+01  0.10292676454E+01 0.  0.
     999903    2    3    3    0    0  0.10720625523E+00  0.46474992264E-01  0.61691557217E-01  0.13954924207E+00  0.44889159771E-01 0.  0.
         14    1    1    2    0    0 -0.43199483316E-02  0.13087590432E-01 -0.46934779892E-02  0.14559385720E-01  0.00000000000E+00 0. -1.
     999901    1    3    3    0    0 -0.10288630690E+00 -0.59562582697E-01 -0.56998079228E-01  0.88982137221E+00  0.88000000000E+00 0. -1.
        -11    1    4    4    0    0  0.48641063551E-01  0.45270925554E-01  0.29465452505E-01  0.72690327942E-01  0.51100000000E-03 0. -1.
         11    1    4    4    0    0  0.58565191676E-01  0.12040667104E-02  0.32226104712E-01  0.66858914129E-01  0.51100000000E-03 0.  1.
</event>
<event>
 8    1  0.2877139E+004  0.1043930E+01  0.7957747E-01            NaN
         13   -1    0    0    0    0  0.00000000000E+00  0.00000000000E+00  0.74505805969E-08  0.10566000000E+00  0.10566000000E+00 0.  1.
     999900   -1    0    0    0    0 -0.00000000000E+00 -0.00000000000E+00 -0.74505805969E-08  0.93827000000E+00  0.93827000000E+00 0. -1.
     999902    2    1    2    0    0 -0.77126787738E-02 -0.57498027704E-03 -0.90315559279E-02  0.10320394568E+01  0.10319709566E+01 0.  0.
     999903    2    3    3    0    0 -0.12168669197E+00 -0.34903154828E-01  0.46789387776E-01  0.14227292726E+00  0.45016194888E-01 0.  0.
         14    1    1    2    0    0  0.77126787738E-02  0.57498027704E-03  0.90315559279E-02  0.11890543245E-01  0.00000000000E+00 0.  1.
     999901    1    3    3    0    0  0.11397401320E+00  0.34328174551E-01 -0.55820943704E-01  0.88976652949E+00  0.88000000000E+00 0.  1.
        -11    1    4    4    0    0 -0.28061260826E-01 -0.96683468153E-02  0.32904978322E-01  0.44316024288E-01  0.51100000000E-03 0. -1.
         11    1    4    4    0    0 -0.93625431148E-01 -0.25234808013E-01  0.13884409454E-01  0.97956902972E-01  0.51100000000E-03 0.  1.
</event>
<event>
 8    1  0.2877139E+004  0.1043930E+01  0.7957747E-01            NaN
         13   -1    0    0    0    0  0.00000000000E+00  0.00000000000E+00  0.74505805969E-08  0.10566000000E+00  0.10566000000E+00 0. -1.
     999900   -1    0    0    0    0 -0.00000000000E+00 -0.00000000000E+00 -0.74505805969E-08  0.93827000000E+00  0.93827000000E+00 0.  1.
     999902    2    1    2    0    0 -0.51931594734E-02 -0.97418462933E-02  0.96677896256E-02  0.10292555790E+01  0.10291509648E+01 0.  0.
     999903    2    3    3    0    0 -0.58788824517E-01 -0.78088736502E-01  0.91655720458E-01  0.14118699299E+00  0.44486169089E-01 0.  0.
         14    1    1    2    0    0  0.51931594734E-02  0.97418462933E-02 -0.96677896256E-02  0.14674420969E-01  0.00000000000E+00 0. -1.
     999901    1    3    3    0    0  0.53595665043E-01  0.68346890208E-01 -0.81987930832E-01  0.88806858604E+00  0.88000000000E+00 0.  1.
        -11    1    4    4    0    0 -0.28471821197E-01 -0.50167147994E-01  0.25119277251E-01  0.62917617173E-01  0.51100000000E-03 0. -1.
         11    1    4    4    0    0 -0.30317003320E-01 -0.27921588507E-01  0.66536443206E-01  0.78269375816E-01  0.51100000000E-03 0.  1.
</event>
<event>
 8    1  0.2877139E+004  0.1043930E+01  0.7957747E-01            NaN
         13   -1    0    0    0    0  0.00000000000E+00  0.00000000000E+00  0.74505805969E-08  0.10566000000E+00  0.10566000000E+00 0.  1.
     999900   -1    0    0    0    0 -0.00000000000E+00 -0.00000000000E+00 -0.74505805969E-08  0.93827000000E+00  0.93827000000E+00 0. -1.
     999902    2    1    2    0    0 -0.34401092201E-02  0.10923982631E-01  0.84367494329E-02  0.10297051454E+01  0.10296068861E+01 0.  0.
     999903    2    3    3    0    0  0.12534328996E+00 -0.38750171866E-01  0.11820536812E-01  0.13893910677E+00  0.44179567004E-01 0.  0.
         14    1    1    2    0    0  0.34401092201E-02 -0.10923982631E-01 -0.84367494329E-02  0.14224854620E-01  0.00000000000E+00 0. -1.
     999901    1    3    3    0    0 -0.12878339918E+00  0.49674154496E-01 -0.33837873796E-02  0.89076603861E+00  0.88000000000E+00 0.  1.
        -11    1    4    4    0    0  0.11384206047E+00 -0.47198478376E-01  0.15452947386E-01  0.12420453211E+00  0.51100000000E-03 0. -1.
         11    1    4    4    0    0  0.11501229490E-01  0.84483065101E-02 -0.36324105735E-02  0.14734574654E-01  0.51100000000E-03 0.  1.
</event>
<event>
 8    1  0.2877139E+004  0.1043930E+01  0.7957747E-01            NaN
         13   -1    0    0    0    0  0.00000000000E+00  0.00000000000E+00  0.74505805969E-08  0.10566000000E+00  0.10566000000E+00 0.  1.
     999900   -1    0    0    0    0 -0.00000000000E+00 -0.00000000000E+00 -0.74505805969E-08  0.93827000000E+00  0.93827000000E+00 0. -1.
     999902    2    1    2    0    0  0.76751053161E-02 -0.26321869111E-02  0.12604032537E-01  0.10289400939E+01  0.10288308994E+01 0.  0.
     999903    2    3    3    0    0  0.72399706588E-01 -0.82503510607E-01  0.75094242970E-01  0.14075445519E+00  0.46088225744E-01 0.  0.
         14    1    1    2    0    0 -0.76751053161E-02  0.26321869111E-02 -0.12604032537E-01  0.14989906129E-01  0.00000000000E+00 0. -1.
     999901    1    3    3    0    0 -0.64724601272E-01  0.79871323695E-01 -0.62490210433E-01  0.88818563868E+00  0.88000000000E+00 0. -1.
        -11    1    4    4    0    0  0.40910686046E-01 -0.49535804534E-01  0.69781099195E-01  0.94853271370E-01  0.51100000000E-03 0. -1.
         11    1    4    4    0    0  0.31489020542E-01 -0.32967706073E-01  0.53131437751E-02  0.45901183821E-01  0.51100000000E-03 0.  1.
</event>
<event>
 8    1  0.2877139E+004  0.1043930E+01  0.7957747E-01            NaN
         13   -1    0    0    0    0  0.00000000000E+00  0.00000000000E+00  0.74505805969E-08  0.10566000000E+00  0.10566000000E+00 0. -1.
     999900   -1    0    0    0    0 -0.00000000000E+00 -0.00000000000E+00 -0.74505805969E-08  0.93827000000E+00  0.93827000000E+00 0. -1.
     999902    2    1    2    0    0  0.47845266216E-03  0.90182686964E-02  0.90647947119E-02  0.10311343527E+01  0.10310549572E+01 0.  0.
     999903    2    3    3    0    0  0.50953128910E-01  0.12448206343E+00  0.43753733802E-03  0.14211578684E+00  0.45877009149E-01 0.  0.
         14    1    1    2    0    0 -0.47845266216E-03 -0.90182686964E-02 -0.90647947119E-02  0.12795647322E-01  0.00000000000E+00 0. -1.
     999901    1    3    3    0    0 -0.50474676248E-01 -0.11546379473E+00  0.86272573739E-02  0.88901856584E+00  0.88000000000E+00 0.  1.
        -11    1    4    4    0    0  0.39016381287E-01  0.52398769917E-01 -0.15914451704E-01  0.67241653694E-01  0.51100000000E-03 0. -1.
         11    1    4    4    0    0  0.11936747623E-01  0.72083293513E-01  0.16351989042E-01  0.74874133144E-01  0.51100000000E-03 0.  1.
</event>
<event>
 8    1  0.2877139E+004  0.1043930E+01  0.7957747E-01            NaN
         13   -1    0    0    0    0  0.00000000000E+00  0.00000000000E+00  0.74505805969E-08  0.10566000000E+00  0.10566000000E+00 0. -1.
     999900   -1    0    0    0    0 -0.00000000000E+00 -0.00000000000E+00 -0.74505805969E-08  0.93827000000E+00  0.93827000000E+00 0.  1.
     999902    2    1    2    0    0 -0.16116705286E-02 -0.14170090296E-01  0.19515968676E-02  0.10295356375E+01  0.10294350058E+01 0.  0.
     999903    2    3    3    0    0  0.10611063912E+00 -0.41964324398E-01  0.67998654576E-01  0.14007578498E+00  0.44462751353E-01 0.  0.
         14    1    1    2    0    0  0.16116705286E-02  0.14170090296E-01 -0.19515968676E-02  0.14394362481E-01  0.00000000000E+00 0.  1.
     999901    1    3    3    0    0 -0.10772230965E+00  0.27794234102E-01 -0.66047057708E-01  0.88945985254E+00  0.88000000000E+00 0.  1.
        -11    1    4    4    0    0  0.39153081109E-01 -0.18124859169E-01  0.51357425211E-01  0.67076974630E-01  0.51100000000E-03 0. -1.
         11    1    4    4    0    0  0.66957558009E-01 -0.23839465229E-01  0.16641229365E-01  0.72998810351E-01  0.51100000000E-03 0.  1.
</event>
<event>
 8    1  0.2877139E+004  0.1043930E+01  0.7957747E-01            NaN
         13   -1    0    0    0    0  0.00000000000E+00  0.00000000000E+00  0.74505805969E-08  0.10566000000E+00  0.10566000000E+00 0.  1.
     999900   -1    0    0    0    0 -0.00000000000E+00 -0.00000000000E+00 -0.74505805969E-08  0.93827000000E+00  0.93827000000E+00 0. -1.
     999902    2    1    2    0    0  0.37755832428E-02 -0.85832018817E-02  0.10596510080E-01  0.10297803566E+01  0.10296831408E+01 0.  0.
     999903    2    3    3    0    0 -0.92728214730E-01  0.71750072347E-01  0.60573298014E-01  0.13946350437E+00  0.45103768478E-01 0.  0.
         14    1    1    2    0    0 -0.37755832428E-02  0.85832018817E-02 -0.10596510080E-01  0.14149643432E-01  0.00000000000E+00 0. -1.
     999901    1    3    3    0    0  0.96503797972E-01 -0.80333274229E-01 -0.49976787933E-01  0.89031685220E+00  0.88000000000E+00 0. -1.
        -11    1    4    4    0    0 -0.93346846131E-01  0.54004949147E-01  0.52740699587E-01  0.12005003427E+00  0.51100000000E-03 0. -1.
         11    1    4    4    0    0  0.61863140162E-03  0.17745123200E-01  0.78325984267E-02  0.19413470100E-01  0.51100000000E-03 0.  1.
</event>
<event>
 8    1  0.2877139E+004  0.1043930E+01  0.7957747E-01            NaN
         13   -1    0    0    0    0  0.00000000000E+00  0.00000000000E+00  0.74505805969E-08  0.10566000000E+00  0.10566000000E+00 0. -1.
     999900   -1    0    0    0    0 -0.00000000000E+00 -0.00000000000E+00 -0.74505805969E-08  0.93827000000E+00  0.93827000000E+00 0. -1.
     999902    2    1    2    0    0 -0.13476404854E-02 -0.26867807623E-02  0.16032455882E-01  0.10276182077E+01  0.10274887378E+01 0.  0.
     999903    2    3    3    0    0  0.35585675199E-01 -0.11966890874E+00 -0.36027867984E-01  0.13758496936E+00  0.45217568726E-01 0.  0.
         14    1    1    2    0    0  0.13476404854E-02  0.26867807623E-02 -0.16032455882E-01  0.16311792279E-01  0.00000000000E+00 0.  1.
     999901    1    3    3    0    0 -0.36933315685E-01  0.11698212798E+00  0.52060323866E-01  0.89003323837E+00  0.88000000000E+00 0.  1.
        -11    1    4    4    0    0  0.95542273842E-02 -0.56411223626E-01 -0.38784396054E-01  0.69123077986E-01  0.51100000000E-03 0. -1.
         11    1    4    4    0    0  0.26031447815E-01 -0.63257685119E-01  0.27565280707E-02  0.68461891370E-01  0.51100000000E-03 0.  1.
</event>
<event>
 8    1  0.2877139E+004  0.1043930E+01  0.7957747E-01            NaN
         13   -1    0    0    0    0  0.00000000000E+00  0.00000000000E+00  0.74505805969E-08  0.10566000000E+00  0.10566000000E+00 0. -1.
     999900   -1    0    0    0    0 -0.00000000000E+00 -0.00000000000E+00 -0.74505805969E-08  0.93827000000E+00  0.93827000000E+00 0.  1.
     999902    2    1    2    0    0  0.12467065465E-02 -0.60829361107E-02  0.12076621916E-01  0.10303505602E+01  0.10302610716E+01 0.  0.
     999903    2    3    3    0    0  0.11932628081E+00 -0.60971029263E-01 -0.16500372038E-01  0.14031003683E+00  0.38189219090E-01 0.  0.
         14    1    1    2    0    0 -0.12467065465E-02  0.60829361107E-02 -0.12076621916E-01  0.13579439821E-01  0.00000000000E+00 0.  1.
     999901    1    3    3    0    0 -0.11807957427E+00  0.54888093153E-01  0.28576993954E-01  0.89004052335E+00  0.88000000000E+00 0. -1.
        -11    1    4    4    0    0  0.10790030801E+00 -0.41746566333E-01 -0.20746316522E-01  0.11754115466E+00  0.51100000000E-03 0. -1.
         11    1    4    4    0    0  0.11425972805E-01 -0.19224462930E-01  0.42459444842E-02  0.22768882165E-01  0.51100000000E-03 0.  1.
</event>
<event>
 8    1  0.2877139E+004  0.1043930E+01  0.7957747E-01            NaN
         13   -1    0    0    0    0  0.00000000000E+00  0.00000000000E+00  0.74505805969E-08  0.10566000000E+00  0.10566000000E+00 0. -1.
     999900   -1    0    0    0    0 -0.00000000000E+00 -0.00000000000E+00 -0.74505805969E-08  0.93827000000E+00  0.93827000000E+00 0. -1.
     999902    2    1    2    0    0 -0.81650599192E-02  0.10997254576E-01 -0.43314467223E-03  0.10302261529E+01  0.10301350060E+01 0.  0.
     999903    2    3    3    0    0  0.11339708120E+00 -0.88190598371E-03  0.67284197073E-01  0.13921318609E+00  0.44648317129E-01 0.  0.
         14    1    1    2    0    0  0.81650599192E-02 -0.10997254576E-01  0.43314467223E-03  0.13703847124E-01  0.00000000000E+00 0.  1.
     999901    1    3    3    0    0 -0.12156214112E+00  0.11879160560E-01 -0.67717341745E-01  0.89101296679E+00  0.88000000000E+00 0. -1.
        -11    1    4    4    0    0  0.29809680447E-01  0.12870363502E-01  0.37049853469E-01  0.49266784633E-01  0.51100000000E-03 0.  1.
         11    1    4    4    0    0  0.83587400753E-01 -0.13752269486E-01  0.30234343604E-01  0.89946401456E-01  0.51100000000E-03 0. -1.
</event>
<event>
 8    1  0.2877139E+004  0.1043930E+01  0.7957747E-01            NaN
         13   -1    0    0    0    0  0.00000000000E+00  0.00000000000E+00  0.74505805969E-08  0.10566000000E+00  0.10566000000E+00 0. -1.
     999900   -1    0    0    0    0 -0.00000000000E+00 -0.00000000000E+00 -0.74505805969E-08  0.93827000000E+00  0.93827000000E+00 0.  1.
     999902    2    1    2    0    0  0.26372989107E-04  0.12166089045E-01  0.91290985556E-03  0.10317296794E+01  0.10316575418E+01 0.  0.
     999903    2    3    3    0    0 -0.10068372378E+00  0.80009162629E-01 -0.41403305057E-01  0.14238392647E+00  0.44947419372E-01 0.  0.
         14    1    1    2    0    0 -0.26372989107E-04 -0.12166089045E-01 -0.91290985556E-03  0.12200320594E-01  0.00000000000E+00 0. -1.
     999901    1    3    3    0    0  0.10071009677E+00 -0.67843073583E-01  0.42316214913E-01  0.88934575294E+00  0.88000000000E+00 0. -1.
        -11    1    4    4    0    0 -0.39207344650E-01  0.47770161483E-01 -0.48622242217E-03  0.61803735614E-01  0.51100000000E-03 0.  1.
         11    1    4    4    0    0 -0.61476379129E-01  0.32239001145E-01 -0.40917082635E-01  0.80580190854E-01  0.51100000000E-03 0. -1.
</event>
<event>
 8    1  0.2877139E+004  0.1043930E+01  0.7957747E-01            NaN
         13   -1    0    0    0    0  0.00000000000E+00  0.00000000000E+00  0.74505805969E-08  0.10566000000E+00  0.10566000000E+00 0. -1.
     999900   -1    0    0    0    0 -0.00000000000E+00 -0.00000000000E+00 -0.74505805969E-08  0.93827000000E+00  0.93827000000E+00 0. -1.
     999902    2    1    2    0    0 -0.18179271484E-02  0.96413850404E-02 -0.99778955603E-02  0.10299364456E+01  0.10298413773E+01 0.  0.
     999903    2    3    3    0    0  0.86540923366E-01  0.95107311668E-01 -0.36014550278E-01  0.14101034156E+00  0.45300512634E-01 0.  0.
         14    1    1    2    0    0  0.18179271484E-02 -0.96413850404E-02  0.99778955603E-02  0.13993554389E-01  0.00000000000E+00 0. -1.
     999901    1    3    3    0    0 -0.88358850514E-01 -0.85465926628E-01  0.26036654718E-01  0.88892610405E+00  0.88000000000E+00 0.  1.
        -11    1    4    4    0    0  0.25791247546E-01  0.58492603811E-01 -0.67703117553E-02  0.64285856865E-01  0.51100000000E-03 0. -1.
         11    1    4    4    0    0  0.60749675820E-01  0.36614707857E-01 -0.29244238522E-01  0.76724484694E-01  0.51100000000E-03 0.  1.
</event>
<event>
 8    1  0.2877139E+004  0.1043930E+01  0.7957747E-01            NaN
         13   -1    0    0    0    0  0.00000000000E+00  0.00000000000E+00  0.74505805969E-08  0.10566000000E+00  0.10566000000E+00 0. -1.
     999900   -1    0    0    0    0 -0.00000000000E+00 -0.00000000000E+00 -0.74505805969E-08  0.93827000000E+00  0.93827000000E+00 0. -1.
     999902    2    1    2    0    0  0.43102849245E-02  0.57111549171E-02 -0.10631518641E-01  0.10311149684E+01  0.10310353306E+01 0.  0.
     999903    2    3    3    0    0 -0.10930491585E+00 -0.36651135548E-01 -0.67859042046E-01  0.14095882089E+00  0.44425997259E-01 0.  0.
         14    1    1    2    0    0 -0.43102849245E-02 -0.57111549171E-02  0.10631518641E-01  0.12815031613E-01  0.00000000000E+00 0. -1.
     999901    1    3    3    0    0  0.11361520077E+00  0.42362290465E-01  0.57227523404E-01  0.89015614750E+00  0.88000000000E+00 0.  1.
        -11    1    4    4    0    0 -0.12547308758E-01 -0.17757120126E-01 -0.25884958599E-01  0.33808911176E-01  0.51100000000E-03 0.  1.
         11    1    4    4    0    0 -0.96757607090E-01 -0.18894015422E-01 -0.41974083447E-01  0.10714990971E+00  0.51100000000E-03 0. -1.
</event>
<event>
 8    1  0.2877139E+004  0.1043930E+01  0.7957747E-01            NaN
         13   -1    0    0    0    0  0.00000000000E+00  0.00000000000E+00  0.74505805969E-08  0.10566000000E+00  0.10566000000E+00 0. -1.
     999900   -1    0    0    0    0 -0.00000000000E+00 -0.00000000000E+00 -0.74505805969E-08  0.93827000000E+00  0.93827000000E+00 0. -1.
     999902    2    1    2    0    0 -0.90525750575E-02  0.34960896785E-02  0.97758696718E-02  0.10301554080E+01  0.10300633112E+01 0.  0.
     999903    2    3    3    0    0  0.61747330009E-01  0.10324165634E+00 -0.54438535517E-01  0.13937749261E+00  0.44620162813E-01 0.  0.
         14    1    1    2    0    0  0.90525750575E-02 -0.34960896785E-02 -0.97758696718E-02  0.13774592047E-01  0.00000000000E+00 0.  1.
     999901    1    3    3    0    0 -0.70799905067E-01 -0.99745566666E-01  0.64214405189E-01  0.89077791534E+00  0.88000000000E+00 0.  1.
        -11    1    4    4    0    0  0.47180082491E-01  0.41140590809E-01 -0.14968171227E-01  0.64364708240E-01  0.51100000000E-03 0. -1.
         11    1    4    4    0    0  0.14567247518E-01  0.62101065536E-01 -0.39470364290E-01  0.75012784371E-01  0.51100000000E-03 0.  1.
</event>
<event>
 8    1  0.2877139E+004  0.1043930E+01  0.7957747E-01            NaN
         13   -1    0    0    0    0  0.00000000000E+00  0.00000000000E+00  0.74505805969E-08  0.10566000000E+00  0.10566000000E+00 0. -1.
     999900   -1    0    0    0    0 -0.00000000000E+00 -0.00000000000E+00 -0.74505805969E-08  0.93827000000E+00  0.93827000000E+00 0.  1.
     999902    2    1    2    0    0 -0.11485941352E-02 -0.14012737725E-01  0.18201940215E-02  0.10297529342E+01  0.10296553386E+01 0.  0.
     999903    2    3    3    0    0  0.79484441210E-01  0.57000904246E-01 -0.87228850143E-01  0.13875666265E+00  0.45581352036E-01 0.  0.
         14    1    1    2    0    0  0.11485941352E-02  0.14012737725E-01 -0.18201940215E-02  0.14177065751E-01  0.00000000000E+00 0. -1.
     999901    1    3    3    0    0 -0.80633035345E-01 -0.71013641971E-01  0.89049044164E-01  0.89099627160E+00  0.88000000000E+00 0. -1.
        -11    1    4    4    0    0  0.56168092219E-01  0.31024670083E-01 -0.28013749401E-01  0.70017255115E-01  0.51100000000E-03 0.  1.
         11    1    4    4    0    0  0.23316348990E-01  0.25976234163E-01 -0.59215100742E-01  0.68739407536E-01  0.51100000000E-03 0. -1.
</event>
<event>
 8    1  0.2877139E+004  0.1043930E+01  0.7957747E-01            NaN
         13   -1    0    0    0    0  0.00000000000E+00  0.00000000000E+00  0.74505805969E-08  0.10566000000E+00  0.10566000000E+00 0.  1.
     999900   -1    0    0    0    0 -0.00000000000E+00 -0.00000000000E+00 -0.74505805969E-08  0.93827000000E+00  0.93827000000E+00 0.  1.
     999902    2    1    2    0    0 -0.34830185684E-02 -0.73826671810E-02  0.95364987877E-02  0.10313769126E+01  0.10313005168E+01 0.  0.
     999903    2    3    3    0    0  0.41827384617E-01  0.36327616519E-01 -0.12088351425E+00  0.13954004340E+00  0.42300991341E-01 0.  0.
         14    1    1    2    0    0  0.34830185684E-02  0.73826671810E-02 -0.95364987877E-02  0.12553087357E-01  0.00000000000E+00 0. -1.
     999901    1    3    3    0    0 -0.45310403185E-01 -0.43710283700E-01  0.13042001304E+00  0.89183686924E+00  0.88000000000E+00 0. -1.
        -11    1    4    4    0    0  0.32598341436E-01  0.20924143933E-01 -0.36364108353E-01  0.53132675079E-01  0.51100000000E-03 0. -1.
         11    1    4    4    0    0  0.92290431807E-02  0.15403472586E-01 -0.84519405900E-01  0.86407368322E-01  0.51100000000E-03 0.  1.
</event>
<event>
 8    1  0.2877139E+004  0.1043930E+01  0.7957747E-01            NaN
         13   -1    0    0    0    0  0.00000000000E+00  0.00000000000E+00  0.74505805969E-08  0.10566000000E+00  0.10566000000E+00 0.  1.
     999900   -1    0    0    0    0 -0.00000000000E+00 -0.00000000000E+00 -0.74505805969E-08  0.93827000000E+00  0.93827000000E+00 0.  1.
     999902    2    1    2    0    0  0.33296778880E-03 -0.13122484331E-01 -0.21595775695E-02  0.10306268335E+01  0.10305409724E+01 0.  0.
     999903    2    3    3    0    0 -0.27597767237E-01 -0.78900748633E-02  0.13009343898E+00  0.14029073720E+00  0.43969285182E-01 0.  0.
         14    1    1    2    0    0 -0.33296778880E-03  0.13122484331E-01  0.21595775695E-02  0.13303166459E-01  0.00000000000E+00 0.  1.
     999901    1    3    3    0    0  0.27930735026E-01 -0.52324094674E-02 -0.13225301655E+00  0.89033609634E+00  0.88000000000E+00 0.  1.
        -11    1    4    4    0    0 -0.21361817749E-02  0.10119173115E-01  0.83998808023E-01  0.84634637161E-01  0.51100000000E-03 0. -1.
         11    1    4    4    0    0 -0.25461585462E-01 -0.18009247978E-01  0.46094630958E-01  0.55656100035E-01  0.51100000000E-03 0.  1.
</event>
<event>
 8    1  0.2877139E+004  0.1043930E+01  0.7957747E-01            NaN
         13   -1    0    0    0    0  0.00000000000E+00  0.00000000000E+00  0.74505805969E-08  0.10566000000E+00  0.10566000000E+00 0. -1.
     999900   -1    0    0    0    0 -0.00000000000E+00 -0.00000000000E+00 -0.74505805969E-08  0.93827000000E+00  0.93827000000E+00 0. -1.
     999902    2    1    2    0    0 -0.10012586428E-01 -0.39023795207E-03 -0.36295078007E-02  0.10332727255E+01  0.10332177640E+01 0.  0.
     999903    2    3    3    0    0 -0.68616985567E-01  0.11622142324E+00  0.18375462984E-01  0.14337555512E+00  0.44756923933E-01 0.  0.
         14    1    1    2    0    0  0.10012586428E-01  0.39023795207E-03  0.36295078007E-02  0.10657274488E-01  0.00000000000E+00 0. -1.
     999901    1    3    3    0    0  0.58604399139E-01 -0.11661166119E+00 -0.22004970785E-01  0.88989717039E+00  0.88000000000E+00 0.  1.
        -11    1    4    4    0    0 -0.16290809327E-02  0.35040610162E-01  0.14762443695E-01  0.38061649072E-01  0.51100000000E-03 0. -1.
         11    1    4    4    0    0 -0.66987904635E-01  0.81180813075E-01  0.36130192897E-02  0.10531390605E+00  0.51100000000E-03 0.  1.
</event>
<event>
 8    1  0.2877139E+004  0.1043930E+01  0.7957747E-01            NaN
         13   -1    0    0    0    0  0.00000000000E+00  0.00000000000E+00  0.74505805969E-08  0.10566000000E+00  0.10566000000E+00 0. -1.
     999900   -1    0    0    0    0 -0.00000000000E+00 -0.00000000000E+00 -0.74505805969E-08  0.93827000000E+00  0.93827000000E+00 0. -1.
     999902    2    1    2    0    0 -0.10583843111E-01  0.20885259686E-02  0.77318424186E-02  0.10306574319E+01  0.10305719679E+01 0.  0.
     999903    2    3    3    0    0 -0.12488077300E+00  0.26770956263E-01 -0.40180291986E-01  0.14163067015E+00  0.46183322755E-01 0.  0.
         14    1    1    2    0    0  0.10583843111E-01 -0.20885259686E-02 -0.77318424186E-02  0.13272568060E-01  0.00000000000E+00 0.  1.
     999901    1    3    3    0    0  0.11429692989E+00 -0.24682430294E-01  0.47912134405E-01  0.88902676178E+00  0.88000000000E+00 0. -1.
        -11    1    4    4    0    0 -0.86004374499E-02 -0.55432235242E-02  0.66075207423E-02  0.12190787617E-01  0.51100000000E-03 0.  1.
         11    1    4    4    0    0 -0.11628033555E+00  0.32314179787E-01 -0.46787812729E-01  0.12943988254E+00  0.51100000000E-03 0. -1.
</event>
<event>
 7    1  0.2877139E+004  0.1043930E+01  0.7957747E-01            NaN
         13   -1    0    0    0    0  0.00000000000E+00  0.00000000000E+00  0.74505805969E-08  0.10566000000E+00  0.10566000000E+00 0.  1.
     999900   -1    0    0    0    0 -0.00000000000E+00 -0.00000000000E+00 -0.74505805969E-08  0.93827000000E+00  0.93827000000E+00 0. -1.
     999903    2    1    2    0    0  0.43776416098E-02 -0.97697708392E-01 -0.44583072432E-01  0.11653298148E+00  0.45036423643E-01 0.  0.
         14    1    1    2    0    0 -0.30272539319E-01  0.20276868027E-01 -0.19449036190E-01  0.41301852531E-01  0.00000000000E+00 0. -1.
     999901    1    1    2    0    0  0.25894897709E-01  0.77420840365E-01  0.64032108622E-01  0.88609516599E+00  0.88000000000E+00 0.  1.
        -11    1    3    3    0    0 -0.20301604644E-02 -0.59464918127E-02 -0.20512391927E-01  0.21459302411E-01  0.51100000000E-03 0.  1.
         11    1    3    3    0    0  0.64078020742E-02 -0.91751216579E-01 -0.24070680505E-01  0.95073679071E-01  0.51100000000E-03 0. -1.
</event>
<event>
 8    1  0.2877139E+004  0.1043930E+01  0.7957747E-01            NaN
         13   -1    0    0    0    0  0.00000000000E+00  0.00000000000E+00  0.74505805969E-08  0.10566000000E+00  0.10566000000E+00 0.  1.
     999900   -1    0    0    0    0 -0.00000000000E+00 -0.00000000000E+00 -0.74505805969E-08  0.93827000000E+00  0.93827000000E+00 0.  1.
     999902    2    1    2    0    0 -0.17721348202E-02  0.15264989760E-02 -0.15099420438E-01  0.10286504987E+01  0.10285370122E+01 0.  0.
     999903    2    3    3    0    0 -0.97178858081E-01  0.55985240982E-01  0.58077396065E-01  0.13880610567E+00  0.57585357262E-01 0.  0.
         14    1    1    2    0    0  0.17721348202E-02 -0.15264989760E-02  0.15099420438E-01  0.15279501252E-01  0.00000000000E+00 0.  1.
     999901    1    3    3    0    0  0.95406723261E-01 -0.54458742006E-01 -0.73176816503E-01  0.88984439308E+00  0.88000000000E+00 0.  1.
        -11    1    4    4    0    0 -0.71963215512E-01  0.40333108331E-01  0.68621215938E-01  0.10730608749E+00  0.51100000000E-03 0. -1.
         11    1    4    4    0    0 -0.25215642570E-01  0.15652132651E-01 -0.10543819873E-01  0.31500018178E-01  0.51100000000E-03 0.  1.
</event>
<event>
 8    1  0.2877139E+004  0.1043930E+01  0.7957747E-01            NaN
         13   -1    0    0    0    0  0.00000000000E+00  0.00000000000E+00  0.74505805969E-08  0.10566000000E+00  0.10566000000E+00 0. -1.
     999900   -1    0    0    0    0 -0.00000000000E+00 -0.00000000000E+00 -0.74505805969E-08  0.93827000000E+00  0.93827000000E+00 0.  1.
     999902    2    1    2    0    0 -0.47054039301E-02  0.25968453707E-01 -0.81362088780E-02  0.10163129888E+01  0.10159376909E+01 0.  0.
     999903    2    3    3    0    0 -0.94620178375E-01 -0.62708294388E-01 -0.35935152600E-01  0.12686315119E+00  0.43790587978E-01 0.  0.
         14    1    1    2    0    0  0.47054039301E-02 -0.25968453707E-01  0.81362088780E-02  0.27617011225E-01  0.00000000000E+00 0. -1.
     999901    1    3    3    0    0  0.89914774445E-01  0.88676748095E-01  0.27798943722E-01  0.88944983759E+00  0.88000000000E+00 0. -1.
        -11    1    4    4    0    0 -0.30428847638E-01 -0.42035889542E-01 -0.34591866744E-02  0.52011132189E-01  0.51100000000E-03 0.  1.
         11    1    4    4    0    0 -0.64191330738E-01 -0.20672404846E-01 -0.32475965926E-01  0.74852018996E-01  0.51100000000E-03 0. -1.
</event>
<event>
 7    1  0.2877139E+004  0.1043930E+01  0.7957747E-01            NaN
         13   -1    0    0    0    0  0.00000000000E+00  0.00000000000E+00  0.74505805969E-08  0.10566000000E+00  0.10566000000E+00 0.  1.
     999900   -1    0    0    0    0 -0.00000000000E+00 -0.00000000000E+00 -0.74505805969E-08  0.93827000000E+00  0.93827000000E+00 0.  1.
     999903    2    1    2    0    0  0.69194876251E-01 -0.78419567700E-01  0.42922973447E-01  0.12143311284E+00  0.44340272294E-01 0.  0.
         14    1    1    2    0    0  0.15916265637E-02  0.18682851471E-01  0.29199391270E-01  0.34701392836E-01  0.00000000000E+00 0.  1.
     999901    1    1    2    0    0 -0.70786502815E-01  0.59736716229E-01 -0.72122364717E-01  0.88779549432E+00  0.88000000000E+00 0.  1.
        -11    1    3    3    0    0  0.11682039606E-01 -0.15141017754E-01 -0.92633662811E-02  0.21255388583E-01  0.51100000000E-03 0.  1.
         11    1    3    3    0    0  0.57512836646E-01 -0.63278549946E-01  0.52186339728E-01  0.10017772426E+00  0.51100000000E-03 0. -1.
</event>
<event>
 8    1  0.2877139E+004  0.1043930E+01  0.7957747E-01            NaN
         13   -1    0    0    0    0  0.00000000000E+00  0.00000000000E+00  0.74505805969E-08  0.10566000000E+00  0.10566000000E+00 0.  1.
     999900   -1    0    0    0    0 -0.00000000000E+00 -0.00000000000E+00 -0.74505805969E-08  0.93827000000E+00  0.93827000000E+00 0.  1.
     999902    2    1    2    0    0  0.27874735303E-02 -0.12490099730E-01 -0.65057758612E-02  0.10295738961E+01  0.10294738024E+01 0.  0.
     999903    2    3    3    0    0  0.51089045808E-02 -0.19747081685E-01 -0.13230743214E+00  0.14059464461E+00  0.42959857454E-01 0.  0.
         14    1    1    2    0    0 -0.27874735303E-02  0.12490099730E-01  0.65057758612E-02  0.14356103911E-01  0.00000000000E+00 0.  1.
     999901    1    3    3    0    0 -0.23214310505E-02  0.72569819554E-02  0.12580165628E+00  0.88897925147E+00  0.88000000000E+00 0. -1.
        -11    1    4    4    0    0  0.22006606919E-01 -0.12476329945E-01 -0.47555249364E-01  0.53867545146E-01  0.51100000000E-03 0.  1.
         11    1    4    4    0    0 -0.16897702338E-01 -0.72707517406E-02 -0.84752182780E-01  0.86727099468E-01  0.51100000000E-03 0. -1.
</event>
<event>
 8    1  0.2877139E+004  0.1043930E+01  0.7957747E-01            NaN
         13   -1    0    0    0    0  0.00000000000E+00  0.00000000000E+00  0.74505805969E-08  0.10566000000E+00  0.10566000000E+00 0. -1.
     999900   -1    0    0    0    0 -0.00000000000E+00 -0.00000000000E+00 -0.74505805969E-08  0.93827000000E+00  0.93827000000E+00 0.  1.
     999902    2    1    2    0    0  0.37180156650E-02 -0.57346425802E-02  0.13012363175E-01  0.10292319946E+01  0.10291270414E+01 0.  0.
     999903    2    3    3    0    0  0.56244226874E-01  0.10314810935E+00 -0.58241966254E-01  0.13811380047E+00  0.43362999532E-01 0.  0.
         14    1    1    2    0    0 -0.37180156650E-02  0.57346425802E-02 -0.13012363175E-01  0.14698005355E-01  0.00000000000E+00 0.  1.
     999901    1    3    3    0    0 -0.52526211209E-01 -0.10888275193E+00  0.71254329429E-01  0.89111819418E+00  0.88000000000E+00 0.  1.
        -11    1    4    4    0    0  0.25935873458E-01  0.16610178510E-01 -0.27817425985E-01  0.41504672889E-01  0.51100000000E-03 0. -1.
         11    1    4    4    0    0  0.30308353417E-01  0.86537930836E-01 -0.30424540269E-01  0.96609127580E-01  0.51100000000E-03 0.  1.
</event>
<event>
 8    1  0.2877139E+004  0.1043930E+01  0.7957747E-01            NaN
         13   -1    0    0    0    0  0.00000000000E+00  0.00000000000E+00  0.74505805969E-08  0.10566000000E+00  0.10566000000E+00 0. -1.
     999900   -1    0    0    0    0 -0.00000000000E+00 -0.00000000000E+00 -0.74505805969E-08  0.93827000000E+00  0.93827000000E+00 0. -1.
     999902    2    1    2    0    0 -0.46069562941E-02  0.66618279111E-02 -0.11878379234E-01  0.10295529387E+01  0.10294525505E+01 0.  0.
     999903    2    3    3    0    0 -0.64938462457E-01 -0.88440019010E-01  0.71424747980E-01  0.13847288457E+00  0.45106587861E-01 0.  0.
         14    1    1    2    0    0  0.46069562941E-02 -0.66618279111E-02  0.11878379234E-01  0.14377061266E-01  0.00000000000E+00 0. -1.
     999901    1    3    3    0    0  0.60331506163E-01  0.95101846921E-01 -0.83303127215E-01  0.89108005416E+00  0.88000000000E+00 0. -1.
        -11    1    4    4    0    0 -0.32727044742E-01 -0.39124964620E-01  0.75211319127E-02  0.51562106826E-01  0.51100000000E-03 0.  1.
         11    1    4    4    0    0 -0.32211417715E-01 -0.49315054390E-01  0.63903616068E-01  0.86910777745E-01  0.51100000000E-03 0. -1.
</event>
<event>
 8    1  0.2877139E+004  0.1043930E+01  0.7957747E-01            NaN
         13   -1    0    0    0    0  0.00000000000E+00  0.00000000000E+00  0.74505805969E-08  0.10566000000E+00  0.10566000000E+00 0.  1.
     999900   -1    0    0    0    0 -0.00000000000E+00 -0.00000000000E+00 -0.74505805969E-08  0.93827000000E+00  0.93827000000E+00 0.  1.
     999902    2    1    2    0    0 -0.21558555326E-02 -0.13951055408E-01  0.47465696854E-03  0.10298053776E+01  0.10297085076E+01 0.  0.
     999903    2    3    3    0    0 -0.79377737697E-02 -0.54009691431E-01 -0.12145459905E+00  0.14047705327E+00  0.44749612764E-01 0.  0.
         14    1    1    2    0    0  0.21558555326E-02  0.13951055408E-01 -0.47465696854E-03  0.14124622449E-01  0.00000000000E+00 0.  1.
     999901    1    3    3    0    0  0.57819182371E-02  0.40058636023E-01  0.12192925602E+00  0.88932832428E+00  0.88000000000E+00 0. -1.
        -11    1    4    4    0    0  0.59471909276E-02 -0.34454249950E-01 -0.30461358579E-01  0.46374776625E-01  0.51100000000E-03 0.  1.
         11    1    4    4    0    0 -0.13884964697E-01 -0.19555441481E-01 -0.90993240475E-01  0.94102276643E-01  0.51100000000E-03 0. -1.
</event>
<event>
 8    1  0.2877139E+004  0.1043930E+01  0.7957747E-01            NaN
         13   -1    0    0    0    0  0.00000000000E+00  0.00000000000E+00  0.74505805969E-08  0.10566000000E+00  0.10566000000E+00 0. -1.
     999900   -1    0    0    0    0 -0.00000000000E+00 -0.00000000000E+00 -0.74505805969E-08  0.93827000000E+00  0.93827000000E+00 0.  1.
     999902    2    1    2    0    0  0.33681465648E-02  0.10652903725E-01 -0.80042444473E-02  0.10301860305E+01  0.10300943455E+01 0.  0.
     999903    2    3    3    0    0 -0.70918365097E-01 -0.73005913560E-01 -0.85035647066E-01  0.13976415265E+00  0.44087176950E-01 0.  0.
         14    1    1    2    0    0 -0.33681465648E-02 -0.10652903725E-01  0.80042444473E-02  0.13743969522E-01  0.00000000000E+00 0. -1.
     999901    1    3    3    0    0  0.74286511662E-01  0.83658817285E-01  0.77031402618E-01  0.89042187783E+00  0.88000000000E+00 0. -1.
        -11    1    4    4    0    0 -0.59034574186E-01 -0.39487191290E-01 -0.73893363466E-01  0.10249297298E+00  0.51100000000E-03 0.  1.
         11    1    4    4    0    0 -0.11883790910E-01 -0.33518722271E-01 -0.11142283599E-01  0.37271179668E-01  0.51100000000E-03 0. -1.
</event>
<event>
 8    1  0.2877139E+004  0.1043930E+01  0.7957747E-01            NaN
         13   -1    0    0    0    0  0.00000000000E+00  0.00000000000E+00  0.74505805969E-08  0.10566000000E+00  0.10566000000E+00 0.  1.
     999900   -1    0    0    0    0 -0.00000000000E+00 -0.00000000000E+00 -0.74505805969E-08  0.93827000000E+00  0.93827000000E+00 0. -1.
     999902    2    1    2    0    0 -0.14035707310E-01  0.46227389805E-02  0.10520953531E-02  0.10291152202E+01  0.10290085805E+01 0.  0.
     999903    2    3    3    0    0 -0.59588491102E-01 -0.84561017168E-01  0.83482279542E-01  0.13960775328E+00  0.42657706010E-01 0.  0.
         14    1    1    2    0    0  0.14035707310E-01 -0.46227389805E-02 -0.10520953531E-02  0.14814779782E-01  0.00000000000E+00 0. -1.
     999901    1    3    3    0    0  0.45552783792E-01  0.89183756149E-01 -0.82430184189E-01  0.88950746694E+00  0.88000000000E+00 0. -1.
        -11    1    4    4    0    0 -0.16705598520E-01 -0.38067852915E-01  0.10209475816E-01  0.42810430562E-01  0.51100000000E-03 0. -1.
         11    1    4    4    0    0 -0.42882892582E-01 -0.46493164253E-01  0.73272803727E-01  0.96797322718E-01  0.51100000000E-03 0.  1.
</event>
<event>
 8    1  0.2877139E+004  0.1043930E+01  0.7957747E-01            NaN
         13   -1    0    0    0    0  0.00000000000E+00  0.00000000000E+00  0.74505805969E-08  0.10566000000E+00  0.10566000000E+00 0.  1.
     999900   -1    0    0    0    0 -0.00000000000E+00 -0.00000000000E+00 -0.74505805969E-08  0.93827000000E+00  0.93827000000E+00 0.  1.
     999902    2    1    2    0    0  0.12127730495E-01  0.30188421147E-02 -0.73626932245E-02  0.10294246732E+01  0.10293224729E+01 0.  0.
     999903    2    3    3    0    0  0.58207628735E-01  0.11942605973E+00 -0.71581899864E-02  0.14056358214E+00  0.45345001446E-01 0.  0.
         14    1    1    2    0    0 -0.12127730495E-01 -0.30188421147E-02  0.73626932245E-02  0.14505326821E-01  0.00000000000E+00 0.  1.
     999901    1    3    3    0    0 -0.46079898241E-01 -0.11640721761E+00 -0.20450323802E-03  0.88886109103E+00  0.88000000000E+00 0. -1.
        -11    1    4    4    0    0  0.29472442132E-01  0.10330635694E+00 -0.54840215189E-02  0.10756934434E+00  0.51100000000E-03 0. -1.
         11    1    4    4    0    0  0.28735186604E-01  0.16119702792E-01 -0.16741684676E-02  0.32994237804E-01  0.51100000000E-03 0.  1.
</event>
<event>
 8    1  0.2877139E+004  0.1043930E+01  0.7957747E-01            NaN
         13   -1    0    0    0    0  0.00000000000E+00  0.00000000000E+00  0.74505805969E-08  0.10566000000E+00  0.10566000000E+00 0. -1.
     999900   -1    0    0    0    0 -0.00000000000E+00 -0.00000000000E+00 -0.74505805969E-08  0.93827000000E+00  0.93827000000E+00 0. -1.
     999902    2    1    2    0    0  0.12290541406E-01 -0.18926411618E-04  0.61971097894E-02  0.10301654827E+01  0.10300735216E+01 0.  0.
     999903    2    3    3    0    0  0.13229114533E+00 -0.10435846832E-01 -0.19805451470E-01  0.14157964535E+00  0.45196084314E-01 0.  0.
         14    1    1    2    0    0 -0.12290541406E-01  0.18926411618E-04 -0.61971097894E-02  0.13764517282E-01  0.00000000000E+00 0. -1.
     999901    1    3    3    0    0 -0.12000060393E+00  0.10416920421E-01  0.26002561260E-01  0.88858583737E+00  0.88000000000E+00 0.  1.
        -11    1    4    4    0    0  0.27813560180E-01  0.12508408241E-01  0.70205917892E-02  0.31298629949E-01  0.51100000000E-03 0.  1.
         11    1    4    4    0    0  0.10447758515E+00 -0.22944255074E-01 -0.26826043260E-01  0.11028101540E+00  0.51100000000E-03 0. -1.
</event>
<event>
 8    1  0.2877139E+004  0.1043930E+01  0.7957747E-01            NaN
         13   -1    0    0    0    0  0.00000000000E+00  0.00000000000E+00  0.74505805969E-08  0.10566000000E+00  0.10566000000E+00 0.  1.
     999900   -1    0    0    0    0 -0.00000000000E+00 -0.00000000000E+00 -0.74505805969E-08  0.93827000000E+00  0.93827000000E+00 0.  1.
     999902    2    1    2    0    0  0.10691997069E-01 -0.54485525027E-02 -0.68962587579E-02  0.10300893385E+01  0.10299963502E+01 0.  0.
     999903    2    3    3    0    0 -0.11034627098E+00 -0.64575877121E-01 -0.36726549716E-01  0.13933900923E+00  0.41475011924E-01 0.  0.
         14    1    1    2    0    0 -0.10691997069E-01  0.54485525027E-02  0.68962587579E-02  0.13840661493E-01  0.00000000000E+00 0. -1.
     999901    1    3    3    0    0  0.12103826805E+00  0.59127324618E-01  0.29830290959E-01  0.89075032928E+00  0.88000000000E+00 0. -1.
        -11    1    4    4    0    0 -0.82899871002E-01 -0.26039555546E-01 -0.27420026731E-01  0.91118417743E-01  0.51100000000E-03 0.  1.
         11    1    4    4    0    0 -0.27446399978E-01 -0.38536321575E-01 -0.93065229854E-02  0.48220591487E-01  0.51100000000E-03 0. -1.
</event>
<event>
 7    1  0.2877139E+004  0.1043930E+01  0.7957747E-01            NaN
         13   -1    0    0    0    0  0.00000000000E+00  0.00000000000E+00  0.74505805969E-08  0.10566000000E+00  0.10566000000E+00 0.  1.
     999900   -1    0    0    0    0 -0.00000000000E+00 -0.00000000000E+00 -0.74505805969E-08  0.93827000000E+00  0.93827000000E+00 0.  1.
     999903    2    1    2    0    0  0.26676747673E-01 -0.17476973036E-01 -0.10601560629E+00  0.11961969635E+00  0.45304188813E-01 0.  0.
         14    1    1    2    0    0  0.25053483690E-01  0.15072498063E-01 -0.17655385050E-01  0.34155085480E-01  0.00000000000E+00 0. -1.
     999901    1    1    2    0    0 -0.51730231363E-01  0.24044749728E-02  0.12367099134E+00  0.89015521817E+00  0.88000000000E+00 0. -1.
        -11    1    3    3    0    0  0.15089732338E-01  0.13517603559E-01 -0.25526294547E-01  0.32592613616E-01  0.51100000000E-03 0.  1.
         11    1    3    3    0    0  0.11587015335E-01 -0.30994576595E-01 -0.80489311747E-01  0.87027082734E-01  0.51100000000E-03 0. -1.
</event>
<event>
 8    1  0.2877139E+004  0.1043930E+01  0.7957747E-01            NaN
         13   -1    0    0    0    0  0.00000000000E+00  0.00000000000E+00  0.74505805969E-08  0.10566000000E+00  0.10566000000E+00 0.  1.
     999900   -1    0    0    0    0 -0.00000000000E+00 -0.00000000000E+00 -0.74505805969E-08  0.93827000000E+00  0.93827000000E+00 0. -1.
     999902    2    1    2    0    0  0.13048792695E-01 -0.33645566377E-02  0.20782491764E-02  0.10302951054E+01  0.10302048795E+01 0.  0.
     999903    2    3    3    0    0  0.10437562199E+00 -0.15414669106E-03 -0.83833391553E-01  0.14140157603E+00  0.45520038853E-01 0.  0.
         14    1    1    2    0    0 -0.13048792695E-01  0.33645566377E-02 -0.20782491764E-02  0.13634894638E-01  0.00000000000E+00 0.  1.
     999901    1    3    3    0    0 -0.91326829292E-01 -0.32104099467E-02  0.85911640730E-01  0.88889352933E+00  0.88000000000E+00 0.  1.
        -11    1    4    4    0    0  0.66302638451E-01  0.81502522410E-02 -0.26047145922E-01  0.71702032111E-01  0.51100000000E-03 0.  1.
         11    1    4    4    0    0  0.38072983536E-01 -0.83043989321E-02 -0.57786245631E-01  0.69699543916E-01  0.51100000000E-03 0. -1.
</event>
<event>
 8    1  0.2877139E+004  0.1043930E+01  0.7957747E-01            NaN
         13   -1    0    0    0    0  0.00000000000E+00  0.00000000000E+00  0.74505805969E-08  0.10566000000E+00  0.10566000000E+00 0. -1.
     999900   -1    0    0    0    0 -0.00000000000E+00 -0.00000000000E+00 -0.74505805969E-08  0.93827000000E+00  0.93827000000E+00 0.  1.
     999902    2    1    2    0    0  0.45630436707E-02  0.11823298928E-01 -0.10301481021E-02  0.10312149314E+01  0.10311365388E+01 0.  0.
     999903    2    3    3    0    0 -0.92876201315E-01 -0.54093444976E-01  0.77686367978E-01  0.13990369870E+00  0.44562131675E-01 0.  0.
         14    1    1    2    0    0 -0.45630436707E-02 -0.11823298928E-01  0.10301481021E-02  0.12715068627E-01  0.00000000000E+00 0. -1.
     999901    1    3    3    0    0  0.97439244986E-01  0.65916743904E-01 -0.78716516080E-01  0.89131123268E+00  0.88000000000E+00 0.  1.
        -11    1    4    4    0    0 -0.74630330482E-01 -0.30310646409E-01  0.35206410245E-01  0.87910033312E-01  0.51100000000E-03 0. -1.
         11    1    4    4    0    0 -0.18245870833E-01 -0.23782798567E-01  0.42479957733E-01  0.51993665385E-01  0.51100000000E-03 0.  1.
</event>
<event>
 8    1  0.2877139E+004  0.1043930E+01  0.7957747E-01            NaN
         13   -1    0    0    0    0  0.00000000000E+00  0.00000000000E+00  0.74505805969E-08  0.10566000000E+00  0.10566000000E+00 0.  1.
     999900   -1    0    0    0    0 -0.00000000000E+00 -0.00000000000E+00 -0.74505805969E-08  0.93827000000E+00  0.93827000000E+00 0.  1.
     999902    2    1    2    0    0 -0.10574742264E-01  0.13067349961E-02 -0.90726135421E-02  0.10299355351E+01  0.10298404544E+01 0.  0.
     999903    2    3    3    0    0 -0.69714573587E-01  0.10766771726E+00 -0.39540903019E-01  0.14103818737E+00  0.43310832075E-01 0.  0.
         14    1    1    2    0    0  0.10574742264E-01 -0.13067349961E-02  0.90726135421E-02  0.13994464862E-01  0.00000000000E+00 0.  1.
     999901    1    3    3    0    0  0.59139831323E-01 -0.10636098227E+00  0.30468289477E-01  0.88889734776E+00  0.88000000000E+00 0.  1.
        -11    1    4    4    0    0 -0.52286028081E-01  0.74070262984E-01 -0.66813214646E-02  0.90912781107E-01  0.51100000000E-03 0.  1.
         11    1    4    4    0    0 -0.17428545506E-01  0.33597454279E-01 -0.32859581555E-01  0.50125406267E-01  0.51100000000E-03 0. -1.
</event>
<event>
 8    1  0.2877139E+004  0.1043930E+01  0.7957747E-01            NaN
         13   -1    0    0    0    0  0.00000000000E+00  0.00000000000E+00  0.74505805969E-08  0.10566000000E+00  0.10566000000E+00 0. -1.
     999900   -1    0    0    0    0 -0.00000000000E+00 -0.00000000000E+00 -0.74505805969E-08  0.93827000000E+00  0.93827000000E+00 0. -1.
     999902    2    1    2    0    0  0.12018471780E-01 -0.57765423025E-02  0.40158696102E-03  0.10305893337E+01  0.10305029847E+01 0.  0.
     999903    2    3    3    0    0  0.42930920079E-01  0.10339712734E+00  0.72064207771E-01  0.14041519298E+00  0.44599849068E-01 0.  0.
         14    1    1    2    0    0 -0.12018471780E-01  0.57765423025E-02 -0.40158696102E-03  0.13340666287E-01  0.00000000000E+00 0. -1.
     999901    1    3    3    0    0 -0.30912448299E-01 -0.10917366965E+00 -0.71662620810E-01  0.89017414073E+00  0.88000000000E+00 0. -1.
        -11    1    4    4    0    0 -0.10315067996E-02  0.36995100526E-01  0.40186041698E-01  0.54634060233E-01  0.51100000000E-03 0. -1.
         11    1    4    4    0    0  0.43962426879E-01  0.66402026818E-01  0.31878166073E-01  0.85781132749E-01  0.51100000000E-03 0.  1.
</event>
<event>
 8    1  0.2877139E+004  0.1043930E+01  0.7957747E-01            NaN
         13   -1    0    0    0    0  0.00000000000E+00  0.00000000000E+00  0.74505805969E-08  0.10566000000E+00  0.10566000000E+00 0. -1.
     999900   -1    0    0    0    0 -0.00000000000E+00 -0.00000000000E+00 -0.74505805969E-08  0.93827000000E+00  0.93827000000E+00 0.  1.
     999902    2    1    2    0    0  0.12625140246E-01 -0.33798329121E-02  0.85082878617E-03  0.10308326206E+01  0.10307494120E+01 0.  0.
     999903    2    3    3    0    0  0.33283222793E-01 -0.94192500936E-01  0.89773895268E-01  0.14146148955E+00  0.44407213394E-01 0.  0.
         14    1    1    2    0    0 -0.12625140246E-01  0.33798329121E-02 -0.85082878617E-03  0.13097379371E-01  0.00000000000E+00 0.  1.
     999901    1    3    3    0    0 -0.20658082546E-01  0.90812668024E-01 -0.88923066482E-01  0.88937113108E+00  0.88000000000E+00 0.  1.
        -11    1    4    4    0    0  0.24693195424E-01 -0.49599463319E-01  0.21440058283E-01  0.59412102150E-01  0.51100000000E-03 0. -1.
         11    1    4    4    0    0  0.85900273692E-02 -0.44593037617E-01  0.68333836986E-01  0.82049387398E-01  0.51100000000E-03 0.  1.
</event>
<event>
 8    1  0.2877139E+004  0.1043930E+01  0.7957747E-01            NaN
         13   -1    0    0    0    0  0.00000000000E+00  0.00000000000E+00  0.74505805969E-08  0.10566000000E+00  0.10566000000E+00 0.  1.
     999900   -1    0    0    0    0 -0.00000000000E+00 -0.00000000000E+00 -0.74505805969E-08  0.93827000000E+00  0.93827000000E+00 0.  1.
     999902    2    1    2    0    0 -0.62722204392E-02  0.12770303280E-01 -0.91628681209E-03  0.10296730376E+01  0.10295743312E+01 0.  0.
     999903    2    3    3    0    0 -0.14604988818E-01 -0.10466085825E+00 -0.77487288339E-01  0.13853745252E+00  0.44957145697E-01 0.  0.
         14    1    1    2    0    0  0.62722204392E-02 -0.12770303280E-01  0.91628681209E-03  0.14256962392E-01  0.00000000000E+00 0.  1.
     999901    1    3    3    0    0  0.83327683786E-02  0.11743116153E+00  0.76571001527E-01  0.89113558508E+00  0.88000000000E+00 0.  1.
        -11    1    4    4    0    0 -0.28527249200E-01 -0.46330212447E-01 -0.30700454919E-01  0.62474567510E-01  0.51100000000E-03 0. -1.
         11    1    4    4    0    0  0.13922260382E-01 -0.58330645806E-01 -0.46786833420E-01  0.76062885014E-01  0.51100000000E-03 0.  1.
</event>
<event>
 8    1  0.2877139E+004  0.1043930E+01  0.7957747E-01            NaN
         13   -1    0    0    0    0  0.00000000000E+00  0.00000000000E+00  0.74505805969E-08  0.10566000000E+00  0.10566000000E+00 0.  1.
     999900   -1    0    0    0    0 -0.00000000000E+00 -0.00000000000E+00 -0.74505805969E-08  0.93827000000E+00  0.93827000000E+00 0.  1.
     999902    2    1    2    0    0 -0.12652963570E-01 -0.87601340174E-02  0.74856985439E-02  0.10268164639E+01  0.10266738418E+01 0.  0.
     999903    2    3    3    0    0  0.10473602731E+00 -0.19906690948E-01  0.72224908060E-01  0.13659425223E+00  0.45559199247E-01 0.  0.
         14    1    1    2    0    0  0.12652963570E-01  0.87601340174E-02 -0.74856985439E-02  0.17113536098E-01  0.00000000000E+00 0. -1.
     999901    1    3    3    0    0 -0.11738899088E+00  0.11146556931E-01 -0.64739209516E-01  0.89022221168E+00  0.88000000000E+00 0.  1.
        -11    1    4    4    0    0  0.18952264704E-01 -0.50578976962E-02  0.38532973833E-01  0.43241436839E-01  0.51100000000E-03 0.  1.
         11    1    4    4    0    0  0.85783762605E-01 -0.14848793252E-01  0.33691934226E-01  0.93352815387E-01  0.51100000000E-03 0. -1.
</event>
<event>
 8    1  0.2877139E+004  0.1043930E+01  0.7957747E-01            NaN
         13   -1    0    0    0    0  0.00000000000E+00  0.00000000000E+00  0.74505805969E-08  0.10566000000E+00  0.10566000000E+00 0.  1.
     999900   -1    0    0    0    0 -0.00000000000E+00 -0.00000000000E+00 -0.74505805969E-08  0.93827000000E+00  0.93827000000E+00 0. -1.
     999902    2    1    2    0    0 -0.94841497542E-02  0.37206982254E-02 -0.88566163061E-02  0.10304306539E+01  0.10303422248E+01 0.  0.
     999903    2    3    3    0    0 -0.67119981757E-01 -0.64220613790E-01 -0.99043911097E-01  0.14134592279E+00  0.39237665291E-01 0.  0.
         14    1    1    2    0    0  0.94841497542E-02 -0.37206982254E-02  0.88566163061E-02  0.13499346067E-01  0.00000000000E+00 0.  1.
     999901    1    3    3    0    0  0.57635832003E-01  0.67941312016E-01  0.90187294790E-01  0.88908473114E+00  0.88000000000E+00 0.  1.
        -11    1    4    4    0    0 -0.87240372871E-02 -0.28175859984E-01 -0.45837674897E-01  0.54510012597E-01  0.51100000000E-03 0. -1.
         11    1    4    4    0    0 -0.58395944470E-01 -0.36044753807E-01 -0.53206236200E-01  0.86835910193E-01  0.51100000000E-03 0.  1.
</event>
<event>
 8    1  0.2877139E+004  0.1043930E+01  0.7957747E-01            NaN
         13   -1    0    0    0    0  0.00000000000E+00  0.00000000000E+00  0.74505805969E-08  0.10566000000E+00  0.10566000000E+00 0.  1.
     999900   -1    0    0    0    0 -0.00000000000E+00 -0.00000000000E+00 -0.74505805969E-08  0.93827000000E+00  0.93827000000E+00 0.  1.
     999902    2    1    2    0    0  0.43405075692E-02 -0.10021223764E-01  0.78917087914E-02  0.10304561735E+01  0.10303680806E+01 0.  0.
     999903    2    3    3    0    0  0.56822108283E-02  0.61279153389E-01  0.11821513457E+00  0.14070519590E+00  0.45118864705E-01 0.  0.
         14    1    1    2    0    0 -0.43405075692E-02  0.10021223764E-01 -0.78917087914E-02  0.13473826454E-01  0.00000000000E+00 0. -1.
     999901    1    3    3    0    0 -0.13417032592E-02 -0.71300377153E-01 -0.11032342577E+00  0.88975097765E+00  0.88000000000E+00 0.  1.
        -11    1    4    4    0    0 -0.96879114948E-02  0.20973671935E-01  0.11946464258E-01  0.26014028385E-01  0.51100000000E-03 0. -1.
         11    1    4    4    0    0  0.15370122323E-01  0.40305481455E-01  0.10626867031E+00  0.11469116751E+00  0.51100000000E-03 0.  1.
</event>
<event>
 8    1  0.2877139E+004  0.1043930E+01  0.7957747E-01            NaN
         13   -1    0    0    0    0  0.00000000000E+00  0.00000000000E+00  0.74505805969E-08  0.10566000000E+00  0.10566000000E+00 0. -1.
     999900   -1    0    0    0    0 -0.00000000000E+00 -0.00000000000E+00 -0.74505805969E-08  0.93827000000E+00  0.93827000000E+00 0.  1.
     999902    2    1    2    0    0  0.10597521798E-01 -0.70791365947E-02  0.52688888764E-02  0.10301393208E+01  0.10300470074E+01 0.  0.
     999903    2    3    3    0    0  0.12798664925E+00 -0.38865508354E-02 -0.38955877358E-01  0.14123762217E+00  0.45108955562E-01 0.  0.
         14    1    1    2    0    0 -0.10597521798E-01  0.70791365947E-02 -0.52688888764E-02  0.13790679214E-01  0.00000000000E+00 0.  1.
     999901    1    3    3    0    0 -0.11738912746E+00 -0.31925857593E-02  0.44224766234E-01  0.88890169861E+00  0.88000000000E+00 0.  1.
        -11    1    4    4    0    0  0.66369576693E-01 -0.20896067741E-01 -0.74782931372E-02  0.69983943492E-01  0.51100000000E-03 0. -1.
         11    1    4    4    0    0  0.61617072560E-01  0.17009516905E-01 -0.31477584221E-01  0.71253678681E-01  0.51100000000E-03 0.  1.
</event>
<event>
 8    1  0.2877139E+004  0.1043930E+01  0.7957747E-01            NaN
         13   -1    0    0    0    0  0.00000000000E+00  0.00000000000E+00  0.74505805969E-08  0.10566000000E+00  0.10566000000E+00 0.  1.
     999900   -1    0    0    0    0 -0.00000000000E+00 -0.00000000000E+00 -0.74505805969E-08  0.93827000000E+00  0.93827000000E+00 0. -1.
     999902    2    1    2    0    0 -0.24617333530E-02 -0.12062746248E-01  0.54070002608E-02  0.10304836016E+01  0.10303958693E+01 0.  0.
     999903    2    3    3    0    0 -0.48465854516E-01  0.39098417471E-02  0.12508327130E+00  0.14104899884E+00  0.43413930931E-01 0.  0.
         14    1    1    2    0    0  0.24617333530E-02  0.12062746248E-01 -0.54070002608E-02  0.13446398402E-01  0.00000000000E+00 0.  1.
     999901    1    3    3    0    0  0.46004121163E-01 -0.15972587996E-01 -0.11967627104E+00  0.88943460276E+00  0.88000000000E+00 0. -1.
        -11    1    4    4    0    0 -0.31347938023E-01  0.74375593892E-02  0.28882272643E-01  0.43271899681E-01  0.51100000000E-03 0. -1.
         11    1    4    4    0    0 -0.17117916493E-01 -0.35277176420E-02  0.96200998656E-01  0.97777099161E-01  0.51100000000E-03 0.  1.
</event>
<event>
 8    1  0.2877139E+004  0.1043930E+01  0.7957747E-01            NaN
         13   -1    0    0    0    0  0.00000000000E+00  0.00000000000E+00  0.74505805969E-08  0.10566000000E+00  0.10566000000E+00 0. -1.
     999900   -1    0    0    0    0 -0.00000000000E+00 -0.00000000000E+00 -0.74505805969E-08  0.93827000000E+00  0.93827000000E+00 0.  1.
     999902    2    1    2    0    0 -0.31999046974E-02  0.16231425757E-01 -0.31059032008E-02  0.10270971391E+01  0.10269591949E+01 0.  0.
     999903    2    3    3    0    0  0.33450683463E-01 -0.10098192399E+00  0.70804010462E-01  0.13550030737E+00  0.45064711292E-01 0.  0.
         14    1    1    2    0    0  0.31999046974E-02 -0.16231425757E-01  0.31059032008E-02  0.16832860923E-01  0.00000000000E+00 0. -1.
     999901    1    3    3    0    0 -0.36650588160E-01  0.11721334974E+00 -0.73909913662E-01  0.89159683171E+00  0.88000000000E+00 0.  1.
        -11    1    4    4    0    0  0.25081159185E-02 -0.21709971206E-01 -0.39700150085E-02  0.22217912490E-01  0.51100000000E-03 0.  1.
         11    1    4    4    0    0  0.30942567544E-01 -0.79271952781E-01  0.74774025470E-01  0.11328239488E+00  0.51100000000E-03 0. -1.
</event>
<event>
 8    1  0.2877139E+004  0.1043930E+01  0.7957747E-01            NaN
         13   -1    0    0    0    0  0.00000000000E+00  0.00000000000E+00  0.74505805969E-08  0.10566000000E+00  0.10566000000E+00 0. -1.
     999900   -1    0    0    0    0 -0.00000000000E+00 -0.00000000000E+00 -0.74505805969E-08  0.93827000000E+00  0.93827000000E+00 0. -1.
     999902    2    1    2    0    0 -0.28785641190E-02 -0.28188289003E-02 -0.12871377101E-01  0.10304428107E+01  0.10303545418E+01 0.  0.
     999903    2    3    3    0    0 -0.35502375054E-01  0.77175441578E-01  0.10059385306E+00  0.13896215759E+00  0.44439740673E-01 0.  0.
         14    1    1    2    0    0  0.28785641190E-02  0.28188289003E-02  0.12871377101E-01  0.13487189338E-01  0.00000000000E+00 0. -1.
     999901    1    3    3    0    0  0.32623810935E-01 -0.79994270479E-01 -0.11346523016E+00  0.89148065307E+00  0.88000000000E+00 0. -1.
        -11    1    4    4    0    0 -0.19757415786E-01  0.38540548200E-02  0.28808436231E-01  0.35148205305E-01  0.51100000000E-03 0. -1.
         11    1    4    4    0    0 -0.15744959268E-01  0.73321386758E-01  0.71785416827E-01  0.10381395228E+00  0.51100000000E-03 0.  1.
</event>
<event>
 8    1  0.2877139E+004  0.1043930E+01  0.7957747E-01            NaN
         13   -1    0    0    0    0  0.00000000000E+00  0.00000000000E+00  0.74505805969E-08  0.10566000000E+00  0.10566000000E+00 0. -1.
     999900   -1    0    0    0    0 -0.00000000000E+00 -0.00000000000E+00 -0.74505805969E-08  0.93827000000E+00  0.93827000000E+00 0. -1.
     999902    2    1    2    0    0 -0.90567034408E-02  0.97147156571E-02 -0.70988555986E-02  0.10288703410E+01  0.10287601204E+01 0.  0.
     999903    2    3    3    0    0 -0.27899830608E-01 -0.72304606513E-01 -0.10673578582E+00  0.13925820615E+00  0.44653816581E-01 0.  0.
         14    1    1    2    0    0  0.90567034408E-02 -0.97147156571E-02  0.70988555986E-02  0.15059658971E-01  0.00000000000E+00 0. -1.
     999901    1    3    3    0    0  0.18843127167E-01  0.82019322170E-01  0.99636930225E-01  0.88961213487E+00  0.88000000000E+00 0. -1.
        -11    1    4    4    0    0 -0.18605126487E-01 -0.40882797636E-01 -0.25481828323E-01  0.51644346930E-01  0.51100000000E-03 0. -1.
         11    1    4    4    0    0 -0.92947041207E-02 -0.31421808877E-01 -0.81253957500E-01  0.87613859225E-01  0.51100000000E-03 0.  1.
</event>
<event>
 8    1  0.2877139E+004  0.1043930E+01  0.7957747E-01            NaN
         13   -1    0    0    0    0  0.00000000000E+00  0.00000000000E+00  0.74505805969E-08  0.10566000000E+00  0.10566000000E+00 0. -1.
     999900   -1    0    0    0    0 -0.00000000000E+00 -0.00000000000E+00 -0.74505805969E-08  0.93827000000E+00  0.93827000000E+00 0.  1.
     999902    2    1    2    0    0 -0.54119092507E-02 -0.25557835476E-02  0.12496081547E-01  0.10300745734E+01  0.10299813853E+01 0.  0.
     999903    2    3    3    0    0  0.25706448442E-01  0.49762424839E-01  0.12152766504E+00  0.14125882576E+00  0.45254414895E-01 0.  0.
         14    1    1    2    0    0  0.54119092507E-02  0.25557835476E-02 -0.12496081547E-01  0.13855426566E-01  0.00000000000E+00 0.  1.
     999901    1    3    3    0    0 -0.31118357693E-01 -0.52318208387E-01 -0.10903158349E+00  0.88881574767E+00  0.88000000000E+00 0.  1.
        -11    1    4    4    0    0 -0.11942229604E-02 -0.75884707789E-02  0.21725111072E-01  0.23048918181E-01  0.51100000000E-03 0. -1.
         11    1    4    4    0    0  0.26900671402E-01  0.57350895618E-01  0.99802553969E-01  0.11820990758E+00  0.51100000000E-03 0.  1.
</event>
<event>
 8    1  0.2877139E+004  0.1043930E+01  0.7957747E-01            NaN
         13   -1    0    0    0    0  0.00000000000E+00  0.00000000000E+00  0.74505805969E-08  0.10566000000E+00  0.10566000000E+00 0. -1.
     999900   -1    0    0    0    0 -0.00000000000E+00 -0.00000000000E+00 -0.74505805969E-08  0.93827000000E+00  0.93827000000E+00 0.  1.
     999902    2    1    2    0    0 -0.10311836247E-01 -0.92343388504E-02  0.33363608543E-02  0.10296913805E+01  0.10295929297E+01 0.  0.
     999903    2    3    3    0    0  0.22957903583E-01  0.51482457559E-01 -0.11845881603E+00  0.13860919011E+00  0.44749387883E-01 0.  0.
         14    1    1    2    0    0  0.10311836247E-01  0.92343388504E-02 -0.33363608543E-02  0.14238619475E-01  0.00000000000E+00 0.  1.
     999901    1    3    3    0    0 -0.33269739831E-01 -0.60716796410E-01  0.12179517688E+00  0.89108219041E+00  0.88000000000E+00 0. -1.
        -11    1    4    4    0    0 -0.18494269802E-03  0.87895865750E-02 -0.68030557718E-01  0.68598170095E-01  0.51100000000E-03 0. -1.
         11    1    4    4    0    0  0.23142846281E-01  0.42692870984E-01 -0.50428258311E-01  0.70011020019E-01  0.51100000000E-03 0.  1.
</event>
<event>
 8    1  0.2877139E+004  0.1043930E+01  0.7957747E-01            NaN
         13   -1    0    0    0    0  0.00000000000E+00  0.00000000000E+00  0.74505805969E-08  0.10566000000E+00  0.10566000000E+00 0.  1.
     999900   -1    0    0    0    0 -0.00000000000E+00 -0.00000000000E+00 -0.74505805969E-08  0.93827000000E+00  0.93827000000E+00 0.  1.
     999902    2    1    2    0    0 -0.82571265964E-02 -0.11701506286E-01 -0.81734390721E-04  0.10296082658E+01  0.10295086542E+01 0.  0.
     999903    2    3    3    0    0 -0.20277006959E-01 -0.10538713740E+00 -0.79928575560E-01  0.14095929518E+00  0.44309592270E-01 0.  0.
         14    1    1    2    0    0  0.82571265964E-02  0.11701506286E-01  0.81734390721E-04  0.14321734165E-01  0.00000000000E+00 0.  1.
     999901    1    3    3    0    0  0.12019880362E-01  0.93685631109E-01  0.79846841169E-01  0.88864897065E+00  0.88000000000E+00 0. -1.
        -11    1    4    4    0    0 -0.16380010570E-01 -0.73936392995E-02 -0.14001632050E-01  0.22787660465E-01  0.51100000000E-03 0. -1.
         11    1    4    4    0    0 -0.38969963883E-02 -0.97993498096E-01 -0.65926943509E-01  0.11817163472E+00  0.51100000000E-03 0.  1.
</event>
<event>
 8    1  0.2877139E+004  0.1043930E+01  0.7957747E-01            NaN
         13   -1    0    0    0    0  0.00000000000E+00  0.00000000000E+00  0.74505805969E-08  0.10566000000E+00  0.10566000000E+00 0. -1.
     999900   -1    0    0    0    0 -0.00000000000E+00 -0.00000000000E+00 -0.74505805969E-08  0.93827000000E+00  0.93827000000E+00 0. -1.
     999902    2    1    2    0    0  0.12490768195E-01  0.31284976381E-02 -0.27630500409E-02  0.10307602911E+01  0.10306761550E+01 0.  0.
     999903    2    3    3    0    0 -0.82717202367E-02 -0.11494983156E+00 -0.65229858365E-01  0.14043693696E+00  0.46751617162E-01 0.  0.
         14    1    1    2    0    0 -0.12490768195E-01 -0.31284976381E-02  0.27630500409E-02  0.13169708922E-01  0.00000000000E+00 0.  1.
     999901    1    3    3    0    0  0.20762488432E-01  0.11807832920E+00  0.62466808324E-01  0.89032335412E+00  0.88000000000E+00 0. -1.
        -11    1    4    4    0    0  0.12075703044E-01 -0.15459305693E-01 -0.23578207741E-01  0.30675816824E-01  0.51100000000E-03 0. -1.
         11    1    4    4    0    0 -0.20347423281E-01 -0.99490525869E-01 -0.41651650624E-01  0.10976112013E+00  0.51100000000E-03 0.  1.
</event>
<event>
 8    1  0.2877139E+004  0.1043930E+01  0.7957747E-01            NaN
         13   -1    0    0    0    0  0.00000000000E+00  0.00000000000E+00  0.74505805969E-08  0.10566000000E+00  0.10566000000E+00 0. -1.
     999900   -1    0    0    0    0 -0.00000000000E+00 -0.00000000000E+00 -0.74505805969E-08  0.93827000000E+00  0.93827000000E+00 0. -1.
     999902    2    1    2    0    0  0.79192295730E-02 -0.98416534532E-02  0.94034241219E-02  0.10281820882E+01  0.10280614815E+01 0.  0.
     999903    2    3    3    0    0  0.89588679289E-02  0.85968166408E-01 -0.97681403358E-01  0.13652757964E+00  0.40340258915E-01 0.  0.
         14    1    1    2    0    0 -0.79192295730E-02  0.98416534532E-02 -0.94034241219E-02  0.15747911764E-01  0.00000000000E+00 0.  1.
     999901    1    3    3    0    0 -0.10396383558E-02 -0.95809819861E-01  0.10708482748E+00  0.89165450860E+00  0.88000000000E+00 0.  1.
        -11    1    4    4    0    0  0.17134690299E-01  0.19153265882E-01 -0.14469680616E-01  0.29497084326E-01  0.51100000000E-03 0.  1.
         11    1    4    4    0    0 -0.81758223705E-02  0.66814900525E-01 -0.83211722742E-01  0.10703049531E+00  0.51100000000E-03 0. -1.
</event>
<event>
 8    1  0.2877139E+004  0.1043930E+01  0.7957747E-01            NaN
         13   -1    0    0    0    0  0.00000000000E+00  0.00000000000E+00  0.74505805969E-08  0.10566000000E+00  0.10566000000E+00 0.  1.
     999900   -1    0    0    0    0 -0.00000000000E+00 -0.00000000000E+00 -0.74505805969E-08  0.93827000000E+00  0.93827000000E+00 0.  1.
     999902    2    1    2    0    0 -0.21435997723E-02  0.12374113182E-01 -0.67513456691E-02  0.10296718667E+01  0.10295731439E+01 0.  0.
     999903    2    3    3    0    0  0.92588594397E-01  0.67634538487E-02  0.94699392002E-01  0.13877461095E+00  0.40890410604E-01 0.  0.
         14    1    1    2    0    0  0.21435997723E-02 -0.12374113182E-01  0.67513456691E-02  0.14258133306E-01  0.00000000000E+00 0.  1.
     999901    1    3    3    0    0 -0.94732194170E-01  0.56106593338E-02 -0.10145073767E+00  0.89089725574E+00  0.88000000000E+00 0.  1.
        -11    1    4    4    0    0  0.31715903650E-01  0.20061568674E-01  0.47868144595E-01  0.60827505867E-01  0.51100000000E-03 0. -1.
         11    1    4    4    0    0  0.60872690748E-01 -0.13298114826E-01  0.46831247407E-01  0.77947105087E-01  0.51100000000E-03 0.  1.
</event>
<event>
 8    1  0.2877139E+004  0.1043930E+01  0.7957747E-01            NaN
         13   -1    0    0    0    0  0.00000000000E+00  0.00000000000E+00  0.74505805969E-08  0.10566000000E+00  0.10566000000E+00 0. -1.
     999900   -1    0    0    0    0 -0.00000000000E+00 -0.00000000000E+00 -0.74505805969E-08  0.93827000000E+00  0.93827000000E+00 0.  1.
     999902    2    1    2    0    0  0.55587295024E-02 -0.10236476858E-01  0.66507839458E-02  0.10305166537E+01  0.10304293550E+01 0.  0.
     999903    2    3    3    0    0  0.84605062802E-01 -0.29394654460E-01 -0.98349667299E-01  0.14055010750E+00  0.45382962636E-01 0.  0.
         14    1    1    2    0    0 -0.55587295024E-02  0.10236476858E-01 -0.66507839458E-02  0.13413346310E-01  0.00000000000E+00 0.  1.
     999901    1    3    3    0    0 -0.79046333299E-01  0.19158177602E-01  0.10500045125E+00  0.88996654619E+00  0.88000000000E+00 0. -1.
        -11    1    4    4    0    0  0.54992928270E-01  0.25715848794E-02 -0.67765572382E-01  0.87311334486E-01  0.51100000000E-03 0. -1.
         11    1    4    4    0    0  0.29612134532E-01 -0.31966239339E-01 -0.30584094918E-01  0.53238773013E-01  0.51100000000E-03 0.  1.
</event>
<event>
 8    1  0.2877139E+004  0.1043930E+01  0.7957747E-01            NaN
         13   -1    0    0    0    0  0.00000000000E+00  0.00000000000E+00  0.74505805969E-08  0.10566000000E+00  0.10566000000E+00 0.  1.
     999900   -1    0    0    0    0 -0.00000000000E+00 -0.00000000000E+00 -0.74505805969E-08  0.93827000000E+00  0.93827000000E+00 0.  1.
     999902    2    1    2    0    0  0.35257832555E-02 -0.13187704945E-01 -0.46841394570E-02  0.10294978182E+01  0.10293966533E+01 0.  0.
     999903    2    3    3    0    0  0.76648881293E-01 -0.86889057912E-01  0.63914156883E-01  0.14074329463E+00  0.47946805361E-01 0.  0.
         14    1    1    2    0    0 -0.35257832555E-02  0.13187704945E-01  0.46841394570E-02  0.14432181807E-01  0.00000000000E+00 0. -1.
     999901    1    3    3    0    0 -0.73123098038E-01  0.73701352967E-01 -0.68598296340E-01  0.88875452356E+00  0.88000000000E+00 0.  1.
        -11    1    4    4    0    0  0.79900873188E-01 -0.64395519263E-01  0.50953455736E-01  0.11457507674E+00  0.51100000000E-03 0.  1.
         11    1    4    4    0    0 -0.32519918950E-02 -0.22493538649E-01  0.12960701147E-01  0.26168217889E-01  0.51100000000E-03 0. -1.
</event>
<event>
 8    1  0.2877139E+004  0.1043930E+01  0.7957747E-01            NaN
         13   -1    0    0    0    0  0.00000000000E+00  0.00000000000E+00  0.74505805969E-08  0.10566000000E+00  0.10566000000E+00 0.  1.
     999900   -1    0    0    0    0 -0.00000000000E+00 -0.00000000000E+00 -0.74505805969E-08  0.93827000000E+00  0.93827000000E+00 0.  1.
     999902    2    1    2    0    0 -0.75372636055E-02  0.24544717196E-02  0.12422258843E-01  0.10291940817E+01  0.10290885824E+01 0.  0.
     999903    2    3    3    0    0  0.56709666692E-01 -0.11541864516E+00  0.22992352856E-01  0.13895059441E+00  0.47340991209E-01 0.  0.
         14    1    1    2    0    0  0.75372636055E-02 -0.24544717196E-02 -0.12422258843E-01  0.14735918324E-01  0.00000000000E+00 0. -1.
     999901    1    3    3    0    0 -0.64246930298E-01  0.11787311688E+00 -0.10570094013E-01  0.89024348727E+00  0.88000000000E+00 0. -1.
        -11    1    4    4    0    0  0.22473587645E-01 -0.13428395788E-01  0.16959520934E-01  0.31197282356E-01  0.51100000000E-03 0.  1.
         11    1    4    4    0    0  0.34236079047E-01 -0.10199024938E+00  0.60328319222E-02  0.10775331205E+00  0.51100000000E-03 0. -1.
</event>
<event>
 8    1  0.2877139E+004  0.1043930E+01  0.7957747E-01            NaN
         13   -1    0    0    0    0  0.00000000000E+00  0.00000000000E+00  0.74505805969E-08  0.10566000000E+00  0.10566000000E+00 0.  1.
     999900   -1    0    0    0    0 -0.00000000000E+00 -0.00000000000E+00 -0.74505805969E-08  0.93827000000E+00  0.93827000000E+00 0.  1.
     999902    2    1    2    0    0 -0.51892434091E-02 -0.91860008331E-03 -0.15652429196E-01  0.10274142314E+01  0.10272814766E+01 0.  0.
     999903    2    3    3    0    0  0.60743361401E-01 -0.24024892258E-01 -0.11520522064E+00  0.13904957236E+00  0.42374394482E-01 0.  0.
         14    1    1    2    0    0  0.51892434091E-02  0.91860008331E-03  0.15652429196E-01  0.16515768617E-01  0.00000000000E+00 0.  1.
     999901    1    3    3    0    0 -0.65932604810E-01  0.23106292175E-01  0.99552791448E-01  0.88836465902E+00  0.88000000000E+00 0. -1.
        -11    1    4    4    0    0  0.29927193905E-01 -0.55193465054E-02 -0.17885320480E-01  0.35302208578E-01  0.51100000000E-03 0. -1.
         11    1    4    4    0    0  0.30816167497E-01 -0.18505545753E-01 -0.97319900164E-01  0.10374736378E+00  0.51100000000E-03 0.  1.
</event>
<event>
 8    1  0.2877139E+004  0.1043930E+01  0.7957747E-01            NaN
         13   -1    0    0    0    0  0.00000000000E+00  0.00000000000E+00  0.74505805969E-08  0.10566000000E+00  0.10566000000E+00 0.  1.
     999900   -1    0    0    0    0 -0.00000000000E+00 -0.00000000000E+00 -0.74505805969E-08  0.93827000000E+00  0.93827000000E+00 0. -1.
     999902    2    1    2    0    0  0.62225236964E-02 -0.21863157850E-01 -0.39996206897E-02  0.10208493926E+01  0.10205884420E+01 0.  0.
     999903    2    3    3    0    0 -0.45322552591E-01  0.85097280282E-02 -0.11519348162E+00  0.13183674826E+00  0.44551551499E-01 0.  0.
         14    1    1    2    0    0 -0.62225236964E-02  0.21863157850E-01  0.39996206897E-02  0.23080607401E-01  0.00000000000E+00 0. -1.
     999901    1    3    3    0    0  0.51545076287E-01 -0.30372885878E-01  0.11119386093E+00  0.88901264434E+00  0.88000000000E+00 0.  1.
        -11    1    4    4    0    0 -0.75521851734E-02  0.12952321082E-01 -0.75057737358E-01  0.76542296677E-01  0.51100000000E-03 0.  1.
         11    1    4    4    0    0 -0.37770367417E-01 -0.44425930539E-02 -0.40135744257E-01  0.55294451584E-01  0.51100000000E-03 0. -1.
</event>
<event>
 8    1  0.2877139E+004  0.1043930E+01  0.7957747E-01            NaN
         13   -1    0    0    0    0  0.00000000000E+00  0.00000000000E+00  0.74505805969E-08  0.10566000000E+00  0.10566000000E+00 0.  1.
     999900   -1    0    0    0    0 -0.00000000000E+00 -0.00000000000E+00 -0.74505805969E-08  0.93827000000E+00  0.93827000000E+00 0. -1.
     999902    2    1    2    0    0 -0.14442965271E-02  0.80259014159E-02 -0.11540768887E-01  0.10297988135E+01  0.10297018529E+01 0.  0.
     999903    2    3    3    0    0  0.81577308420E-01  0.95319119445E-02  0.10089431624E+00  0.13876766738E+00  0.48281340761E-01 0.  0.
         14    1    1    2    0    0  0.14442965271E-02 -0.80259014159E-02  0.11540768887E-01  0.14131186521E-01  0.00000000000E+00 0. -1.
     999901    1    3    3    0    0 -0.83021604947E-01 -0.15060105285E-02 -0.11243508513E+00  0.89103114610E+00  0.88000000000E+00 0. -1.
        -11    1    4    4    0    0  0.16504303226E-01  0.97858940024E-02  0.59066524276E-03  0.19203274534E-01  0.51100000000E-03 0.  1.
         11    1    4    4    0    0  0.65073005194E-01 -0.25398205789E-03  0.10030365100E+00  0.11956439284E+00  0.51100000000E-03 0. -1.
</event>
<event>
 8    1  0.2877139E+004  0.1043930E+01  0.7957747E-01            NaN
         13   -1    0    0    0    0  0.00000000000E+00  0.00000000000E+00  0.74505805969E-08  0.10566000000E+00  0.10566000000E+00 0. -1.
     999900   -1    0    0    0    0 -0.00000000000E+00 -0.00000000000E+00 -0.74505805969E-08  0.93827000000E+00  0.93827000000E+00 0.  1.
     999902    2    1    2    0    0  0.11645154926E-01 -0.94573511947E-02 -0.88974030297E-03  0.10289019342E+01  0.10287921789E+01 0.  0.
     999903    2    3    3    0    0  0.77237258108E-01 -0.16156808425E-01 -0.10654127432E+00  0.14013343036E+00  0.45383903224E-01 0.  0.
         14    1    1    2    0    0 -0.11645154926E-01  0.94573511947E-02  0.88974030297E-03  0.15028065833E-01  0.00000000000E+00 0. -1.
     999901    1    3    3    0    0 -0.65592103182E-01  0.66994572302E-02  0.10565153401E+00  0.88876850381E+00  0.88000000000E+00 0. -1.
        -11    1    4    4    0    0  0.32767279142E-01  0.11872744349E-01 -0.24166303660E-01  0.42413771281E-01  0.51100000000E-03 0. -1.
         11    1    4    4    0    0  0.44469978966E-01 -0.28029552774E-01 -0.82374970657E-01  0.97719659075E-01  0.51100000000E-03 0.  1.
</event>
<event>
 8    1  0.2877139E+004  0.1043930E+01  0.7957747E-01            NaN
         13   -1    0    0    0    0  0.00000000000E+00  0.00000000000E+00  0.74505805969E-08  0.10566000000E+00  0.10566000000E+00 0. -1.
     999900   -1    0    0    0    0 -0.00000000000E+00 -0.00000000000E+00 -0.74505805969E-08  0.93827000000E+00  0.93827000000E+00 0.  1.
     999902    2    1    2    0    0 -0.94485562306E-02  0.98135391764E-02  0.51313776011E-02  0.10293728093E+01  0.10292698716E+01 0.  0.
     999903    2    3    3    0    0 -0.10030037557E+00  0.83291175544E-01  0.31205738144E-01  0.14126645955E+00  0.44551422399E-01 0.  0.
         14    1    1    2    0    0  0.94485562306E-02 -0.98135391764E-02 -0.51313776011E-02  0.14557190735E-01  0.00000000000E+00 0. -1.
     999901    1    3    3    0    0  0.90851819341E-01 -0.73477636367E-01 -0.26074360543E-01  0.88810634971E+00  0.88000000000E+00 0.  1.
        -11    1    4    4    0    0 -0.12484676074E-01  0.27832566450E-01  0.20711366378E-01  0.36874662169E-01  0.51100000000E-03 0.  1.
         11    1    4    4    0    0 -0.87815699498E-01  0.55458609094E-01  0.10494371767E-01  0.10439179738E+00  0.51100000000E-03 0. -1.
</event>
<event>
 8    1  0.2877139E+004  0.1043930E+01  0.7957747E-01            NaN
         13   -1    0    0    0    0  0.00000000000E+00  0.00000000000E+00  0.74505805969E-08  0.10566000000E+00  0.10566000000E+00 0.  1.
     999900   -1    0    0    0    0 -0.00000000000E+00 -0.00000000000E+00 -0.74505805969E-08  0.93827000000E+00  0.93827000000E+00 0. -1.
     999902    2    1    2    0    0  0.22647850298E-02  0.12817989140E-01  0.57277378738E-02  0.10297089917E+01  0.10296107859E+01 0.  0.
     999903    2    3    3    0    0  0.10531066490E-02 -0.12745304902E+00  0.28063588626E-01  0.13831888485E+00  0.45816592633E-01 0.  0.
         14    1    1    2    0    0 -0.22647850298E-02 -0.12817989140E-01 -0.57277378738E-02  0.14221008332E-01  0.00000000000E+00 0.  1.
     999901    1    3    3    0    0  0.12116783808E-02  0.14027103816E+00 -0.22335850752E-01  0.89139010682E+00  0.88000000000E+00 0. -1.
        -11    1    4    4    0    0 -0.20813528113E-01 -0.39253747626E-01  0.12155421342E-01  0.46065985762E-01  0.51100000000E-03 0.  1.
         11    1    4    4    0    0  0.21866634762E-01 -0.88199301394E-01  0.15908167284E-01  0.92252899085E-01  0.51100000000E-03 0. -1.
</event>
<event>
 8    1  0.2877139E+004  0.1043930E+01  0.7957747E-01            NaN
         13   -1    0    0    0    0  0.00000000000E+00  0.00000000000E+00  0.74505805969E-08  0.10566000000E+00  0.10566000000E+00 0.  1.
     999900   -1    0    0    0    0 -0.00000000000E+00 -0.00000000000E+00 -0.74505805969E-08  0.93827000000E+00  0.93827000000E+00 0.  1.
     999902    2    1    2    0    0  0.95627725594E-02 -0.93536269512E-03 -0.10888644658E-01  0.10294081508E+01  0.10293057159E+01 0.  0.
     999903    2    3    3    0    0 -0.34687298283E-01 -0.12237540002E+00  0.27795316662E-01  0.13912606048E+00  0.49036046801E-01 0.  0.
         14    1    1    2    0    0 -0.95627725594E-02  0.93536269512E-03  0.10888644658E-01  0.14521849224E-01  0.00000000000E+00 0. -1.
     999901    1    3    3    0    0  0.44250070843E-01  0.12144003732E+00 -0.38683961320E-01  0.89028209029E+00  0.88000000000E+00 0. -1.
        -11    1    4    4    0    0  0.34416424827E-02 -0.12321491243E-01 -0.10458591497E-01  0.16532008545E-01  0.51100000000E-03 0.  1.
         11    1    4    4    0    0 -0.38128940766E-01 -0.11005390877E+00  0.38253908159E-01  0.12259405194E+00  0.51100000000E-03 0. -1.
</event>
<event>
 8    1  0.2877139E+004  0.1043930E+01  0.7957747E-01            NaN
         13   -1    0    0    0    0  0.00000000000E+00  0.00000000000E+00  0.74505805969E-08  0.10566000000E+00  0.10566000000E+00 0. -1.
     999900   -1    0    0    0    0 -0.00000000000E+00 -0.00000000000E+00 -0.74505805969E-08  0.93827000000E+00  0.93827000000E+00 0. -1.
     999902    2    1    2    0    0 -0.11067111272E-01  0.73245554910E-02 -0.10562589762E-01  0.10269683265E+01  0.10268282453E+01 0.  0.
     999903    2    3    3    0    0  0.70478462987E-01  0.54394738359E-01 -0.95064097007E-01  0.13792064077E+00  0.45375316028E-01 0.  0.
         14    1    1    2    0    0  0.11067111272E-01 -0.73245554910E-02  0.10562589762E-01  0.16961673488E-01  0.00000000000E+00 0. -1.
     999901    1    3    3    0    0 -0.81545574259E-01 -0.47070182868E-01  0.84501507245E-01  0.88904768574E+00  0.88000000000E+00 0. -1.
        -11    1    4    4    0    0  0.52318498623E-01  0.54898482958E-01 -0.92424340130E-01  0.11955579659E+00  0.51100000000E-03 0. -1.
         11    1    4    4    0    0  0.18159964364E-01 -0.50374459933E-03 -0.26397568765E-02  0.18364844178E-01  0.51100000000E-03 0.  1.
</event>
<event>
 8    1  0.2877139E+004  0.1043930E+01  0.7957747E-01            NaN
         13   -1    0    0    0    0  0.00000000000E+00  0.00000000000E+00  0.74505805969E-08  0.10566000000E+00  0.10566000000E+00 0.  1.
     999900   -1    0    0    0    0 -0.00000000000E+00 -0.00000000000E+00 -0.74505805969E-08  0.93827000000E+00  0.93827000000E+00 0.  1.
     999902    2    1    2    0    0  0.10125967116E-01  0.71916460085E-02  0.17964672522E-02  0.10313808057E+01  0.10313044575E+01 0.  0.
     999903    2    3    3    0    0 -0.72604175607E-01 -0.89346379244E-01 -0.65315587028E-01  0.13971500810E+00  0.44721535958E-01 0.  0.
         14    1    1    2    0    0 -0.10125967116E-01 -0.71916460085E-02 -0.17964672522E-02  0.12549194274E-01  0.00000000000E+00 0. -1.
     999901    1    3    3    0    0  0.82730142723E-01  0.96538025253E-01  0.67112054280E-01  0.89166579763E+00  0.88000000000E+00 0. -1.
        -11    1    4    4    0    0  0.25671781843E-02 -0.23286652954E-01 -0.12347489364E-01  0.26487359707E-01  0.51100000000E-03 0.  1.
         11    1    4    4    0    0 -0.75171353792E-01 -0.66059726290E-01 -0.52968097664E-01  0.11322764839E+00  0.51100000000E-03 0. -1.
</event>
<event>
 8    1  0.2877139E+004  0.1043930E+01  0.7957747E-01            NaN
         13   -1    0    0    0    0  0.00000000000E+00  0.00000000000E+00  0.74505805969E-08  0.10566000000E+00  0.10566000000E+00 0.  1.
     999900   -1    0    0    0    0 -0.00000000000E+00 -0.00000000000E+00 -0.74505805969E-08  0.93827000000E+00  0.93827000000E+00 0.  1.
     999902    2    1    2    0    0  0.48842781674E-02 -0.12166550259E-01 -0.42842646000E-02  0.10301373918E+01  0.10300450524E+01 0.  0.
     999903    2    3    3    0    0  0.71068491074E-01 -0.66518554941E-01 -0.92659916735E-01  0.14157408714E+00  0.44518686035E-01 0.  0.
         14    1    1    2    0    0 -0.48842781674E-02  0.12166550259E-01  0.42842646000E-02  0.13792608223E-01  0.00000000000E+00 0. -1.
     999901    1    3    3    0    0 -0.66184212907E-01  0.54352004682E-01  0.88375652135E-01  0.88856330463E+00  0.88000000000E+00 0. -1.
        -11    1    4    4    0    0  0.42813771099E-01 -0.16534489364E-01 -0.59911494243E-01  0.75472224014E-01  0.51100000000E-03 0.  1.
         11    1    4    4    0    0  0.28254719975E-01 -0.49984065577E-01 -0.32748422492E-01  0.66101863129E-01  0.51100000000E-03 0. -1.
</event>
<event>
 8    1  0.2877139E+004  0.1043930E+01  0.7957747E-01            NaN
         13   -1    0    0    0    0  0.00000000000E+00  0.00000000000E+00  0.74505805969E-08  0.10566000000E+00  0.10566000000E+00 0.  1.
     999900   -1    0    0    0    0 -0.00000000000E+00 -0.00000000000E+00 -0.74505805969E-08  0.93827000000E+00  0.93827000000E+00 0.  1.
     999902    2    1    2    0    0  0.81356568073E-03  0.12652033204E-01  0.39362627968E-02  0.10306548353E+01  0.10305693376E+01 0.  0.
     999903    2    3    3    0    0  0.67416343684E-01 -0.11038121206E+00  0.25341963086E-01  0.13934607090E+00  0.45234245991E-01 0.  0.
         14    1    1    2    0    0 -0.81356568073E-03 -0.12652033204E-01 -0.39362627968E-02  0.13275164712E-01  0.00000000000E+00 0. -1.
     999901    1    3    3    0    0 -0.66602778003E-01  0.12303324526E+00 -0.21405700289E-01  0.89130876439E+00  0.88000000000E+00 0.  1.
        -11    1    4    4    0    0  0.34514835925E-03 -0.36427376891E-01  0.13292852105E-01  0.38781876601E-01  0.51100000000E-03 0.  1.
         11    1    4    4    0    0  0.67071195324E-01 -0.73953835165E-01  0.12049110980E-01  0.10056419430E+00  0.51100000000E-03 0. -1.
</event>
<event>
 8    1  0.2877139E+004  0.1043930E+01  0.7957747E-01            NaN
         13   -1    0    0    0    0  0.00000000000E+00  0.00000000000E+00  0.74505805969E-08  0.10566000000E+00  0.10566000000E+00 0.  1.
     999900   -1    0    0    0    0 -0.00000000000E+00 -0.00000000000E+00 -0.74505805969E-08  0.93827000000E+00  0.93827000000E+00 0. -1.
     999902    2    1    2    0    0  0.41445025072E-02  0.12652745376E-01  0.68726253340E-02  0.10289466143E+01  0.10288375155E+01 0.  0.
     999903    2    3    3    0    0 -0.29688803270E-01  0.22138269180E-01  0.12737751611E+00  0.14003936585E+00  0.44882784840E-01 0.  0.
         14    1    1    2    0    0 -0.41445025072E-02 -0.12652745376E-01 -0.68726253340E-02  0.14983385651E-01  0.00000000000E+00 0.  1.
     999901    1    3    3    0    0  0.33833305777E-01 -0.94855238045E-02 -0.12050489077E+00  0.88890724850E+00  0.88000000000E+00 0. -1.
        -11    1    4    4    0    0  0.50489490556E-02  0.22660036645E-01  0.45127303255E-01  0.50751391778E-01  0.51100000000E-03 0.  1.
         11    1    4    4    0    0 -0.34737752326E-01 -0.52176746486E-03  0.82250212852E-01  0.89287974068E-01  0.51100000000E-03 0. -1.
</event>
<event>
 8    1  0.2877139E+004  0.1043930E+01  0.7957747E-01            NaN
         13   -1    0    0    0    0  0.00000000000E+00  0.00000000000E+00  0.74505805969E-08  0.10566000000E+00  0.10566000000E+00 0. -1.
     999900   -1    0    0    0    0 -0.00000000000E+00 -0.00000000000E+00 -0.74505805969E-08  0.93827000000E+00  0.93827000000E+00 0.  1.
     999902    2    1    2    0    0  0.13672553771E-01 -0.27885913810E-02  0.44933074421E-03  0.10299687369E+01  0.10298741099E+01 0.  0.
     999903    2    3    3    0    0 -0.63339756177E-01  0.37863927334E-01 -0.10859311390E+00  0.13897278974E+00  0.45556231158E-01 0.  0.
         14    1    1    2    0    0 -0.13672553771E-01  0.27885913810E-02 -0.44933074421E-03  0.13961263074E-01  0.00000000000E+00 0.  1.
     999901    1    3    3    0    0  0.77012309947E-01 -0.40652518715E-01  0.10904244464E+00  0.89099594718E+00  0.88000000000E+00 0. -1.
        -11    1    4    4    0    0 -0.53334498204E-01  0.21993840823E-01 -0.46483660234E-01  0.74089739658E-01  0.51100000000E-03 0. -1.
         11    1    4    4    0    0 -0.10005257973E-01  0.15870086511E-01 -0.62109453664E-01  0.64883050086E-01  0.51100000000E-03 0.  1.
</event>
<event>
 8    1  0.2877139E+004  0.1043930E+01  0.7957747E-01            NaN
         13   -1    0    0    0    0  0.00000000000E+00  0.00000000000E+00  0.74505805969E-08  0.10566000000E+00  0.10566000000E+00 0.  1.
     999900   -1    0    0    0    0 -0.00000000000E+00 -0.00000000000E+00 -0.74505805969E-08  0.93827000000E+00  0.93827000000E+00 0.  1.
     999902    2    1    2    0    0  0.35474105225E-03 -0.13569616403E-01  0.46391167874E-02  0.10295849055E+01  0.10294849664E+01 0.  0.
     999903    2    3    3    0    0 -0.42768198821E-01 -0.72849652869E-01 -0.10232415181E+00  0.14008231898E+00  0.44906940370E-01 0.  0.
         14    1    1    2    0    0 -0.35474105225E-03  0.13569616403E-01 -0.46391167874E-02  0.14345094461E-01  0.00000000000E+00 0.  1.
     999901    1    3    3    0    0  0.43122939873E-01  0.59280036466E-01  0.10696326860E+00  0.88950258656E+00  0.88000000000E+00 0. -1.
        -11    1    4    4    0    0  0.83763188139E-02 -0.26240896140E-02 -0.92645566447E-02  0.12772693295E-01  0.51100000000E-03 0. -1.
         11    1    4    4    0    0 -0.51144517635E-01 -0.70225563255E-01 -0.93059595166E-01  0.12730962568E+00  0.51100000000E-03 0.  1.
</event>
<event>
 8    1  0.2877139E+004  0.1043930E+01  0.7957747E-01            NaN
         13   -1    0    0    0    0  0.00000000000E+00  0.00000000000E+00  0.74505805969E-08  0.10566000000E+00  0.10566000000E+00 0. -1.
     999900   -1    0    0    0    0 -0.00000000000E+00 -0.00000000000E+00 -0.74505805969E-08  0.93827000000E+00  0.93827000000E+00 0.  1.
     999902    2    1    2    0    0  0.11065092116E-01  0.71323160502E-02  0.49179955102E-02  0.10298767842E+01  0.10297808979E+01 0.  0.
     999903    2    3    3    0    0 -0.62289050928E-01  0.77620203766E-01 -0.86474474939E-01  0.13931406527E+00  0.45008355526E-01 0.  0.
         14    1    1    2    0    0 -0.11065092116E-01 -0.71323160502E-02 -0.49179955102E-02  0.14053215846E-01  0.00000000000E+00 0. -1.
     999901    1    3    3    0    0  0.73354143044E-01 -0.70487887715E-01  0.91392470449E-01  0.89056271889E+00  0.88000000000E+00 0. -1.
        -11    1    4    4    0    0 -0.28354529317E-01  0.51597083517E-01 -0.74394373177E-01  0.94873717338E-01  0.51100000000E-03 0. -1.
         11    1    4    4    0    0 -0.33934521611E-01  0.26023120249E-01 -0.12080101762E-01  0.44440347929E-01  0.51100000000E-03 0.  1.
</event>
<event>
 8    1  0.2877139E+004  0.1043930E+01  0.7957747E-01            NaN
         13   -1    0    0    0    0  0.00000000000E+00  0.00000000000E+00  0.74505805969E-08  0.10566000000E+00  0.10566000000E+00 0. -1.
     999900   -1    0    0    0    0 -0.00000000000E+00 -0.00000000000E+00 -0.74505805969E-08  0.93827000000E+00  0.93827000000E+00 0.  1.
     999902    2    1    2    0    0 -0.93009706207E-02  0.49690065542E-02 -0.83741321742E-02  0.10304642965E+01  0.10303763105E+01 0.  0.
     999903    2    3    3    0    0  0.82153890202E-01 -0.14592331913E-01  0.10114367747E+00  0.13875762493E+00  0.45403052285E-01 0.  0.
         14    1    1    2    0    0  0.93009706207E-02 -0.49690065542E-02  0.83741321742E-02  0.13465703483E-01  0.00000000000E+00 0. -1.
     999901    1    3    3    0    0 -0.91454860822E-01  0.19561338467E-01 -0.10951780965E+00  0.89170667159E+00  0.88000000000E+00 0.  1.
        -11    1    4    4    0    0  0.67032505902E-01 -0.72945834204E-02  0.47329707529E-01  0.82382826673E-01  0.51100000000E-03 0. -1.
         11    1    4    4    0    0  0.15121384299E-01 -0.72977484924E-02  0.53813969942E-01  0.56374798253E-01  0.51100000000E-03 0.  1.
</event>
<event>
 8    1  0.2877139E+004  0.1043930E+01  0.7957747E-01            NaN
         13   -1    0    0    0    0  0.00000000000E+00  0.00000000000E+00  0.74505805969E-08  0.10566000000E+00  0.10566000000E+00 0. -1.
     999900   -1    0    0    0    0 -0.00000000000E+00 -0.00000000000E+00 -0.74505805969E-08  0.93827000000E+00  0.93827000000E+00 0.  1.
     999902    2    1    2    0    0  0.93115561532E-02  0.92791886534E-02  0.80131826143E-03  0.10307599381E+01  0.10306757974E+01 0.  0.
     999903    2    3    3    0    0  0.68891117964E-01  0.89376907356E-01  0.72496554203E-01  0.14221867534E+00  0.47288302382E-01 0.  0.
         14    1    1    2    0    0 -0.93115561532E-02 -0.92791886534E-02 -0.80131826143E-03  0.13170061921E-01  0.00000000000E+00 0. -1.
     999901    1    3    3    0    0 -0.59579561810E-01 -0.80097718703E-01 -0.71695235941E-01  0.88854126274E+00  0.88000000000E+00 0.  1.
        -11    1    4    4    0    0  0.33395024857E-01  0.68558315916E-01  0.27070957717E-01  0.80923224350E-01  0.51100000000E-03 0. -1.
         11    1    4    4    0    0  0.35496093107E-01  0.20818591440E-01  0.45425596485E-01  0.61295450993E-01  0.51100000000E-03 0.  1.
</event>
<event>
 8    1  0.2877139E+004  0.1043930E+01  0.7957747E-01            NaN
         13   -1    0    0    0    0  0.00000000000E+00  0.00000000000E+00  0.74505805969E-08  0.10566000000E+00  0.10566000000E+00 0. -1.
     999900   -1    0    0    0    0 -0.00000000000E+00 -0.00000000000E+00 -0.74505805969E-08  0.93827000000E+00  0.93827000000E+00 0.  1.
     999902    2    1    2    0    0 -0.69715925752E-02 -0.56980208903E-02  0.68677316994E-02  0.10326058539E+01  0.10325437586E+01 0.  0.
     999903    2    3    3    0    0  0.11754611583E+00  0.19107635350E-01 -0.60222684859E-01  0.14096629433E+00  0.45415121821E-01 0.  0.
         14    1    1    2    0    0  0.69715925752E-02  0.56980208903E-02 -0.68677316994E-02  0.11324146052E-01  0.00000000000E+00 0.  1.
     999901    1    3    3    0    0 -0.12451770840E+00 -0.24805656241E-01  0.67090416559E-01  0.89163955962E+00  0.88000000000E+00 0.  1.
        -11    1    4    4    0    0  0.38394515169E-01  0.14336573145E-01  0.66070386478E-03  0.40992362401E-01  0.51100000000E-03 0. -1.
         11    1    4    4    0    0  0.79151600658E-01  0.47710622052E-02 -0.60883388724E-01  0.99973931926E-01  0.51100000000E-03 0.  1.
</event>
<event>
 8    1  0.2877139E+004  0.1043930E+01  0.7957747E-01            NaN
         13   -1    0    0    0    0  0.00000000000E+00  0.00000000000E+00  0.74505805969E-08  0.10566000000E+00  0.10566000000E+00 0. -1.
     999900   -1    0    0    0    0 -0.00000000000E+00 -0.00000000000E+00 -0.74505805969E-08  0.93827000000E+00  0.93827000000E+00 0.  1.
     999902    2    1    2    0    0 -0.17960977342E-02 -0.13961693646E-01 -0.17652111812E-02  0.10297430050E+01  0.10296452717E+01 0.  0.
     999903    2    3    3    0    0 -0.19149704417E-02  0.12621507185E+00 -0.33976926892E-01  0.13806641882E+00  0.44429640665E-01 0.  0.
         14    1    1    2    0    0  0.17960977342E-02  0.13961693646E-01  0.17652111812E-02  0.14186994997E-01  0.00000000000E+00 0. -1.
     999901    1    3    3    0    0  0.11887270752E-03 -0.14017676550E+00  0.32211715711E-01  0.89167658618E+00  0.88000000000E+00 0. -1.
        -11    1    4    4    0    0 -0.20641569362E-01  0.77692067085E-01 -0.30346474771E-01  0.85926138781E-01  0.51100000000E-03 0.  1.
         11    1    4    4    0    0  0.18726598921E-01  0.48523004770E-01 -0.36304521213E-02  0.52140280040E-01  0.51100000000E-03 0. -1.
</event>
<event>
 8    1  0.2877139E+004  0.1043930E+01  0.7957747E-01            NaN
         13   -1    0    0    0    0  0.00000000000E+00  0.00000000000E+00  0.74505805969E-08  0.10566000000E+00  0.10566000000E+00 0.  1.
     999900   -1    0    0    0    0 -0.00000000000E+00 -0.00000000000E+00 -0.74505805969E-08  0.93827000000E+00  0.93827000000E+00 0.  1.
     999902    2    1    2    0    0  0.24516756476E-02  0.10903101476E-01  0.93238677040E-02  0.10293758650E+01  0.10292729709E+01 0.  0.
     999903    2    3    3    0    0  0.20642815417E-01  0.98931742418E-01 -0.85505563403E-01  0.13972841791E+00  0.44712569963E-01 0.  0.
         14    1    1    2    0    0 -0.24516756476E-02 -0.10903101476E-01 -0.93238677040E-02  0.14554134953E-01  0.00000000000E+00 0.  1.
     999901    1    3    3    0    0 -0.18191139769E-01 -0.88028640942E-01  0.94829431107E-01  0.88964744714E+00  0.88000000000E+00 0. -1.
        -11    1    4    4    0    0  0.23050497671E-01  0.10169183283E+00 -0.86939622957E-01  0.13576197357E+00  0.51100000000E-03 0.  1.
         11    1    4    4    0    0 -0.24076822541E-02 -0.27600904097E-02  0.14340595535E-02  0.39664443409E-02  0.51100000000E-03 0. -1.
</event>
<event>
 8    1  0.2877139E+004  0.1043930E+01  0.7957747E-01            NaN
         13   -1    0    0    0    0  0.00000000000E+00  0.00000000000E+00  0.74505805969E-08  0.10566000000E+00  0.10566000000E+00 0.  1.
     999900   -1    0    0    0    0 -0.00000000000E+00 -0.00000000000E+00 -0.74505805969E-08  0.93827000000E+00  0.93827000000E+00 0.  1.
     999902    2    1    2    0    0 -0.18749889562E-02 -0.20338238107E-02  0.13686900708E-01  0.10299663589E+01  0.10298716993E+01 0.  0.
     999903    2    3    3    0    0 -0.87036017174E-02 -0.68551513458E-02 -0.13020452018E+00  0.13824071935E+00  0.45105804821E-01 0.  0.
         14    1    1    2    0    0  0.18749889562E-02  0.20338238107E-02 -0.13686900708E-01  0.13963641140E-01  0.00000000000E+00 0. -1.
     999901    1    3    3    0    0  0.68286127612E-02  0.48213275351E-02  0.14389142089E+00  0.89172563951E+00  0.88000000000E+00 0. -1.
        -11    1    4    4    0    0 -0.60463148763E-02  0.16670669267E-01 -0.88690448645E-01  0.90447365574E-01  0.51100000000E-03 0.  1.
         11    1    4    4    0    0 -0.26572868412E-02 -0.23525820613E-01 -0.41514071536E-01  0.47793353778E-01  0.51100000000E-03 0. -1.
</event>
<event>
 7    1  0.2877139E+004  0.1043930E+01  0.7957747E-01            NaN
         13   -1    0    0    0    0  0.00000000000E+00  0.00000000000E+00  0.74505805969E-08  0.10566000000E+00  0.10566000000E+00 0. -1.
     999900   -1    0    0    0    0 -0.00000000000E+00 -0.00000000000E+00 -0.74505805969E-08  0.93827000000E+00  0.93827000000E+00 0. -1.
     999903    2    1    2    0    0 -0.16113570739E-01  0.89447262817E-01  0.16588380666E-01  0.10336395148E+00  0.46351613832E-01 0.  0.
         14    1    1    2    0    0 -0.12847744722E-01 -0.42329087356E-01 -0.38373643825E-01  0.58560675553E-01  0.00000000000E+00 0.  1.
     999901    1    1    2    0    0  0.28961315462E-01 -0.47118175461E-01  0.21785263160E-01  0.88200537297E+00  0.88000000000E+00 0.  1.
        -11    1    3    3    0    0  0.35273294095E-02  0.11181443576E-01  0.19340670042E-01  0.22622762251E-01  0.51100000000E-03 0. -1.
         11    1    3    3    0    0 -0.19640900149E-01  0.78265819242E-01 -0.27522893759E-02  0.80741189228E-01  0.51100000000E-03 0.  1.
</event>
<event>
 8    1  0.2877139E+004  0.1043930E+01  0.7957747E-01            NaN
         13   -1    0    0    0    0  0.00000000000E+00  0.00000000000E+00  0.74505805969E-08  0.10566000000E+00  0.10566000000E+00 0.  1.
     999900   -1    0    0    0    0 -0.00000000000E+00 -0.00000000000E+00 -0.74505805969E-08  0.93827000000E+00  0.93827000000E+00 0.  1.
     999902    2    1    2    0    0  0.55878944508E-02  0.63225337316E-02  0.10959546866E-01  0.10300984902E+01  0.10300056256E+01 0.  0.
     999903    2    3    3    0    0  0.12897406707E+00 -0.57152579602E-02 -0.31403681129E-01  0.14039983380E+00  0.45375632151E-01 0.  0.
         14    1    1    2    0    0 -0.55878944508E-02 -0.63225337316E-02 -0.10959546866E-01  0.13831509849E-01  0.00000000000E+00 0.  1.
     999901    1    3    3    0    0 -0.12338617262E+00  0.12037791692E-01  0.42363227995E-01  0.88969865635E+00  0.88000000000E+00 0. -1.
        -11    1    4    4    0    0  0.27137441054E-01 -0.43690650722E-02  0.11609688762E-01  0.29842510463E-01  0.51100000000E-03 0.  1.
         11    1    4    4    0    0  0.10183662602E+00 -0.13461928881E-02 -0.43013369891E-01  0.11055732334E+00  0.51100000000E-03 0. -1.
</event>
<event>
 8    1  0.2877139E+004  0.1043930E+01  0.7957747E-01            NaN
         13   -1    0    0    0    0  0.00000000000E+00  0.00000000000E+00  0.74505805969E-08  0.10566000000E+00  0.10566000000E+00 0.  1.
     999900   -1    0    0    0    0 -0.00000000000E+00 -0.00000000000E+00 -0.74505805969E-08  0.93827000000E+00  0.93827000000E+00 0.  1.
     999902    2    1    2    0    0 -0.88973932007E-02  0.10472499990E-01 -0.18893759426E-02  0.10300589293E+01  0.10299655291E+01 0.  0.
     999903    2    3    3    0    0  0.25323281572E-02  0.12762097093E+00 -0.40662797523E-01  0.14137575682E+00  0.45167650007E-01 0.  0.
         14    1    1    2    0    0  0.88973932007E-02 -0.10472499990E-01  0.18893759426E-02  0.13871070732E-01  0.00000000000E+00 0. -1.
     999901    1    3    3    0    0 -0.11429721358E-01 -0.11714847094E+00  0.38773421580E-01  0.88868317245E+00  0.88000000000E+00 0. -1.
        -11    1    4    4    0    0  0.12804165743E-01  0.46042804238E-01 -0.34455313918E-01  0.58917877258E-01  0.51100000000E-03 0. -1.
         11    1    4    4    0    0 -0.10271837586E-01  0.81578166690E-01 -0.62074836052E-02  0.82457879560E-01  0.51100000000E-03 0.  1.
</event>
<event>
 8    1  0.2877139E+004  0.1043930E+01  0.7957747E-01            NaN
         13   -1    0    0    0    0  0.00000000000E+00  0.00000000000E+00  0.74505805969E-08  0.10566000000E+00  0.10566000000E+00 0. -1.
     999900   -1    0    0    0    0 -0.00000000000E+00 -0.00000000000E+00 -0.74505805969E-08  0.93827000000E+00  0.93827000000E+00 0. -1.
     999902    2    1    2    0    0  0.11544495397E-01 -0.65357196188E-02 -0.45807997655E-02  0.10298952313E+01  0.10297995984E+01 0.  0.
     999903    2    3    3    0    0  0.11168034942E+00  0.34800511758E-01 -0.64127632825E-01  0.14125486617E+00  0.46443598692E-01 0.  0.
         14    1    1    2    0    0 -0.11544495397E-01  0.65357196188E-02  0.45807997655E-02  0.14034768662E-01  0.00000000000E+00 0. -1.
     999901    1    3    3    0    0 -0.10013585402E+00 -0.41336231377E-01  0.59546833059E-01  0.88864036517E+00  0.88000000000E+00 0.  1.
        -11    1    4    4    0    0  0.51423999672E-01  0.18550944433E-01 -0.56094588248E-01  0.78328980801E-01  0.51100000000E-03 0. -1.
         11    1    4    4    0    0  0.60256349745E-01  0.16249567325E-01 -0.80330445771E-02  0.62925885365E-01  0.51100000000E-03 0.  1.
</event>
<event>
 8    1  0.2877139E+004  0.1043930E+01  0.7957747E-01            NaN
         13   -1    0    0    0    0  0.00000000000E+00  0.00000000000E+00  0.74505805969E-08  0.10566000000E+00  0.10566000000E+00 0. -1.
     999900   -1    0    0    0    0 -0.00000000000E+00 -0.00000000000E+00 -0.74505805969E-08  0.93827000000E+00  0.93827000000E+00 0. -1.
     999902    2    1    2    0    0 -0.10065778608E-01 -0.60299515173E-02  0.80387343063E-02  0.10297067281E+01  0.10296084909E+01 0.  0.
     999903    2    3    3    0    0 -0.11837089624E+00  0.36981308976E-01 -0.47054559166E-01  0.14031635373E+00  0.45774024244E-01 0.  0.
         14    1    1    2    0    0  0.10065778608E-01  0.60299515173E-02 -0.80387343063E-02  0.14223271900E-01  0.00000000000E+00 0.  1.
     999901    1    3    3    0    0  0.10830511763E+00 -0.43011260493E-01  0.55093293472E-01  0.88939037437E+00  0.88000000000E+00 0. -1.
        -11    1    4    4    0    0 -0.58521020259E-01  0.33050457277E-01 -0.43848811975E-01  0.80249747483E-01  0.51100000000E-03 0.  1.
         11    1    4    4    0    0 -0.59849875982E-01  0.39308516984E-02 -0.32057471912E-02  0.60066606249E-01  0.51100000000E-03 0. -1.
</event>
<event>
 8    1  0.2877139E+004  0.1043930E+01  0.7957747E-01            NaN
         13   -1    0    0    0    0  0.00000000000E+00  0.00000000000E+00  0.74505805969E-08  0.10566000000E+00  0.10566000000E+00 0.  1.
     999900   -1    0    0    0    0 -0.00000000000E+00 -0.00000000000E+00 -0.74505805969E-08  0.93827000000E+00  0.93827000000E+00 0. -1.
     999902    2    1    2    0    0  0.11639632472E-01  0.23197534925E-02 -0.68508324166E-02  0.10302261244E+01  0.10301349772E+01 0.  0.
     999903    2    3    3    0    0  0.93721158455E-01  0.89028128505E-01  0.33431394253E-01  0.14125009722E+00  0.46089788837E-01 0.  0.
         14    1    1    2    0    0 -0.11639632472E-01 -0.23197534925E-02  0.68508324166E-02  0.13703875552E-01  0.00000000000E+00 0. -1.
     999901    1    3    3    0    0 -0.82081525983E-01 -0.86708375012E-01 -0.40282226670E-01  0.88897602723E+00  0.88000000000E+00 0.  1.
        -11    1    4    4    0    0  0.46299184439E-01  0.19637474435E-01  0.26675120916E-01  0.56930379226E-01  0.51100000000E-03 0. -1.
         11    1    4    4    0    0  0.47421974016E-01  0.69390654070E-01  0.67562733373E-02  0.84319717992E-01  0.51100000000E-03 0.  1.
</event>
<event>
 8    1  0.2877139E+004  0.1043930E+01  0.7957747E-01            NaN
         13   -1    0    0    0    0  0.00000000000E+00  0.00000000000E+00  0.74505805969E-08  0.10566000000E+00  0.10566000000E+00 0. -1.
     999900   -1    0    0    0    0 -0.00000000000E+00 -0.00000000000E+00 -0.74505805969E-08  0.93827000000E+00  0.93827000000E+00 0.  1.
     999902    2    1    2    0    0  0.24364139208E-01  0.69628300753E-02 -0.18685415766E-02  0.10185216602E+01  0.10182046890E+01 0.  0.
     999903    2    3    3    0    0  0.69244771090E-01 -0.54765160113E-01 -0.85720866944E-01  0.13124727857E+00  0.45647782166E-01 0.  0.
         14    1    1    2    0    0 -0.24364139208E-01 -0.69628300753E-02  0.18685415766E-02  0.25408339765E-01  0.00000000000E+00 0.  1.
     999901    1    3    3    0    0 -0.44880631882E-01  0.61727990189E-01  0.83852325367E-01  0.88727438167E+00  0.88000000000E+00 0. -1.
        -11    1    4    4    0    0  0.12732243159E-01 -0.31087496952E-01 -0.50248023901E-01  0.60445574772E-01  0.51100000000E-03 0.  1.
         11    1    4    4    0    0  0.56512527932E-01 -0.23677663162E-01 -0.35472843042E-01  0.70801703797E-01  0.51100000000E-03 0. -1.
</event>
<event>
 8    1  0.2877139E+004  0.1043930E+01  0.7957747E-01            NaN
         13   -1    0    0    0    0  0.00000000000E+00  0.00000000000E+00  0.74505805969E-08  0.10566000000E+00  0.10566000000E+00 0.  1.
     999900   -1    0    0    0    0 -0.00000000000E+00 -0.00000000000E+00 -0.74505805969E-08  0.93827000000E+00  0.93827000000E+00 0. -1.
     999902    2    1    2    0    0  0.10901402453E-01 -0.66994694510E-02  0.77523542494E-02  0.10289693027E+01  0.10288605365E+01 0.  0.
     999903    2    3    3    0    0  0.67326620928E-01 -0.65812311674E-01  0.94276569608E-01  0.14095771878E+00  0.46009484369E-01 0.  0.
         14    1    1    2    0    0 -0.10901402453E-01  0.66994694510E-02 -0.77523542494E-02  0.14960697269E-01  0.00000000000E+00 0. -1.
     999901    1    3    3    0    0 -0.56425218474E-01  0.59112842223E-01 -0.86524215359E-01  0.88801158396E+00  0.88000000000E+00 0. -1.
        -11    1    4    4    0    0  0.47506021061E-01 -0.39947012109E-01  0.88126665337E-01  0.10779218932E+00  0.51100000000E-03 0.  1.
         11    1    4    4    0    0  0.19820599867E-01 -0.25865299565E-01  0.61499042708E-02  0.33165529457E-01  0.51100000000E-03 0. -1.
</event>
<event>
 8    1  0.2877139E+004  0.1043930E+01  0.7957747E-01            NaN
         13   -1    0    0    0    0  0.00000000000E+00  0.00000000000E+00  0.74505805969E-08  0.10566000000E+00  0.10566000000E+00 0. -1.
     999900   -1    0    0    0    0 -0.00000000000E+00 -0.00000000000E+00 -0.74505805969E-08  0.93827000000E+00  0.93827000000E+00 0.  1.
     999902    2    1    2    0    0 -0.64255789312E-02 -0.95014108670E-02  0.56662722340E-02  0.10311365832E+01  0.10310572155E+01 0.  0.
     999903    2    3    3    0    0 -0.33464763656E-01 -0.12756060236E+00 -0.28924812827E-01  0.14216772355E+00  0.44535594101E-01 0.  0.
         14    1    1    2    0    0  0.64255789312E-02  0.95014108670E-02 -0.56662722340E-02  0.12793416826E-01  0.00000000000E+00 0.  1.
     999901    1    3    3    0    0  0.27039184724E-01  0.11805919150E+00  0.34591085061E-01  0.88896885962E+00  0.88000000000E+00 0. -1.
        -11    1    4    4    0    0 -0.30564073864E-01 -0.37368797953E-01 -0.34550914952E-02  0.48402359962E-01  0.51100000000E-03 0.  1.
         11    1    4    4    0    0 -0.29006897912E-02 -0.90191804409E-01 -0.25469721331E-01  0.93765363592E-01  0.51100000000E-03 0. -1.
</event>
<event>
 8    1  0.2877139E+004  0.1043930E+01  0.7957747E-01            NaN
         13   -1    0    0    0    0  0.00000000000E+00  0.00000000000E+00  0.74505805969E-08  0.10566000000E+00  0.10566000000E+00 0.  1.
     999900   -1    0    0    0    0 -0.00000000000E+00 -0.00000000000E+00 -0.74505805969E-08  0.93827000000E+00  0.93827000000E+00 0.  1.
     999902    2    1    2    0    0 -0.92396415683E-02  0.11648700432E-02  0.67125133676E-02  0.10324502032E+01  0.10323863794E+01 0.  0.
     999903    2    3    3    0    0  0.13025626425E+00 -0.18510644551E-01 -0.26997584242E-01  0.14060795018E+00  0.41621962495E-01 0.  0.
         14    1    1    2    0    0  0.92396415683E-02 -0.11648700432E-02 -0.67125133676E-02  0.11479796786E-01  0.00000000000E+00 0. -1.
     999901    1    3    3    0    0 -0.13949590582E+00  0.19675514594E-01  0.33710097609E-01  0.89184225303E+00  0.88000000000E+00 0. -1.
        -11    1    4    4    0    0  0.61236276580E-01 -0.11026999708E-01  0.82133355725E-02  0.62763016930E-01  0.51100000000E-03 0.  1.
         11    1    4    4    0    0  0.69019987668E-01 -0.74836448429E-02 -0.35210919814E-01  0.77844933252E-01  0.51100000000E-03 0. -1.
</event>
<event>
 7    1  0.2877139E+004  0.1043930E+01  0.7957747E-01            NaN
         13   -1    0    0    0    0  0.00000000000E+00  0.00000000000E+00  0.74505805969E-08  0.10566000000E+00  0.10566000000E+00 0.  1.
     999900   -1    0    0    0    0 -0.00000000000E+00 -0.00000000000E+00 -0.74505805969E-08  0.93827000000E+00  0.93827000000E+00 0.  1.
     999902    2    1    2    0    0  0.23967611462E-02 -0.94603627149E-02  0.10320622269E-01  0.10297258397E+01  0.10296278681E+01 0.  0.
         14    1    1    2    0    0 -0.23967611462E-02  0.94603627149E-02 -0.10320622269E-01  0.14204160331E-01  0.00000000000E+00 0. -1.
     999901    1    3    3    0    0  0.29032055298E-01 -0.41599747843E-01  0.80617894192E-01  0.88513990087E+00  0.88000000000E+00 0. -1.
        -11    1    3    3    0    0 -0.72787164008E-02  0.62206753560E-02 -0.10012392484E+00  0.10058199620E+00  0.51100000000E-03 0. -1.
         11    1    3    3    0    0 -0.19356577751E-01  0.25918709772E-01  0.29826652915E-01  0.44003942592E-01  0.51100000000E-03 0.  1.
</event>
<event>
 8    1  0.2877139E+004  0.1043930E+01  0.7957747E-01            NaN
         13   -1    0    0    0    0  0.00000000000E+00  0.00000000000E+00  0.74505805969E-08  0.10566000000E+00  0.10566000000E+00 0.  1.
     999900   -1    0    0    0    0 -0.00000000000E+00 -0.00000000000E+00 -0.74505805969E-08  0.93827000000E+00  0.93827000000E+00 0. -1.
     999902    2    1    2    0    0 -0.75821880521E-03  0.11085608256E-01  0.77507689047E-02  0.10303823056E+01  0.10302932377E+01 0.  0.
     999903    2    3    3    0    0  0.85503123820E-01 -0.97031630075E-01  0.29259412596E-01  0.13931946927E+00  0.42753711817E-01 0.  0.
         14    1    1    2    0    0  0.75821880521E-03 -0.11085608256E-01 -0.77507689047E-02  0.13547694445E-01  0.00000000000E+00 0.  1.
     999901    1    3    3    0    0 -0.86261342625E-01  0.10811723833E+00 -0.21508643691E-01  0.89106283629E+00  0.88000000000E+00 0. -1.
        -11    1    4    4    0    0  0.52402190351E-01 -0.74654723435E-01  0.37328739499E-01  0.98554620381E-01  0.51100000000E-03 0.  1.
         11    1    4    4    0    0  0.33100933468E-01 -0.22376906640E-01 -0.80693269032E-02  0.40764848888E-01  0.51100000000E-03 0. -1.
</event>
<event>
 8    1  0.2877139E+004  0.1043930E+01  0.7957747E-01            NaN
         13   -1    0    0    0    0  0.00000000000E+00  0.00000000000E+00  0.74505805969E-08  0.10566000000E+00  0.10566000000E+00 0. -1.
     999900   -1    0    0    0    0 -0.00000000000E+00 -0.00000000000E+00 -0.74505805969E-08  0.93827000000E+00  0.93827000000E+00 0.  1.
     999902    2    1    2    0    0  0.18701336806E-01 -0.93340365890E-02 -0.26685402829E-02  0.10228590403E+01  0.10226419857E+01 0.  0.
     999903    2    3    3    0    0  0.51867395451E-02  0.54032482864E-01 -0.11300074053E+00  0.13360589602E+00  0.46205590766E-01 0.  0.
         14    1    1    2    0    0 -0.18701336806E-01  0.93340365890E-02  0.26685402829E-02  0.21070959746E-01  0.00000000000E+00 0.  1.
     999901    1    3    3    0    0  0.13514597261E-01 -0.63366519453E-01  0.11033220025E+00  0.88925314424E+00  0.88000000000E+00 0. -1.
        -11    1    4    4    0    0  0.99439679459E-02  0.28279352309E-02 -0.55522400289E-01  0.56479002922E-01  0.51100000000E-03 0.  1.
         11    1    4    4    0    0 -0.47572284008E-02  0.51204547633E-01 -0.57478340241E-01  0.77126893093E-01  0.51100000000E-03 0. -1.
</event>
<event>
 8    1  0.2877139E+004  0.1043930E+01  0.7957747E-01            NaN
         13   -1    0    0    0    0  0.00000000000E+00  0.00000000000E+00  0.74505805969E-08  0.10566000000E+00  0.10566000000E+00 0. -1.
     999900   -1    0    0    0    0 -0.00000000000E+00 -0.00000000000E+00 -0.74505805969E-08  0.93827000000E+00  0.93827000000E+00 0. -1.
     999902    2    1    2    0    0 -0.94849506883E-02  0.96452728874E-02 -0.54069653979E-02  0.10293618548E+01  0.10292587611E+01 0.  0.
     999903    2    3    3    0    0  0.23601235285E-01 -0.11894753773E+00 -0.51503349399E-01  0.13820772493E+00  0.41752187867E-01 0.  0.
         14    1    1    2    0    0  0.94849506883E-02 -0.96452728874E-02  0.54069653979E-02  0.14568145162E-01  0.00000000000E+00 0.  1.
     999901    1    3    3    0    0 -0.33086185974E-01  0.12859281061E+00  0.46096384001E-01  0.89115412991E+00  0.88000000000E+00 0.  1.
        -11    1    4    4    0    0  0.29320862247E-01 -0.94956866391E-01 -0.54522070508E-01  0.11335535599E+00  0.51100000000E-03 0.  1.
         11    1    4    4    0    0 -0.57196269620E-02 -0.23990671335E-01  0.30187211083E-02  0.24852368938E-01  0.51100000000E-03 0. -1.
</event>
<event>
 8    1  0.2877139E+004  0.1043930E+01  0.7957747E-01            NaN
         13   -1    0    0    0    0  0.00000000000E+00  0.00000000000E+00  0.74505805969E-08  0.10566000000E+00  0.10566000000E+00 0.  1.
     999900   -1    0    0    0    0 -0.00000000000E+00 -0.00000000000E+00 -0.74505805969E-08  0.93827000000E+00  0.93827000000E+00 0. -1.
     999902    2    1    2    0    0  0.44862158317E-02 -0.13131149542E-01  0.16787635864E-02  0.10299524656E+01  0.10298576163E+01 0.  0.
     999903    2    3    3    0    0 -0.69152187815E-01  0.31996928074E-01 -0.10692200105E+00  0.13908026154E+00  0.45882200877E-01 0.  0.
         14    1    1    2    0    0 -0.44862158317E-02  0.13131149542E-01 -0.16787635864E-02  0.13977534402E-01  0.00000000000E+00 0. -1.
     999901    1    3    3    0    0  0.73638403647E-01 -0.45128077616E-01  0.10860076463E+00  0.89087220406E+00  0.88000000000E+00 0.  1.
        -11    1    4    4    0    0 -0.52545867392E-01  0.15714758129E-01 -0.39040398402E-01  0.67323366163E-01  0.51100000000E-03 0. -1.
         11    1    4    4    0    0 -0.16606320422E-01  0.16282169946E-01 -0.67881602643E-01  0.71756895380E-01  0.51100000000E-03 0.  1.
</event>
<event>
 8    1  0.2877139E+004  0.1043930E+01  0.7957747E-01            NaN
         13   -1    0    0    0    0  0.00000000000E+00  0.00000000000E+00  0.74505805969E-08  0.10566000000E+00  0.10566000000E+00 0. -1.
     999900   -1    0    0    0    0 -0.00000000000E+00 -0.00000000000E+00 -0.74505805969E-08  0.93827000000E+00  0.93827000000E+00 0.  1.
     999902    2    1    2    0    0 -0.57103351743E-02 -0.10581695529E-01 -0.81717245155E-02  0.10293918677E+01  0.10292892014E+01 0.  0.
     999903    2    3    3    0    0 -0.13167768385E+00 -0.65735517404E-02 -0.16094780951E-01  0.14037746236E+00  0.45437495053E-01 0.  0.
         14    1    1    2    0    0  0.57103351743E-02  0.10581695529E-01  0.81717245155E-02  0.14538132261E-01  0.00000000000E+00 0. -1.
     999901    1    3    3    0    0  0.12596734868E+00 -0.40081437889E-02  0.79230564353E-02  0.88901440538E+00  0.88000000000E+00 0.  1.
        -11    1    4    4    0    0 -0.13058221569E-01 -0.62070473868E-03 -0.17190333667E-01  0.21602572011E-01  0.51100000000E-03 0. -1.
         11    1    4    4    0    0 -0.11861946229E+00 -0.59528470018E-02  0.10955527159E-02  0.11877489035E+00  0.51100000000E-03 0.  1.
</event>
<event>
 8    1  0.2877139E+004  0.1043930E+01  0.7957747E-01            NaN
         13   -1    0    0    0    0  0.00000000000E+00  0.00000000000E+00  0.74505805969E-08  0.10566000000E+00  0.10566000000E+00 0. -1.
     999900   -1    0    0    0    0 -0.00000000000E+00 -0.00000000000E+00 -0.74505805969E-08  0.93827000000E+00  0.93827000000E+00 0. -1.
     999902    2    1    2    0    0 -0.15060004189E-02 -0.12404218027E-01 -0.15347310327E-01  0.10241392800E+01  0.10239480418E+01 0.  0.
     999903    2    3    3    0    0  0.10156474247E-01  0.86897844400E-01  0.89365132750E-01  0.13230879803E+00  0.43186823841E-01 0.  0.
         14    1    1    2    0    0  0.15060004189E-02  0.12404218027E-01  0.15347310327E-01  0.19790719956E-01  0.00000000000E+00 0.  1.
     999901    1    3    3    0    0 -0.11662474666E-01 -0.99302062427E-01 -0.10471244308E+00  0.89183048202E+00  0.88000000000E+00 0. -1.
        -11    1    4    4    0    0 -0.12409129143E-02  0.61387461728E-02  0.31958910165E-01  0.32570801792E-01  0.51100000000E-03 0. -1.
         11    1    4    4    0    0  0.11397387161E-01  0.80759098227E-01  0.57406222585E-01  0.99737996236E-01  0.51100000000E-03 0.  1.
</event>
<event>
 8    1  0.2877139E+004  0.1043930E+01  0.7957747E-01            NaN
         13   -1    0    0    0    0  0.00000000000E+00  0.00000000000E+00  0.74505805969E-08  0.10566000000E+00  0.10566000000E+00 0.  1.
     999900   -1    0    0    0    0 -0.00000000000E+00 -0.00000000000E+00 -0.74505805969E-08  0.93827000000E+00  0.93827000000E+00 0.  1.
     999902    2    1    2    0    0 -0.11143202742E-01  0.63218034695E-02  0.61056493702E-02  0.10297379205E+01  0.10296401166E+01 0.  0.
     999903    2    3    3    0    0  0.15939357456E-01  0.11985263337E+00  0.55884281188E-01  0.14063689891E+00  0.45132777528E-01 0.  0.
         14    1    1    2    0    0  0.11143202742E-01 -0.63218034695E-02 -0.61056493702E-02  0.14192079505E-01  0.00000000000E+00 0. -1.
     999901    1    3    3    0    0 -0.27082560198E-01 -0.11353082990E+00 -0.49778631818E-01  0.88910102159E+00  0.88000000000E+00 0. -1.
        -11    1    4    4    0    0  0.81938520476E-02  0.12366851807E-01 -0.64023989036E-02  0.16165706534E-01  0.51100000000E-03 0. -1.
         11    1    4    4    0    0  0.77455054083E-02  0.10748578156E+00  0.62286680092E-01  0.12447119237E+00  0.51100000000E-03 0.  1.
</event>
<event>
 8    1  0.2877139E+004  0.1043930E+01  0.7957747E-01            NaN
         13   -1    0    0    0    0  0.00000000000E+00  0.00000000000E+00  0.74505805969E-08  0.10566000000E+00  0.10566000000E+00 0.  1.
     999900   -1    0    0    0    0 -0.00000000000E+00 -0.00000000000E+00 -0.74505805969E-08  0.93827000000E+00  0.93827000000E+00 0. -1.
     999902    2    1    2    0    0  0.53461412264E-03  0.13317720761E-01  0.45092280650E-02  0.10298594408E+01  0.10297633161E+01 0.  0.
     999903    2    3    3    0    0  0.13039201622E+00  0.16739228022E-01 -0.15421348322E-01  0.14009999046E+00  0.45911977680E-01 0.  0.
         14    1    1    2    0    0 -0.53461412264E-03 -0.13317720761E-01 -0.45092280650E-02  0.14070559202E-01  0.00000000000E+00 0. -1.
     999901    1    3    3    0    0 -0.12985740210E+00 -0.34215072615E-02  0.19930576387E-01  0.88975945034E+00  0.88000000000E+00 0.  1.
        -11    1    4    4    0    0  0.81322903158E-01 -0.12261038519E-01 -0.85491770941E-02  0.82686741341E-01  0.51100000000E-03 0.  1.
         11    1    4    4    0    0  0.49069113061E-01  0.29000266541E-01 -0.68721712279E-02  0.57413249119E-01  0.51100000000E-03 0. -1.
</event>
<event>
 8    1  0.2877139E+004  0.1043930E+01  0.7957747E-01            NaN
         13   -1    0    0    0    0  0.00000000000E+00  0.00000000000E+00  0.74505805969E-08  0.10566000000E+00  0.10566000000E+00 0. -1.
     999900   -1    0    0    0    0 -0.00000000000E+00 -0.00000000000E+00 -0.74505805969E-08  0.93827000000E+00  0.93827000000E+00 0.  1.
     999902    2    1    2    0    0 -0.28717323001E-02  0.42264477800E-02 -0.11025715239E-01  0.10317777943E+01  0.10317062279E+01 0.  0.
     999903    2    3    3    0    0 -0.71750439475E-01  0.10243437023E+00 -0.53772658894E-01  0.14261168296E+00  0.42493146554E-01 0.  0.
         14    1    1    2    0    0  0.28717323001E-02 -0.42264477800E-02  0.11025715239E-01  0.12152205717E-01  0.00000000000E+00 0. -1.
     999901    1    3    3    0    0  0.68878707175E-01 -0.98207922445E-01  0.42746943654E-01  0.88916611132E+00  0.88000000000E+00 0.  1.
        -11    1    4    4    0    0 -0.21769168707E-01  0.50729790804E-01 -0.44021096271E-02  0.55380935992E-01  0.51100000000E-03 0.  1.
         11    1    4    4    0    0 -0.49981270769E-01  0.51704579421E-01 -0.49370549267E-01  0.87230746968E-01  0.51100000000E-03 0. -1.
</event>
<event>
 8    1  0.2877139E+004  0.1043930E+01  0.7957747E-01            NaN
         13   -1    0    0    0    0  0.00000000000E+00  0.00000000000E+00  0.74505805969E-08  0.10566000000E+00  0.10566000000E+00 0.  1.
     999900   -1    0    0    0    0 -0.00000000000E+00 -0.00000000000E+00 -0.74505805969E-08  0.93827000000E+00  0.93827000000E+00 0. -1.
     999902    2    1    2    0    0 -0.95603357539E-02 -0.60832977071E-02  0.98806727730E-02  0.10288955654E+01  0.10287857164E+01 0.  0.
     999903    2    3    3    0    0  0.55961672572E-01 -0.77236480060E-01  0.91709451981E-01  0.13982196995E+00  0.45192665875E-01 0.  0.
         14    1    1    2    0    0  0.95603357539E-02  0.60832977071E-02 -0.98806727730E-02  0.15034434647E-01  0.00000000000E+00 0. -1.
     999901    1    3    3    0    0 -0.65522008326E-01  0.71153182353E-01 -0.81828779208E-01  0.88907359540E+00  0.88000000000E+00 0. -1.
        -11    1    4    4    0    0  0.16179398740E-01 -0.14665988291E-01 -0.56644946191E-04  0.21843270950E-01  0.51100000000E-03 0. -1.
         11    1    4    4    0    0  0.39782273832E-01 -0.62570491769E-01  0.91766096928E-01  0.11797869900E+00  0.51100000000E-03 0.  1.
</event>
<event>
 8    1  0.2877139E+004  0.1043930E+01  0.7957747E-01            NaN
         13   -1    0    0    0    0  0.00000000000E+00  0.00000000000E+00  0.74505805969E-08  0.10566000000E+00  0.10566000000E+00 0.  1.
     999900   -1    0    0    0    0 -0.00000000000E+00 -0.00000000000E+00 -0.74505805969E-08  0.93827000000E+00  0.93827000000E+00 0.  1.
     999902    2    1    2    0    0  0.48046804605E-02 -0.12150479850E-01  0.75974942739E-02  0.10288157341E+01  0.10287047067E+01 0.  0.
     999903    2    3    3    0    0  0.10458671549E+00 -0.72094108125E-01  0.38871205056E-01  0.14059969163E+00  0.46058237278E-01 0.  0.
         14    1    1    2    0    0 -0.48046804605E-02  0.12150479850E-01 -0.75974942739E-02  0.15114265915E-01  0.00000000000E+00 0. -1.
     999901    1    3    3    0    0 -0.99782035029E-01  0.59943628275E-01 -0.31273710782E-01  0.88821604245E+00  0.88000000000E+00 0.  1.
        -11    1    4    4    0    0  0.26570958075E-01 -0.40329059010E-01  0.11722141560E-02  0.48312358881E-01  0.51100000000E-03 0. -1.
         11    1    4    4    0    0  0.78015757415E-01 -0.31765049115E-01  0.37698990900E-01  0.92287332750E-01  0.51100000000E-03 0.  1.
</event>
<event>
 8    1  0.2877139E+004  0.1043930E+01  0.7957747E-01            NaN
         13   -1    0    0    0    0  0.00000000000E+00  0.00000000000E+00  0.74505805969E-08  0.10566000000E+00  0.10566000000E+00 0. -1.
     999900   -1    0    0    0    0 -0.00000000000E+00 -0.00000000000E+00 -0.74505805969E-08  0.93827000000E+00  0.93827000000E+00 0.  1.
     999902    2    1    2    0    0  0.11497752544E-01 -0.76857263243E-03  0.81957598040E-02  0.10297892965E+01  0.10296922043E+01 0.  0.
     999903    2    3    3    0    0 -0.10811712848E+00 -0.57090941827E-01  0.48017054006E-01  0.13902239963E+00  0.45529122716E-01 0.  0.
         14    1    1    2    0    0 -0.11497752544E-01  0.76857263243E-03 -0.81957598040E-02  0.14140703526E-01  0.00000000000E+00 0.  1.
     999901    1    3    3    0    0  0.11961488102E+00  0.56322369194E-01 -0.39821294202E-01  0.89076689684E+00  0.88000000000E+00 0. -1.
        -11    1    4    4    0    0 -0.75788582512E-01 -0.33237766889E-01  0.53389896823E-01  0.98485534931E-01  0.51100000000E-03 0. -1.
         11    1    4    4    0    0 -0.32328545967E-01 -0.23853174938E-01 -0.53728428172E-02  0.40536864703E-01  0.51100000000E-03 0.  1.
</event>
<event>
 8    1  0.2877139E+004  0.1043930E+01  0.7957747E-01            NaN
         13   -1    0    0    0    0  0.00000000000E+00  0.00000000000E+00  0.74505805969E-08  0.10566000000E+00  0.10566000000E+00 0. -1.
     999900   -1    0    0    0    0 -0.00000000000E+00 -0.00000000000E+00 -0.74505805969E-08  0.93827000000E+00  0.93827000000E+00 0.  1.
     999902    2    1    2    0    0 -0.92103350329E-03 -0.28974045070E-02  0.14021000687E-01  0.10295831636E+01  0.10294831999E+01 0.  0.
     999903    2    3    3    0    0 -0.11787406428E+00 -0.31406497203E-01 -0.49467810174E-01  0.13912170517E+00  0.45023566156E-01 0.  0.
         14    1    1    2    0    0  0.92103350329E-03  0.28974045070E-02 -0.14021000687E-01  0.14346836441E-01  0.00000000000E+00 0.  1.
     999901    1    3    3    0    0  0.11695303078E+00  0.28509092695E-01  0.63488810861E-01  0.89046145839E+00  0.88000000000E+00 0. -1.
        -11    1    4    4    0    0 -0.57906188673E-01 -0.38545508486E-01 -0.24160559684E-01  0.73640183843E-01  0.51100000000E-03 0.  1.
         11    1    4    4    0    0 -0.59967875606E-01  0.71390112838E-02 -0.25307250489E-01  0.65481521326E-01  0.51100000000E-03 0. -1.
</event>
<event>
 8    1  0.2877139E+004  0.1043930E+01  0.7957747E-01            NaN
         13   -1    0    0    0    0  0.00000000000E+00  0.00000000000E+00  0.74505805969E-08  0.10566000000E+00  0.10566000000E+00 0.  1.
     999900   -1    0    0    0    0 -0.00000000000E+00 -0.00000000000E+00 -0.74505805969E-08  0.93827000000E+00  0.93827000000E+00 0.  1.
     999902    2    1    2    0    0  0.20737384008E-02 -0.12068989349E-01  0.48762435340E-02  0.10307490044E+01  0.10306647231E+01 0.  0.
     999903    2    3    3    0    0  0.44582186572E-01 -0.82364551700E-01 -0.96023695539E-01  0.14118212551E+00  0.44049423635E-01 0.  0.
         14    1    1    2    0    0 -0.20737384008E-02  0.12068989349E-01 -0.48762435340E-02  0.13180995633E-01  0.00000000000E+00 0. -1.
     999901    1    3    3    0    0 -0.42508448171E-01  0.70295562351E-01  0.10089993907E+00  0.88956687886E+00  0.88000000000E+00 0. -1.
        -11    1    4    4    0    0  0.33508743583E-01 -0.36475252499E-01 -0.23940264516E-01  0.55015246318E-01  0.51100000000E-03 0.  1.
         11    1    4    4    0    0  0.11073442989E-01 -0.45889299201E-01 -0.72083431023E-01  0.86166879193E-01  0.51100000000E-03 0. -1.
</event>
<event>
 8    1  0.2877139E+004  0.1043930E+01  0.7957747E-01            NaN
         13   -1    0    0    0    0  0.00000000000E+00  0.00000000000E+00  0.74505805969E-08  0.10566000000E+00  0.10566000000E+00 0.  1.
     999900   -1    0    0    0    0 -0.00000000000E+00 -0.00000000000E+00 -0.74505805969E-08  0.93827000000E+00  0.93827000000E+00 0.  1.
     999902    2    1    2    0    0 -0.69740175924E-03 -0.70175180561E-02  0.12567722895E-01  0.10295189075E+01  0.10294180401E+01 0.  0.
     999903    2    3    3    0    0  0.19942135563E-01 -0.57804464326E-01  0.12074412685E+00  0.14120171256E+00  0.40245926424E-01 0.  0.
         14    1    1    2    0    0  0.69740175924E-03  0.70175180561E-02 -0.12567722895E-01  0.14411092521E-01  0.00000000000E+00 0. -1.
     999901    1    3    3    0    0 -0.20639537322E-01  0.50786946270E-01 -0.10817640396E+00  0.88831719492E+00  0.88000000000E+00 0.  1.
        -11    1    4    4    0    0 -0.10457010859E-01 -0.30581899038E-01  0.56437382793E-01  0.65038764767E-01  0.51100000000E-03 0. -1.
         11    1    4    4    0    0  0.30399146422E-01 -0.27222565288E-01  0.64306744062E-01  0.76162947795E-01  0.51100000000E-03 0.  1.
</event>
<event>
 8    1  0.2877139E+004  0.1043930E+01  0.7957747E-01            NaN
         13   -1    0    0    0    0  0.00000000000E+00  0.00000000000E+00  0.74505805969E-08  0.10566000000E+00  0.10566000000E+00 0. -1.
     999900   -1    0    0    0    0 -0.00000000000E+00 -0.00000000000E+00 -0.74505805969E-08  0.93827000000E+00  0.93827000000E+00 0. -1.
     999902    2    1    2    0    0  0.16573444715E-02  0.34547657149E-02 -0.13388074070E-01  0.10300043860E+01  0.10299102449E+01 0.  0.
     999903    2    3    3    0    0  0.58818625532E-01  0.11914283889E+00 -0.77526186568E-02  0.14057597370E+00  0.45242176308E-01 0.  0.
         14    1    1    2    0    0 -0.16573444715E-02 -0.34547657149E-02  0.13388074070E-01  0.13925613960E-01  0.00000000000E+00 0. -1.
     999901    1    3    3    0    0 -0.57161281060E-01 -0.11568807317E+00 -0.56354554134E-02  0.88942841234E+00  0.88000000000E+00 0. -1.
        -11    1    4    4    0    0  0.33319995045E-01  0.48423513176E-01  0.17398503348E-01  0.61302754733E-01  0.51100000000E-03 0.  1.
         11    1    4    4    0    0  0.25498630486E-01  0.70719325711E-01 -0.25151122004E-01  0.79273218963E-01  0.51100000000E-03 0. -1.
</event>
<event>
 8    1  0.2877139E+004  0.1043930E+01  0.7957747E-01            NaN
         13   -1    0    0    0    0  0.00000000000E+00  0.00000000000E+00  0.74505805969E-08  0.10566000000E+00  0.10566000000E+00 0. -1.
     999900   -1    0    0    0    0 -0.00000000000E+00 -0.00000000000E+00 -0.74505805969E-08  0.93827000000E+00  0.93827000000E+00 0.  1.
     999902    2    1    2    0    0 -0.26313744014E-02  0.32233038787E-02 -0.17008815557E-01  0.10264196138E+01  0.10262702421E+01 0.  0.
     999903    2    3    3    0    0  0.11113389873E+00  0.39820627153E-01 -0.48150392245E-01  0.13779612813E+00  0.52277020376E-01 0.  0.
         14    1    1    2    0    0  0.26313744014E-02 -0.32233038787E-02  0.17008815557E-01  0.17510386226E-01  0.00000000000E+00 0. -1.
     999901    1    3    3    0    0 -0.11376527313E+00 -0.36597323274E-01  0.31141576688E-01  0.88862348565E+00  0.88000000000E+00 0.  1.
        -11    1    4    4    0    0  0.34762468209E-01  0.15797323876E-01  0.92401673961E-02  0.39289011850E-01  0.51100000000E-03 0.  1.
         11    1    4    4    0    0  0.76371430523E-01  0.24023303277E-01 -0.57390559641E-01  0.98507116278E-01  0.51100000000E-03 0. -1.
</event>
<event>
 8    1  0.2877139E+004  0.1043930E+01  0.7957747E-01            NaN
         13   -1    0    0    0    0  0.00000000000E+00  0.00000000000E+00  0.74505805969E-08  0.10566000000E+00  0.10566000000E+00 0. -1.
     999900   -1    0    0    0    0 -0.00000000000E+00 -0.00000000000E+00 -0.74505805969E-08  0.93827000000E+00  0.93827000000E+00 0.  1.
     999902    2    1    2    0    0 -0.67688306782E-02  0.65332054870E-03  0.13777220944E-01  0.10285658953E+01  0.10284511390E+01 0.  0.
     999903    2    3    3    0    0  0.61174458601E-01 -0.15438373866E-01  0.11578950257E+00  0.13992550752E+00  0.46811120198E-01 0.  0.
         14    1    1    2    0    0  0.67688306782E-02 -0.65332054870E-03 -0.13777220944E-01  0.15364104707E-01  0.00000000000E+00 0.  1.
     999901    1    3    3    0    0 -0.67943289279E-01  0.16091694414E-01 -0.10201228163E+00  0.88864038778E+00  0.88000000000E+00 0.  1.
        -11    1    4    4    0    0 -0.48242955530E-02 -0.40736863748E-02  0.32193668903E-01  0.32811007097E-01  0.51100000000E-03 0.  1.
         11    1    4    4    0    0  0.65998754154E-01 -0.11364687491E-01  0.83595833671E-01  0.10711450042E+00  0.51100000000E-03 0. -1.
</event>
<event>
 8    1  0.2877139E+004  0.1043930E+01  0.7957747E-01            NaN
         13   -1    0    0    0    0  0.00000000000E+00  0.00000000000E+00  0.74505805969E-08  0.10566000000E+00  0.10566000000E+00 0. -1.
     999900   -1    0    0    0    0 -0.00000000000E+00 -0.00000000000E+00 -0.74505805969E-08  0.93827000000E+00  0.93827000000E+00 0.  1.
     999902    2    1    2    0    0 -0.97694978668E-02 -0.12180584296E-01  0.65849146172E-02  0.10269838847E+01  0.10268440625E+01 0.  0.
     999903    2    3    3    0    0  0.67281278406E-01 -0.44124858773E-01 -0.10046476443E+00  0.13658122717E+00  0.45689048333E-01 0.  0.
         14    1    1    2    0    0  0.97694978668E-02  0.12180584296E-01 -0.65849146172E-02  0.16946115274E-01  0.00000000000E+00 0.  1.
     999901    1    3    3    0    0 -0.77050776273E-01  0.31944274477E-01  0.10704967905E+00  0.89040265755E+00  0.88000000000E+00 0. -1.
        -11    1    4    4    0    0  0.10471721804E-01 -0.88520991450E-02  0.23615244953E-02  0.13923165436E-01  0.51100000000E-03 0.  1.
         11    1    4    4    0    0  0.56809556602E-01 -0.35272759628E-01 -0.10282628893E+00  0.12265806174E+00  0.51100000000E-03 0. -1.
</event>
<event>
 8    1  0.2877139E+004  0.1043930E+01  0.7957747E-01            NaN
         13   -1    0    0    0    0  0.00000000000E+00  0.00000000000E+00  0.74505805969E-08  0.10566000000E+00  0.10566000000E+00 0.  1.
     999900   -1    0    0    0    0 -0.00000000000E+00 -0.00000000000E+00 -0.74505805969E-08  0.93827000000E+00  0.93827000000E+00 0.  1.
     999902    2    1    2    0    0 -0.29813828667E-02  0.38974452677E-02  0.11760195012E-01  0.10311871232E+01  0.10311083852E+01 0.  0.
     999903    2    3    3    0    0  0.68401348343E-01 -0.87273182359E-01 -0.74454170017E-01  0.13942454579E+00  0.40005346175E-01 0.  0.
         14    1    1    2    0    0  0.29813828667E-02 -0.38974452677E-02 -0.11760195012E-01  0.12742876839E-01  0.00000000000E+00 0. -1.
     999901    1    3    3    0    0 -0.71382731210E-01  0.91170627626E-01  0.86214365029E-01  0.89176257737E+00  0.88000000000E+00 0. -1.
        -11    1    4    4    0    0  0.55275148002E-01 -0.80467574646E-01 -0.47251135357E-01  0.10845876391E+00  0.51100000000E-03 0.  1.
         11    1    4    4    0    0  0.13126200341E-01 -0.68056077127E-02 -0.27203034660E-01  0.30965781880E-01  0.51100000000E-03 0. -1.
</event>
<event>
 8    1  0.2877139E+004  0.1043930E+01  0.7957747E-01            NaN
         13   -1    0    0    0    0  0.00000000000E+00  0.00000000000E+00  0.74505805969E-08  0.10566000000E+00  0.10566000000E+00 0. -1.
     999900   -1    0    0    0    0 -0.00000000000E+00 -0.00000000000E+00 -0.74505805969E-08  0.93827000000E+00  0.93827000000E+00 0. -1.
     999902    2    1    2    0    0  0.12285608128E-01 -0.29294567897E-02 -0.23198264249E-02  0.10310886808E+01  0.10310087139E+01 0.  0.
     999903    2    3    3    0    0  0.97785511453E-01 -0.92848258207E-01  0.82693941482E-02  0.14232113194E+00  0.44767358806E-01 0.  0.
         14    1    1    2    0    0 -0.12285608128E-01  0.29294567897E-02  0.23198264249E-02  0.12841319200E-01  0.00000000000E+00 0.  1.
     999901    1    3    3    0    0 -0.85499903325E-01  0.89918801417E-01 -0.10589220573E-01  0.88876754886E+00  0.88000000000E+00 0.  1.
        -11    1    4    4    0    0  0.10892732522E-01 -0.33946762188E-01  0.10987367423E-01  0.37309752729E-01  0.51100000000E-03 0. -1.
         11    1    4    4    0    0  0.86892778931E-01 -0.58901496019E-01 -0.27179732745E-02  0.10501137921E+00  0.51100000000E-03 0.  1.
</event>
<event>
 8    1  0.2877139E+004  0.1043930E+01  0.7957747E-01            NaN
         13   -1    0    0    0    0  0.00000000000E+00  0.00000000000E+00  0.74505805969E-08  0.10566000000E+00  0.10566000000E+00 0.  1.
     999900   -1    0    0    0    0 -0.00000000000E+00 -0.00000000000E+00 -0.74505805969E-08  0.93827000000E+00  0.93827000000E+00 0. -1.
     999902    2    1    2    0    0  0.45301816651E-03 -0.13461971225E-01  0.21880253978E-02  0.10302838522E+01  0.10301934764E+01 0.  0.
     999903    2    3    3    0    0 -0.30971709348E-01 -0.59493105086E-02  0.13048093225E+00  0.14039452002E+00  0.41118201515E-01 0.  0.
         14    1    1    2    0    0 -0.45301816651E-03  0.13461971225E-01 -0.21880253978E-02  0.13646147803E-01  0.00000000000E+00 0.  1.
     999901    1    3    3    0    0  0.31424727515E-01 -0.75126607163E-02 -0.12829290685E+00  0.88988933218E+00  0.88000000000E+00 0. -1.
        -11    1    4    4    0    0 -0.15835812792E-01  0.14622936318E-01  0.31513317937E-01  0.38183158090E-01  0.51100000000E-03 0.  1.
         11    1    4    4    0    0 -0.15135896556E-01 -0.20572246827E-01  0.98967614314E-01  0.10221136193E+00  0.51100000000E-03 0. -1.
</event>
<event>
 8    1  0.2877139E+004  0.1043930E+01  0.7957747E-01            NaN
         13   -1    0    0    0    0  0.00000000000E+00  0.00000000000E+00  0.74505805969E-08  0.10566000000E+00  0.10566000000E+00 0.  1.
     999900   -1    0    0    0    0 -0.00000000000E+00 -0.00000000000E+00 -0.74505805969E-08  0.93827000000E+00  0.93827000000E+00 0.  1.
     999902    2    1    2    0    0  0.22750601645E-02 -0.10015765093E-01  0.91060809638E-02  0.10302036691E+01  0.10301122209E+01 0.  0.
     999903    2    3    3    0    0  0.85042227872E-01  0.91418162228E-01  0.43718883201E-01  0.13984571203E+00  0.45343373471E-01 0.  0.
         14    1    1    2    0    0 -0.22750601645E-02  0.10015765093E-01 -0.91060809638E-02  0.13726330889E-01  0.00000000000E+00 0. -1.
     999901    1    3    3    0    0 -0.82767167708E-01 -0.10143392732E+00 -0.34612802237E-01  0.89035795708E+00  0.88000000000E+00 0.  1.
        -11    1    4    4    0    0  0.81413059133E-01  0.89019577543E-01  0.51300379153E-01  0.13108989818E+00  0.51100000000E-03 0.  1.
         11    1    4    4    0    0  0.36291687389E-02  0.23985846856E-02 -0.75814959521E-02  0.87558138458E-02  0.51100000000E-03 0. -1.
</event>
<event>
 8    1  0.2877139E+004  0.1043930E+01  0.7957747E-01            NaN
         13   -1    0    0    0    0  0.00000000000E+00  0.00000000000E+00  0.74505805969E-08  0.10566000000E+00  0.10566000000E+00 0.  1.
     999900   -1    0    0    0    0 -0.00000000000E+00 -0.00000000000E+00 -0.74505805969E-08  0.93827000000E+00  0.93827000000E+00 0. -1.
     999902    2    1    2    0    0  0.13954043126E-01 -0.37761719072E-03 -0.41146112094E-02  0.10293770642E+01  0.10292741872E+01 0.  0.
     999903    2    3    3    0    0  0.82539260108E-01  0.43416631699E-02  0.10381043205E+00  0.14012230963E+00  0.45011957923E-01 0.  0.
         14    1    1    2    0    0 -0.13954043126E-01  0.37761719072E-03  0.41146112094E-02  0.14552935777E-01  0.00000000000E+00 0.  1.
     999901    1    3    3    0    0 -0.68585216982E-01 -0.47192803606E-02 -0.10792504326E+00  0.88925475459E+00  0.88000000000E+00 0. -1.
        -11    1    4    4    0    0  0.18769818420E-01 -0.45460858237E-02  0.57912998132E-01  0.61050384548E-01  0.51100000000E-03 0.  1.
         11    1    4    4    0    0  0.63769441688E-01  0.88877489935E-02  0.45897433921E-01  0.79071925087E-01  0.51100000000E-03 0. -1.
</event>
<event>
 8    1  0.2877139E+004  0.1043930E+01  0.7957747E-01            NaN
         13   -1    0    0    0    0  0.00000000000E+00  0.00000000000E+00  0.74505805969E-08  0.10566000000E+00  0.10566000000E+00 0.  1.
     999900   -1    0    0    0    0 -0.00000000000E+00 -0.00000000000E+00 -0.74505805969E-08  0.93827000000E+00  0.93827000000E+00 0.  1.
     999902    2    1    2    0    0 -0.29076484520E-02  0.13265269715E-01  0.18210863833E-03  0.10303485802E+01  0.10302590654E+01 0.  0.
     999903    2    3    3    0    0  0.26917012933E-01  0.62653765461E-01  0.11519159923E+00  0.14099155580E+00  0.44266176265E-01 0.  0.
         14    1    1    2    0    0  0.29076484520E-02 -0.13265269715E-01 -0.18210863833E-03  0.13581419796E-01  0.00000000000E+00 0.  1.
     999901    1    3    3    0    0 -0.29824661385E-01 -0.49388495746E-01 -0.11500949059E+00  0.88935702441E+00  0.88000000000E+00 0.  1.
        -11    1    4    4    0    0  0.51859023045E-02  0.57150700050E-01  0.94034769821E-01  0.11016303897E+00  0.51100000000E-03 0.  1.
         11    1    4    4    0    0  0.21731110628E-01  0.55030654110E-02  0.21156829407E-01  0.30828516825E-01  0.51100000000E-03 0. -1.
</event>
<event>
 8    1  0.2877139E+004  0.1043930E+01  0.7957747E-01            NaN
         13   -1    0    0    0    0  0.00000000000E+00  0.00000000000E+00  0.74505805969E-08  0.10566000000E+00  0.10566000000E+00 0.  1.
     999900   -1    0    0    0    0 -0.00000000000E+00 -0.00000000000E+00 -0.74505805969E-08  0.93827000000E+00  0.93827000000E+00 0.  1.
     999902    2    1    2    0    0 -0.55635659706E-02  0.12440370743E-01  0.78728771576E-02  0.10281915666E+01  0.10280711062E+01 0.  0.
     999903    2    3    3    0    0  0.10982787294E+00 -0.63534138167E-01  0.26049825019E-01  0.13722708270E+00  0.45320309507E-01 0.  0.
         14    1    1    2    0    0  0.55635659706E-02 -0.12440370743E-01 -0.78728771576E-02  0.15738433380E-01  0.00000000000E+00 0. -1.
     999901    1    3    3    0    0 -0.11539143891E+00  0.75974508910E-01 -0.18176947862E-01  0.89096448392E+00  0.88000000000E+00 0.  1.
        -11    1    4    4    0    0  0.79624348999E-01 -0.41704891115E-01 -0.30564928838E-02  0.89938524372E-01  0.51100000000E-03 0.  1.
         11    1    4    4    0    0  0.30203523945E-01 -0.21829247052E-01  0.29106317903E-01  0.47288558325E-01  0.51100000000E-03 0. -1.
</event>
<event>
 8    1  0.2877139E+004  0.1043930E+01  0.7957747E-01            NaN
         13   -1    0    0    0    0  0.00000000000E+00  0.00000000000E+00  0.74505805969E-08  0.10566000000E+00  0.10566000000E+00 0.  1.
     999900   -1    0    0    0    0 -0.00000000000E+00 -0.00000000000E+00 -0.74505805969E-08  0.93827000000E+00  0.93827000000E+00 0.  1.
     999902    2    1    2    0    0  0.10885838518E-01  0.67027219311E-02 -0.71140117377E-02  0.10292999923E+01  0.10291960149E+01 0.  0.
     999903    2    3    3    0    0 -0.12369688287E+00 -0.27369498808E-01 -0.31187349901E-01  0.13809129021E+00  0.45238759289E-01 0.  0.
         14    1    1    2    0    0 -0.10885838518E-01 -0.67027219311E-02  0.71140117377E-02  0.14630007674E-01  0.00000000000E+00 0.  1.
     999901    1    3    3    0    0  0.13458272138E+00  0.34072220739E-01  0.24073338163E-01  0.89120870212E+00  0.88000000000E+00 0. -1.
        -11    1    4    4    0    0 -0.91371566017E-01 -0.37058765677E-01 -0.12165292699E-01  0.99349739091E-01  0.51100000000E-03 0. -1.
         11    1    4    4    0    0 -0.32325316848E-01  0.96892668694E-02 -0.19022057202E-01  0.38741551117E-01  0.51100000000E-03 0.  1.
</event>
<event>
 8    1  0.2877139E+004  0.1043930E+01  0.7957747E-01            NaN
         13   -1    0    0    0    0  0.00000000000E+00  0.00000000000E+00  0.74505805969E-08  0.10566000000E+00  0.10566000000E+00 0. -1.
     999900   -1    0    0    0    0 -0.00000000000E+00 -0.00000000000E+00 -0.74505805969E-08  0.93827000000E+00  0.93827000000E+00 0.  1.
     999902    2    1    2    0    0  0.17575949823E-03  0.21185276944E-02  0.12193231111E-01  0.10315528462E+01  0.10314785895E+01 0.  0.
     999903    2    3    3    0    0 -0.10397087085E+00 -0.46335772955E-01  0.71786284229E-01  0.14208914721E+00  0.45597251117E-01 0.  0.
         14    1    1    2    0    0 -0.17575949823E-03 -0.21185276944E-02 -0.12193231111E-01  0.12377153789E-01  0.00000000000E+00 0.  1.
     999901    1    3    3    0    0  0.10414663035E+00  0.48454300650E-01 -0.59593053118E-01  0.88946369900E+00  0.88000000000E+00 0. -1.
        -11    1    4    4    0    0 -0.50045758345E-01 -0.26916574151E-02  0.14660926159E-01  0.52220942396E-01  0.51100000000E-03 0. -1.
         11    1    4    4    0    0 -0.53925112508E-01 -0.43644115540E-01  0.57125358071E-01  0.89868204811E-01  0.51100000000E-03 0.  1.
</event>
<event>
 8    1  0.2877139E+004  0.1043930E+01  0.7957747E-01            NaN
         13   -1    0    0    0    0  0.00000000000E+00  0.00000000000E+00  0.74505805969E-08  0.10566000000E+00  0.10566000000E+00 0. -1.
     999900   -1    0    0    0    0 -0.00000000000E+00 -0.00000000000E+00 -0.74505805969E-08  0.93827000000E+00  0.93827000000E+00 0. -1.
     999902    2    1    2    0    0  0.25858157122E-02 -0.35869499104E-02  0.13646573186E-01  0.10295849098E+01  0.10294849707E+01 0.  0.
     999903    2    3    3    0    0 -0.49510486981E-01 -0.25630030640E-01  0.12172169751E+00  0.14117050502E+00  0.44774468731E-01 0.  0.
         14    1    1    2    0    0 -0.25858157122E-02  0.35869499104E-02 -0.13646573186E-01  0.14345090181E-01  0.00000000000E+00 0.  1.
     999901    1    3    3    0    0  0.52096302693E-01  0.22043080730E-01 -0.10807512432E+00  0.88841440480E+00  0.88000000000E+00 0. -1.
        -11    1    4    4    0    0 -0.23535228574E-03 -0.21416934715E-01  0.45761033319E-01  0.50527950431E-01  0.51100000000E-03 0.  1.
         11    1    4    4    0    0 -0.49275134695E-01 -0.42130959256E-02  0.75960664192E-01  0.90642554586E-01  0.51100000000E-03 0. -1.
</event>
<event>
 8    1  0.2877139E+004  0.1043930E+01  0.7957747E-01            NaN
         13   -1    0    0    0    0  0.00000000000E+00  0.00000000000E+00  0.74505805969E-08  0.10566000000E+00  0.10566000000E+00 0.  1.
     999900   -1    0    0    0    0 -0.00000000000E+00 -0.00000000000E+00 -0.74505805969E-08  0.93827000000E+00  0.93827000000E+00 0.  1.
     999902    2    1    2    0    0  0.95409036113E-02 -0.81790252549E-02  0.14197268967E-03  0.10313623649E+01  0.10312857908E+01 0.  0.
     999903    2    3    3    0    0  0.11023460404E+00 -0.19313588010E-01  0.74406290260E-01  0.14244257737E+00  0.47211325006E-01 0.  0.
         14    1    1    2    0    0 -0.95409036113E-02  0.81790252549E-02 -0.14197268967E-03  0.12567635103E-01  0.00000000000E+00 0. -1.
     999901    1    3    3    0    0 -0.10069370042E+00  0.11134562755E-01 -0.74264317570E-01  0.88891978753E+00  0.88000000000E+00 0. -1.
        -11    1    4    4    0    0  0.87774423331E-01  0.36932785139E-03  0.69957567662E-01  0.11224441273E+00  0.51100000000E-03 0. -1.
         11    1    4    4    0    0  0.22460180704E-01 -0.19682915861E-01  0.44487225980E-02  0.30198164643E-01  0.51100000000E-03 0.  1.
</event>
<event>
 8    1  0.2877139E+004  0.1043930E+01  0.7957747E-01            NaN
         13   -1    0    0    0    0  0.00000000000E+00  0.00000000000E+00  0.74505805969E-08  0.10566000000E+00  0.10566000000E+00 0.  1.
     999900   -1    0    0    0    0 -0.00000000000E+00 -0.00000000000E+00 -0.74505805969E-08  0.93827000000E+00  0.93827000000E+00 0.  1.
     999902    2    1    2    0    0  0.59463755504E-02 -0.74049749456E-02  0.88475137195E-02  0.10309503415E+01  0.10308686313E+01 0.  0.
     999903    2    3    3    0    0  0.52915870317E-01 -0.92050834069E-01  0.82271042403E-01  0.14260239756E+00  0.47890228530E-01 0.  0.
         14    1    1    2    0    0 -0.59463755504E-02  0.74049749456E-02 -0.88475137195E-02  0.12979658514E-01  0.00000000000E+00 0. -1.
     999901    1    3    3    0    0 -0.46969494767E-01  0.84645859124E-01 -0.73423528684E-01  0.88834794392E+00  0.88000000000E+00 0.  1.
        -11    1    4    4    0    0 -0.50245721067E-02 -0.22108546970E-01  0.30664843348E-01  0.38139584588E-01  0.51100000000E-03 0.  1.
         11    1    4    4    0    0  0.57940442424E-01 -0.69942287099E-01  0.51606199055E-01  0.10446281298E+00  0.51100000000E-03 0. -1.
</event>
<event>
 8    1  0.2877139E+004  0.1043930E+01  0.7957747E-01            NaN
         13   -1    0    0    0    0  0.00000000000E+00  0.00000000000E+00  0.74505805969E-08  0.10566000000E+00  0.10566000000E+00 0. -1.
     999900   -1    0    0    0    0 -0.00000000000E+00 -0.00000000000E+00 -0.74505805969E-08  0.93827000000E+00  0.93827000000E+00 0. -1.
     999902    2    1    2    0    0 -0.11462863409E-01 -0.69266815264E-02  0.40377263097E-03  0.10305307766E+01  0.10304436629E+01 0.  0.
     999903    2    3    3    0    0 -0.68440108055E-01 -0.11404391928E+00  0.20882019838E-01  0.14197021728E+00  0.45049083535E-01 0.  0.
         14    1    1    2    0    0  0.11462863409E-01  0.69266815264E-02 -0.40377263097E-03  0.13399223367E-01  0.00000000000E+00 0.  1.
     999901    1    3    3    0    0  0.56977244646E-01  0.10711723775E+00 -0.20478247207E-01  0.88856055935E+00  0.88000000000E+00 0. -1.
        -11    1    4    4    0    0 -0.55921538671E-02 -0.44233927107E-01 -0.40830196234E-02  0.44775491761E-01  0.51100000000E-03 0.  1.
         11    1    4    4    0    0 -0.62847954188E-01 -0.69809992168E-01  0.24965039462E-01  0.97194725518E-01  0.51100000000E-03 0. -1.
</event>
<event>
 8    1  0.2877139E+004  0.1043930E+01  0.7957747E-01            NaN
         13   -1    0    0    0    0  0.00000000000E+00  0.00000000000E+00  0.74505805969E-08  0.10566000000E+00  0.10566000000E+00 0. -1.
     999900   -1    0    0    0    0 -0.00000000000E+00 -0.00000000000E+00 -0.74505805969E-08  0.93827000000E+00  0.93827000000E+00 0.  1.
     999902    2    1    2    0    0  0.63589956135E-02 -0.21969888003E-02  0.13091725845E-01  0.10292107313E+01  0.10291054720E+01 0.  0.
     999903    2    3    3    0    0 -0.77212057913E-01 -0.15753910271E-01  0.10689977437E+00  0.14018437565E+00  0.44879949186E-01 0.  0.
         14    1    1    2    0    0 -0.63589956135E-02  0.21969888003E-02 -0.13091725845E-01  0.14719268684E-01  0.00000000000E+00 0.  1.
     999901    1    3    3    0    0  0.83571053526E-01  0.13556921471E-01 -0.93808048526E-01  0.88902635567E+00  0.88000000000E+00 0. -1.
        -11    1    4    4    0    0 -0.21608024816E-01  0.91034251331E-02  0.56333761064E-01  0.61020757470E-01  0.51100000000E-03 0. -1.
         11    1    4    4    0    0 -0.55604033097E-01 -0.24857335405E-01  0.50566013307E-01  0.79163618177E-01  0.51100000000E-03 0.  1.
</event>
<event>
 8    1  0.2877139E+004  0.1043930E+01  0.7957747E-01            NaN
         13   -1    0    0    0    0  0.00000000000E+00  0.00000000000E+00  0.74505805969E-08  0.10566000000E+00  0.10566000000E+00 0.  1.
     999900   -1    0    0    0    0 -0.00000000000E+00 -0.00000000000E+00 -0.74505805969E-08  0.93827000000E+00  0.93827000000E+00 0.  1.
     999902    2    1    2    0    0  0.88833634284E-02 -0.11304788369E-01  0.43280800706E-02  0.10289151852E+01  0.10288056248E+01 0.  0.
     999903    2    3    3    0    0  0.78655101559E-01 -0.10403029095E+00 -0.28125917057E-01  0.14070384989E+00  0.44694291892E-01 0.  0.
         14    1    1    2    0    0 -0.88833634284E-02  0.11304788369E-01 -0.43280800706E-02  0.15014814783E-01  0.00000000000E+00 0. -1.
     999901    1    3    3    0    0 -0.69771738131E-01  0.92725502581E-01  0.32453997128E-01  0.88821133533E+00  0.88000000000E+00 0. -1.
        -11    1    4    4    0    0  0.19482634643E-01 -0.45684703775E-01 -0.29161078218E-01  0.57595961798E-01  0.51100000000E-03 0. -1.
         11    1    4    4    0    0  0.59172466916E-01 -0.58345587175E-01  0.10351611613E-02  0.83107888094E-01  0.51100000000E-03 0.  1.
</event>
<event>
 7    1  0.2877139E+004  0.1043930E+01  0.7957747E-01            NaN
         13   -1    0    0    0    0  0.00000000000E+00  0.00000000000E+00  0.74505805969E-08  0.10566000000E+00  0.10566000000E+00 0. -1.
     999900   -1    0    0    0    0 -0.00000000000E+00 -0.00000000000E+00 -0.74505805969E-08  0.93827000000E+00  0.93827000000E+00 0. -1.
     999903    2    1    2    0    0 -0.24335438275E-01  0.12610813509E-01  0.77456789070E-01  0.92564076879E-01  0.42629895401E-01 0.  0.
         14    1    1    2    0    0 -0.44320421615E-01  0.40144852378E-01  0.16781852141E-01  0.62109093585E-01  0.00000000000E+00 0. -1.
     999901    1    1    2    0    0  0.68655859890E-01 -0.52755665887E-01 -0.94238641211E-01  0.88925682954E+00  0.88000000000E+00 0. -1.
        -11    1    3    3    0    0 -0.27200004869E-01 -0.29331364764E-02  0.69845077259E-01  0.75013595387E-01  0.51100000000E-03 0. -1.
         11    1    3    3    0    0  0.28645665934E-02  0.15543949985E-01  0.76117118109E-02  0.17550481492E-01  0.51100000000E-03 0.  1.
</event>
<event>
 8    1  0.2877139E+004  0.1043930E+01  0.7957747E-01            NaN
         13   -1    0    0    0    0  0.00000000000E+00  0.00000000000E+00  0.74505805969E-08  0.10566000000E+00  0.10566000000E+00 0. -1.
     999900   -1    0    0    0    0 -0.00000000000E+00 -0.00000000000E+00 -0.74505805969E-08  0.93827000000E+00  0.93827000000E+00 0.  1.
     999902    2    1    2    0    0  0.18460760362E-02 -0.12482363888E-01  0.50549187618E-02  0.10303370015E+01  0.10302473329E+01 0.  0.
     999903    2    3    3    0    0  0.89139871512E-01 -0.19908042682E-01  0.99065923918E-01  0.14100387125E+00  0.41542599465E-01 0.  0.
         14    1    1    2    0    0 -0.18460760362E-02  0.12482363888E-01 -0.50549187618E-02  0.13592998516E-01  0.00000000000E+00 0.  1.
     999901    1    3    3    0    0 -0.87293795476E-01  0.74256787942E-02 -0.94011005156E-01  0.88933313023E+00  0.88000000000E+00 0.  1.
        -11    1    4    4    0    0  0.71041279702E-01 -0.12779175711E-02  0.87087156439E-01  0.11239630969E+00  0.51100000000E-03 0. -1.
         11    1    4    4    0    0  0.18098591810E-01 -0.18630125111E-01  0.11978767479E-01  0.28607561561E-01  0.51100000000E-03 0.  1.
</event>
<event>
 8    1  0.2877139E+004  0.1043930E+01  0.7957747E-01            NaN
         13   -1    0    0    0    0  0.00000000000E+00  0.00000000000E+00  0.74505805969E-08  0.10566000000E+00  0.10566000000E+00 0. -1.
     999900   -1    0    0    0    0 -0.00000000000E+00 -0.00000000000E+00 -0.74505805969E-08  0.93827000000E+00  0.93827000000E+00 0. -1.
     999902    2    1    2    0    0 -0.13651818705E-01  0.20010855080E-01 -0.49549292898E-02  0.10192043494E+01  0.10189043861E+01 0.  0.
     999903    2    3    3    0    0  0.11212060371E+00 -0.18456898687E-01  0.38953719065E-01  0.12834721171E+00  0.45209817931E-01 0.  0.
         14    1    1    2    0    0  0.13651818705E-01 -0.20010855080E-01  0.49549292898E-02  0.24725650634E-01  0.00000000000E+00 0. -1.
     999901    1    3    3    0    0 -0.12577242242E+00  0.38467753768E-01 -0.43908648355E-01  0.89085713766E+00  0.88000000000E+00 0. -1.
        -11    1    4    4    0    0  0.55771865557E-01  0.37796135917E-02  0.38300209396E-01  0.67763955222E-01  0.51100000000E-03 0.  1.
         11    1    4    4    0    0  0.56348738157E-01 -0.22236512279E-01  0.65350966863E-03  0.60583256483E-01  0.51100000000E-03 0. -1.
</event>
<event>
 8    1  0.2877139E+004  0.1043930E+01  0.7957747E-01            NaN
         13   -1    0    0    0    0  0.00000000000E+00  0.00000000000E+00  0.74505805969E-08  0.10566000000E+00  0.10566000000E+00 0. -1.
     999900   -1    0    0    0    0 -0.00000000000E+00 -0.00000000000E+00 -0.74505805969E-08  0.93827000000E+00  0.93827000000E+00 0. -1.
     999902    2    1    2    0    0  0.10424107108E-01  0.54846269296E-02 -0.82966745552E-02  0.10295224343E+01  0.10294216166E+01 0.  0.
     999903    2    3    3    0    0 -0.28370887378E-01 -0.12759271790E+00 -0.97035915357E-02  0.13867081323E+00  0.45283836398E-01 0.  0.
         14    1    1    2    0    0 -0.10424107108E-01 -0.54846269296E-02  0.82966745552E-02  0.14407565729E-01  0.00000000000E+00 0. -1.
     999901    1    3    3    0    0  0.38794994486E-01  0.13307734483E+00  0.14069169805E-02  0.89085162105E+00  0.88000000000E+00 0.  1.
        -11    1    4    4    0    0 -0.21367231704E-01 -0.12646574792E+00 -0.21236878841E-02  0.12827671324E+00  0.51100000000E-03 0. -1.
         11    1    4    4    0    0 -0.70036556746E-02 -0.11269699823E-02 -0.75799036516E-02  0.10394099986E-01  0.51100000000E-03 0.  1.
</event>
<event>
 8    1  0.2877139E+004  0.1043930E+01  0.7957747E-01            NaN
         13   -1    0    0    0    0  0.00000000000E+00  0.00000000000E+00  0.74505805969E-08  0.10566000000E+00  0.10566000000E+00 0.  1.
     999900   -1    0    0    0    0 -0.00000000000E+00 -0.00000000000E+00 -0.74505805969E-08  0.93827000000E+00  0.93827000000E+00 0.  1.
     999902    2    1    2    0    0 -0.61701960334E-02  0.50582689244E-03  0.12501298104E-01  0.10299797443E+01  0.10298852674E+01 0.  0.
     999903    2    3    3    0    0 -0.12194675917E+00 -0.49082320681E-01  0.23744516554E-01  0.14094115857E+00  0.44950215078E-01 0.  0.
         14    1    1    2    0    0  0.61701960334E-02 -0.50582689244E-03 -0.12501298104E-01  0.13950255705E-01  0.00000000000E+00 0. -1.
     999901    1    3    3    0    0  0.11577656314E+00  0.49588147573E-01 -0.11243218449E-01  0.88903858573E+00  0.88000000000E+00 0.  1.
        -11    1    4    4    0    0 -0.10418173106E+00 -0.44593200106E-01  0.31482216144E-02  0.11336912720E+00  0.51100000000E-03 0.  1.
         11    1    4    4    0    0 -0.17765028118E-01 -0.44891205745E-02  0.20596294939E-01  0.27572031368E-01  0.51100000000E-03 0. -1.
</event>
<event>
 8    1  0.2877139E+004  0.1043930E+01  0.7957747E-01            NaN
         13   -1    0    0    0    0  0.00000000000E+00  0.00000000000E+00  0.74505805969E-08  0.10566000000E+00  0.10566000000E+00 0.  1.
     999900   -1    0    0    0    0 -0.00000000000E+00 -0.00000000000E+00 -0.74505805969E-08  0.93827000000E+00  0.93827000000E+00 0. -1.
     999902    2    1    2    0    0 -0.15424903708E-01  0.11156347220E-01  0.10766503402E-01  0.10220597157E+01  0.10218256961E+01 0.  0.
     999903    2    3    3    0    0 -0.41169639887E-01  0.10245121725E+00 -0.61810826616E-01  0.13399158009E+00  0.44067835023E-01 0.  0.
         14    1    1    2    0    0  0.15424903708E-01 -0.11156347220E-01 -0.10766503402E-01  0.21870284251E-01  0.00000000000E+00 0. -1.
     999901    1    3    3    0    0  0.25744736179E-01 -0.91294870034E-01  0.72577330019E-01  0.88806813566E+00  0.88000000000E+00 0. -1.
        -11    1    4    4    0    0 -0.18449565347E-01  0.72055412762E-01 -0.60728692976E-01  0.96023977429E-01  0.51100000000E-03 0. -1.
         11    1    4    4    0    0 -0.22720074540E-01  0.30395804492E-01 -0.10821336402E-02  0.37967602664E-01  0.51100000000E-03 0.  1.
</event>
<event>
 8    1  0.2877139E+004  0.1043930E+01  0.7957747E-01            NaN
         13   -1    0    0    0    0  0.00000000000E+00  0.00000000000E+00  0.74505805969E-08  0.10566000000E+00  0.10566000000E+00 0.  1.
     999900   -1    0    0    0    0 -0.00000000000E+00 -0.00000000000E+00 -0.74505805969E-08  0.93827000000E+00  0.93827000000E+00 0. -1.
     999902    2    1    2    0    0 -0.13577007583E-01  0.18276961421E-02  0.38681200294E-02  0.10296949039E+01  0.10295965021E+01 0.  0.
     999903    2    3    3    0    0 -0.25428039595E-01 -0.12262270322E+00 -0.42985935545E-01  0.13962543955E+00  0.44323359214E-01 0.  0.
         14    1    1    2    0    0  0.13577007583E-01 -0.18276961421E-02 -0.38681200294E-02  0.14235096088E-01  0.00000000000E+00 0. -1.
     999901    1    3    3    0    0  0.11851032013E-01  0.12445039936E+00  0.46854055574E-01  0.89006946436E+00  0.88000000000E+00 0.  1.
        -11    1    4    4    0    0 -0.87752228753E-02 -0.56079987292E-01  0.33208437295E-02  0.56861750195E-01  0.51100000000E-03 0. -1.
         11    1    4    4    0    0 -0.16652816720E-01 -0.66542715931E-01 -0.46306779274E-01  0.82763689357E-01  0.51100000000E-03 0.  1.
</event>
<event>
 8    1  0.2877139E+004  0.1043930E+01  0.7957747E-01            NaN
         13   -1    0    0    0    0  0.00000000000E+00  0.00000000000E+00  0.74505805969E-08  0.10566000000E+00  0.10566000000E+00 0.  1.
     999900   -1    0    0    0    0 -0.00000000000E+00 -0.00000000000E+00 -0.74505805969E-08  0.93827000000E+00  0.93827000000E+00 0. -1.
     999902    2    1    2    0    0 -0.54951607128E-02  0.65716755568E-02 -0.13474524504E-01  0.10279629551E+01  0.10278389420E+01 0.  0.
     999903    2    3    3    0    0 -0.11544271891E+00 -0.19212731330E-01  0.57117769901E-01  0.13794240863E+00  0.45491956035E-01 0.  0.
         14    1    1    2    0    0  0.54951607128E-02 -0.65716755568E-02  0.13474524504E-01  0.15967044858E-01  0.00000000000E+00 0.  1.
     999901    1    3    3    0    0  0.10994755820E+00  0.25784406887E-01 -0.70592294406E-01  0.89002054652E+00  0.88000000000E+00 0.  1.
        -11    1    4    4    0    0 -0.42491602143E-01 -0.27858671227E-01  0.13776946954E-01  0.52647005647E-01  0.51100000000E-03 0. -1.
         11    1    4    4    0    0 -0.72951116769E-01  0.86459398967E-02  0.43340822947E-01  0.85295402978E-01  0.51100000000E-03 0.  1.
</event>
<event>
 8    1  0.2877139E+004  0.1043930E+01  0.7957747E-01            NaN
         13   -1    0    0    0    0  0.00000000000E+00  0.00000000000E+00  0.74505805969E-08  0.10566000000E+00  0.10566000000E+00 0.  1.
     999900   -1    0    0    0    0 -0.00000000000E+00 -0.00000000000E+00 -0.74505805969E-08  0.93827000000E+00  0.93827000000E+00 0.  1.
     999902    2    1    2    0    0 -0.66663161463E-02 -0.45759021361E-03  0.12424746383E-01  0.10298224317E+01  0.10297257972E+01 0.  0.
     999903    2    3    3    0    0  0.47061048228E-01 -0.85676199893E-01  0.90485769758E-01  0.14064170517E+00  0.45136030131E-01 0.  0.
         14    1    1    2    0    0  0.66663161463E-02  0.45759021361E-03 -0.12424746383E-01  0.14107568269E-01  0.00000000000E+00 0.  1.
     999901    1    3    3    0    0 -0.53727364374E-01  0.85218609680E-01 -0.78061023374E-01  0.88918072656E+00  0.88000000000E+00 0.  1.
        -11    1    4    4    0    0  0.19437053266E-01 -0.70307989153E-01  0.77593062192E-01  0.10649862346E+00  0.51100000000E-03 0. -1.
         11    1    4    4    0    0  0.27623994962E-01 -0.15368210740E-01  0.12892707566E-01  0.34143081706E-01  0.51100000000E-03 0.  1.
</event>
<event>
 8    1  0.2877139E+004  0.1043930E+01  0.7957747E-01            NaN
         13   -1    0    0    0    0  0.00000000000E+00  0.00000000000E+00  0.74505805969E-08  0.10566000000E+00  0.10566000000E+00 0.  1.
     999900   -1    0    0    0    0 -0.00000000000E+00 -0.00000000000E+00 -0.74505805969E-08  0.93827000000E+00  0.93827000000E+00 0. -1.
     999902    2    1    2    0    0  0.82942166573E-02 -0.10536547217E-01  0.37908497957E-02  0.10299950296E+01  0.10299007611E+01 0.  0.
     999903    2    3    3    0    0  0.35947334859E-02  0.40219838006E-01  0.12638747507E+00  0.14003535171E+00  0.44783349532E-01 0.  0.
         14    1    1    2    0    0 -0.82942166573E-02  0.10536547217E-01 -0.37908497957E-02  0.13934970376E-01  0.00000000000E+00 0.  1.
     999901    1    3    3    0    0  0.46994831714E-02 -0.50756385223E-01 -0.12259662528E+00  0.88995967791E+00  0.88000000000E+00 0. -1.
        -11    1    4    4    0    0 -0.18103834452E-01  0.13626887159E-01  0.29199647368E-01  0.36963785019E-01  0.51100000000E-03 0.  1.
         11    1    4    4    0    0  0.21698567937E-01  0.26592950847E-01  0.97187827704E-01  0.10307156669E+00  0.51100000000E-03 0. -1.
</event>
<event>
 8    1  0.2877139E+004  0.1043930E+01  0.7957747E-01            NaN
         13   -1    0    0    0    0  0.00000000000E+00  0.00000000000E+00  0.74505805969E-08  0.10566000000E+00  0.10566000000E+00 0.  1.
     999900   -1    0    0    0    0 -0.00000000000E+00 -0.00000000000E+00 -0.74505805969E-08  0.93827000000E+00  0.93827000000E+00 0.  1.
     999902    2    1    2    0    0 -0.54166542002E-02 -0.69538711684E-02  0.11794182802E-01  0.10292058968E+01  0.10291005679E+01 0.  0.
     999903    2    3    3    0    0  0.27665229450E-01  0.10492192389E+00  0.74809600892E-01  0.13927244566E+00  0.45015138594E-01 0.  0.
         14    1    1    2    0    0  0.54166542002E-02  0.69538711684E-02 -0.11794182802E-01  0.14724103196E-01  0.00000000000E+00 0. -1.
     999901    1    3    3    0    0 -0.33081883650E-01 -0.11187579505E+00 -0.63015418090E-01  0.88993345114E+00  0.88000000000E+00 0. -1.
        -11    1    4    4    0    0 -0.73656037253E-02  0.40945164644E-01  0.42566337674E-01  0.59522372684E-01  0.51100000000E-03 0. -1.
         11    1    4    4    0    0  0.35030833176E-01  0.63976759242E-01  0.32243263218E-01  0.79750072978E-01  0.51100000000E-03 0.  1.
</event>
<event>
 8    1  0.2877139E+004  0.1043930E+01  0.7957747E-01            NaN
         13   -1    0    0    0    0  0.00000000000E+00  0.00000000000E+00  0.74505805969E-08  0.10566000000E+00  0.10566000000E+00 0.  1.
     999900   -1    0    0    0    0 -0.00000000000E+00 -0.00000000000E+00 -0.74505805969E-08  0.93827000000E+00  0.93827000000E+00 0.  1.
     999902    2    1    2    0    0 -0.42531649902E-02  0.13323503814E-01  0.34316615049E-02  0.10295292546E+01  0.10294285331E+01 0.  0.
     999903    2    3    3    0    0  0.12099915676E+00  0.34348249994E-01  0.40971623713E-01  0.13961946549E+00  0.44657843421E-01 0.  0.
         14    1    1    2    0    0  0.42531649902E-02 -0.13323503814E-01 -0.34316615049E-02  0.14400745363E-01  0.00000000000E+00 0. -1.
     999901    1    3    3    0    0 -0.12525232175E+00 -0.21024746180E-01 -0.37539962208E-01  0.88990978915E+00  0.88000000000E+00 0.  1.
        -11    1    4    4    0    0  0.37465513332E-01  0.15285398306E-01  0.35383678372E-01  0.53754757062E-01  0.51100000000E-03 0. -1.
         11    1    4    4    0    0  0.83533643432E-01  0.19062851688E-01  0.55879453405E-02  0.85864708429E-01  0.51100000000E-03 0.  1.
</event>
<event>
 8    1  0.2877139E+004  0.1043930E+01  0.7957747E-01            NaN
         13   -1    0    0    0    0  0.00000000000E+00  0.00000000000E+00  0.74505805969E-08  0.10566000000E+00  0.10566000000E+00 0.  1.
     999900   -1    0    0    0    0 -0.00000000000E+00 -0.00000000000E+00 -0.74505805969E-08  0.93827000000E+00  0.93827000000E+00 0. -1.
     999902    2    1    2    0    0 -0.19404161230E-02 -0.11863966968E-01  0.68622135321E-02  0.10300877133E+01  0.10299947030E+01 0.  0.
     999903    2    3    3    0    0 -0.27348005358E-01 -0.10447010510E+00 -0.78433255111E-01  0.14076394807E+00  0.44730272878E-01 0.  0.
         14    1    1    2    0    0  0.19404161230E-02  0.11863966968E-01 -0.68622135321E-02  0.13842286716E-01  0.00000000000E+00 0. -1.
     999901    1    3    3    0    0  0.25407589235E-01  0.92606138129E-01  0.85295468643E-01  0.88932376522E+00  0.88000000000E+00 0.  1.
        -11    1    4    4    0    0 -0.37827324741E-01 -0.74138316103E-01 -0.66450006891E-01  0.10650474613E+00  0.51100000000E-03 0. -1.
         11    1    4    4    0    0  0.10479319383E-01 -0.30331788994E-01 -0.11983248220E-01  0.34259201935E-01  0.51100000000E-03 0.  1.
</event>
<event>
 8    1  0.2877139E+004  0.1043930E+01  0.7957747E-01            NaN
         13   -1    0    0    0    0  0.00000000000E+00  0.00000000000E+00  0.74505805969E-08  0.10566000000E+00  0.10566000000E+00 0. -1.
     999900   -1    0    0    0    0 -0.00000000000E+00 -0.00000000000E+00 -0.74505805969E-08  0.93827000000E+00  0.93827000000E+00 0.  1.
     999902    2    1    2    0    0  0.12110409913E-01 -0.14021355440E-03 -0.57748338700E-02  0.10305124595E+01  0.10304251058E+01 0.  0.
     999903    2    3    3    0    0 -0.80274794823E-01 -0.72814982536E-01  0.74475795357E-01  0.13907720572E+00  0.45274282899E-01 0.  0.
         14    1    1    2    0    0 -0.12110409913E-01  0.14021355440E-03  0.57748338700E-02  0.13417540547E-01  0.00000000000E+00 0. -1.
     999901    1    3    3    0    0  0.92385204737E-01  0.72674768982E-01 -0.80250629227E-01  0.89143525373E+00  0.88000000000E+00 0. -1.
        -11    1    4    4    0    0 -0.77489314354E-02 -0.34287138850E-01  0.18898741774E-01  0.39913373580E-01  0.51100000000E-03 0.  1.
         11    1    4    4    0    0 -0.72525863388E-01 -0.38527843686E-01  0.55577053583E-01  0.99163832143E-01  0.51100000000E-03 0. -1.
</event>
<event>
 7    1  0.2877139E+004  0.1043930E+01  0.7957747E-01            NaN
         13   -1    0    0    0    0  0.00000000000E+00  0.00000000000E+00  0.74505805969E-08  0.10566000000E+00  0.10566000000E+00 0. -1.
     999900   -1    0    0    0    0 -0.00000000000E+00 -0.00000000000E+00 -0.74505805969E-08  0.93827000000E+00  0.93827000000E+00 0.  1.
     999902    2    1    2    0    0  0.18725484199E-03 -0.14250981720E-01 -0.88542260883E-02  0.10271513569E+01  0.10270143072E+01 0.  0.
         14    1    1    2    0    0 -0.18725484199E-03  0.14250981720E-01  0.88542260883E-02  0.16778643091E-01  0.00000000000E+00 0. -1.
     999901    1    3    3    0    0  0.27580473813E-01  0.51242292542E-01  0.10941858225E+00  0.88868379147E+00  0.88000000000E+00 0. -1.
        -11    1    3    3    0    0 -0.11996885233E-01 -0.41830985040E-01 -0.66009298096E-01  0.79064815947E-01  0.51100000000E-03 0.  1.
         11    1    3    3    0    0 -0.15396333738E-01 -0.23662289222E-01 -0.52263510238E-01  0.59402749492E-01  0.51100000000E-03 0. -1.
</event>
<event>
 8    1  0.2877139E+004  0.1043930E+01  0.7957747E-01            NaN
         13   -1    0    0    0    0  0.00000000000E+00  0.00000000000E+00  0.74505805969E-08  0.10566000000E+00  0.10566000000E+00 0. -1.
     999900   -1    0    0    0    0 -0.00000000000E+00 -0.00000000000E+00 -0.74505805969E-08  0.93827000000E+00  0.93827000000E+00 0. -1.
     999902    2    1    2    0    0  0.79302379219E-02 -0.99411499647E-02 -0.61070788304E-02  0.10298228547E+01  0.10297262260E+01 0.  0.
     999903    2    3    3    0    0 -0.10853505009E+00 -0.52867436961E-01  0.56159247788E-01  0.13893345370E+00  0.39671406020E-01 0.  0.
         14    1    1    2    0    0 -0.79302379219E-02  0.99411499647E-02  0.61070788304E-02  0.14107145280E-01  0.00000000000E+00 0. -1.
     999901    1    3    3    0    0  0.11646528801E+00  0.42926286996E-01 -0.62266326618E-01  0.89088940102E+00  0.88000000000E+00 0. -1.
        -11    1    4    4    0    0 -0.56801773337E-01 -0.90427548619E-02  0.37307315094E-01  0.68558805053E-01  0.51100000000E-03 0. -1.
         11    1    4    4    0    0 -0.51733276750E-01 -0.43824682099E-01  0.18851932694E-01  0.70374648643E-01  0.51100000000E-03 0.  1.
</event>
<event>
 8    1  0.2877139E+004  0.1043930E+01  0.7957747E-01            NaN
         13   -1    0    0    0    0  0.00000000000E+00  0.00000000000E+00  0.74505805969E-08  0.10566000000E+00  0.10566000000E+00 0. -1.
     999900   -1    0    0    0    0 -0.00000000000E+00 -0.00000000000E+00 -0.74505805969E-08  0.93827000000E+00  0.93827000000E+00 0.  1.
     999902    2    1    2    0    0  0.12403008468E-01  0.77829872827E-03  0.46192565204E-02  0.10306718742E+01  0.10305865973E+01 0.  0.
     999903    2    3    3    0    0  0.34644923116E-01 -0.99273858185E-02 -0.12784718132E+00  0.14041535412E+00  0.45527422687E-01 0.  0.
         14    1    1    2    0    0 -0.12403008468E-01 -0.77829872827E-03 -0.46192565204E-02  0.13258125764E-01  0.00000000000E+00 0.  1.
     999901    1    3    3    0    0 -0.22241914648E-01  0.10705684547E-01  0.13246643784E+00  0.89025652011E+00  0.88000000000E+00 0. -1.
        -11    1    4    4    0    0  0.33030393091E-01 -0.24690595499E-01 -0.10811113270E+00  0.11571045981E+00  0.51100000000E-03 0. -1.
         11    1    4    4    0    0  0.16145300249E-02  0.14763209681E-01 -0.19736048612E-01  0.24704894314E-01  0.51100000000E-03 0.  1.
</event>
<event>
 8    1  0.2877139E+004  0.1043930E+01  0.7957747E-01            NaN
         13   -1    0    0    0    0  0.00000000000E+00  0.00000000000E+00  0.74505805969E-08  0.10566000000E+00  0.10566000000E+00 0.  1.
     999900   -1    0    0    0    0 -0.00000000000E+00 -0.00000000000E+00 -0.74505805969E-08  0.93827000000E+00  0.93827000000E+00 0.  1.
     999902    2    1    2    0    0 -0.12644084340E-01  0.48626637497E-02  0.25479045960E-03  0.10303807090E+01  0.10302916200E+01 0.  0.
     999903    2    3    3    0    0  0.80808886134E-01 -0.64254095316E-01  0.81530004920E-01  0.13902430189E+00  0.44966098007E-01 0.  0.
         14    1    1    2    0    0  0.12644084340E-01 -0.48626637497E-02 -0.25479045960E-03  0.13549290967E-01  0.00000000000E+00 0. -1.
     999901    1    3    3    0    0 -0.93452970474E-01  0.69116759065E-01 -0.81275214460E-01  0.89135640715E+00  0.88000000000E+00 0.  1.
        -11    1    4    4    0    0  0.50452294062E-01 -0.64068536851E-01  0.66056093431E-01  0.10494703422E+00  0.51100000000E-03 0.  1.
         11    1    4    4    0    0  0.30356592072E-01 -0.18555846455E-03  0.15473911489E-01  0.34077267671E-01  0.51100000000E-03 0. -1.
</event>
<event>
 8    1  0.2877139E+004  0.1043930E+01  0.7957747E-01            NaN
         13   -1    0    0    0    0  0.00000000000E+00  0.00000000000E+00  0.74505805969E-08  0.10566000000E+00  0.10566000000E+00 0. -1.
     999900   -1    0    0    0    0 -0.00000000000E+00 -0.00000000000E+00 -0.74505805969E-08  0.93827000000E+00  0.93827000000E+00 0.  1.
     999902    2    1    2    0    0  0.14006651477E-01 -0.59153734503E-02 -0.47383084370E-02  0.10280042506E+01  0.10278808830E+01 0.  0.
     999903    2    3    3    0    0  0.76001753259E-01  0.90085078280E-01  0.57716727986E-01  0.13842001567E+00  0.44014681883E-01 0.  0.
         14    1    1    2    0    0 -0.14006651477E-01  0.59153734503E-02  0.47383084370E-02  0.15925749448E-01  0.00000000000E+00 0.  1.
     999901    1    3    3    0    0 -0.61995101783E-01 -0.96000451730E-01 -0.62455036423E-01  0.88958423488E+00  0.88000000000E+00 0.  1.
        -11    1    4    4    0    0  0.78592869794E-01  0.81048756127E-01  0.42714349915E-01  0.12070839599E+00  0.51100000000E-03 0.  1.
         11    1    4    4    0    0 -0.25911165352E-02  0.90363221526E-02  0.15002378071E-01  0.17711619681E-01  0.51100000000E-03 0. -1.
</event>
<event>
 8    1  0.2877139E+004  0.1043930E+01  0.7957747E-01            NaN
         13   -1    0    0    0    0  0.00000000000E+00  0.00000000000E+00  0.74505805969E-08  0.10566000000E+00  0.10566000000E+00 0.  1.
     999900   -1    0    0    0    0 -0.00000000000E+00 -0.00000000000E+00 -0.74505805969E-08  0.93827000000E+00  0.93827000000E+00 0. -1.
     999902    2    1    2    0    0 -0.62499235756E-02 -0.73329887328E-02 -0.95069363507E-02  0.10303942655E+01  0.10303053559E+01 0.  0.
     999903    2    3    3    0    0 -0.15781220672E-01  0.36528678818E-01  0.12541979105E+00  0.13897970807E+00  0.44741970988E-01 0.  0.
         14    1    1    2    0    0  0.62499235756E-02  0.73329887328E-02  0.95069363507E-02  0.13535734455E-01  0.00000000000E+00 0.  1.
     999901    1    3    3    0    0  0.95312970964E-02 -0.43861667550E-01 -0.13492672740E+00  0.89141455747E+00  0.88000000000E+00 0. -1.
        -11    1    4    4    0    0  0.12617272907E-01  0.10584927808E-01  0.67260821390E-01  0.69249660557E-01  0.51100000000E-03 0. -1.
         11    1    4    4    0    0 -0.28398493579E-01  0.25943751009E-01  0.58158969658E-01  0.69730047517E-01  0.51100000000E-03 0.  1.
</event>
<event>
 8    1  0.2877139E+004  0.1043930E+01  0.7957747E-01            NaN
         13   -1    0    0    0    0  0.00000000000E+00  0.00000000000E+00  0.74505805969E-08  0.10566000000E+00  0.10566000000E+00 0. -1.
     999900   -1    0    0    0    0 -0.00000000000E+00 -0.00000000000E+00 -0.74505805969E-08  0.93827000000E+00  0.93827000000E+00 0. -1.
     999902    2    1    2    0    0  0.83415211631E-02  0.91698584595E-03  0.11301763790E-01  0.10298533632E+01  0.10297571549E+01 0.  0.
     999903    2    3    3    0    0  0.34284481256E-01  0.71841554105E-01 -0.10462992360E+00  0.13904278419E+00  0.45264117923E-01 0.  0.
         14    1    1    2    0    0 -0.83415211631E-02 -0.91698584595E-03 -0.11301763790E-01  0.14076636783E-01  0.00000000000E+00 0.  1.
     999901    1    3    3    0    0 -0.25942960093E-01 -0.70924568259E-01  0.11593168739E+00  0.89081057903E+00  0.88000000000E+00 0.  1.
        -11    1    4    4    0    0  0.42300168352E-01  0.66775545502E-01 -0.79201809382E-01  0.11189935411E+00  0.51100000000E-03 0.  1.
         11    1    4    4    0    0 -0.80156870960E-02  0.50660086026E-02 -0.25428114221E-01  0.27143430082E-01  0.51100000000E-03 0. -1.
</event>
<event>
 8    1  0.2877139E+004  0.1043930E+01  0.7957747E-01            NaN
         13   -1    0    0    0    0  0.00000000000E+00  0.00000000000E+00  0.74505805969E-08  0.10566000000E+00  0.10566000000E+00 0. -1.
     999900   -1    0    0    0    0 -0.00000000000E+00 -0.00000000000E+00 -0.74505805969E-08  0.93827000000E+00  0.93827000000E+00 0.  1.
     999902    2    1    2    0    0  0.55969621786E-02  0.49698000617E-02  0.12239944360E-01  0.10295828353E+01  0.10294828670E+01 0.  0.
     999903    2    3    3    0    0  0.38317132903E-01  0.94394109150E-01 -0.82372438130E-01  0.13940374117E+00  0.47641725117E-01 0.  0.
         14    1    1    2    0    0 -0.55969621786E-02 -0.49698000617E-02 -0.12239944360E-01  0.14347164745E-01  0.00000000000E+00 0.  1.
     999901    1    3    3    0    0 -0.32720170724E-01 -0.89424309088E-01  0.94612382490E-01  0.89017909409E+00  0.88000000000E+00 0. -1.
        -11    1    4    4    0    0  0.41890815065E-01  0.41694229649E-01 -0.36696989045E-01  0.69571397131E-01  0.51100000000E-03 0.  1.
         11    1    4    4    0    0 -0.35736821619E-02  0.52699879502E-01 -0.45675449084E-01  0.69832344037E-01  0.51100000000E-03 0. -1.
</event>
<event>
 8    1  0.2877139E+004  0.1043930E+01  0.7957747E-01            NaN
         13   -1    0    0    0    0  0.00000000000E+00  0.00000000000E+00  0.74505805969E-08  0.10566000000E+00  0.10566000000E+00 0. -1.
     999900   -1    0    0    0    0 -0.00000000000E+00 -0.00000000000E+00 -0.74505805969E-08  0.93827000000E+00  0.93827000000E+00 0.  1.
     999902    2    1    2    0    0  0.73335687287E-02  0.72507315919E-02 -0.93888829262E-02  0.10299834785E+01  0.10298890525E+01 0.  0.
     999903    2    3    3    0    0  0.11448439440E+00  0.21658883608E-01  0.64203265293E-01  0.14031798038E+00  0.44623901036E-01 0.  0.
         14    1    1    2    0    0 -0.73335687287E-02 -0.72507315919E-02  0.93888829262E-02  0.13946521485E-01  0.00000000000E+00 0. -1.
     999901    1    3    3    0    0 -0.10715082567E+00 -0.14408152016E-01 -0.73592148219E-01  0.88966549813E+00  0.88000000000E+00 0.  1.
        -11    1    4    4    0    0  0.82113841399E-01  0.86402921040E-02  0.21790195419E-01  0.85395616599E-01  0.51100000000E-03 0.  1.
         11    1    4    4    0    0  0.32370553004E-01  0.13018591504E-01  0.42413069874E-01  0.54922363784E-01  0.51100000000E-03 0. -1.
</event>
<event>
 8    1  0.2877139E+004  0.1043930E+01  0.7957747E-01            NaN
         13   -1    0    0    0    0  0.00000000000E+00  0.00000000000E+00  0.74505805969E-08  0.10566000000E+00  0.10566000000E+00 0.  1.
     999900   -1    0    0    0    0 -0.00000000000E+00 -0.00000000000E+00 -0.74505805969E-08  0.93827000000E+00  0.93827000000E+00 0.  1.
     999902    2    1    2    0    0 -0.12587905105E-01 -0.31542342230E-02 -0.33800631838E-02  0.10305199524E+01  0.10304326970E+01 0.  0.
     999903    2    3    3    0    0  0.31692711789E-01  0.19644984238E-01 -0.12762244530E+00  0.14039819284E+00  0.45097789559E-01 0.  0.
         14    1    1    2    0    0  0.12587905105E-01  0.31542342230E-02  0.33800631838E-02  0.13410047562E-01  0.00000000000E+00 0.  1.
     999901    1    3    3    0    0 -0.44280616894E-01 -0.22799218461E-01  0.12424238211E+00  0.89012175960E+00  0.88000000000E+00 0.  1.
        -11    1    4    4    0    0  0.23431247839E-01 -0.11427939812E-01 -0.64097585084E-01  0.69198141003E-01  0.51100000000E-03 0. -1.
         11    1    4    4    0    0  0.82614639498E-02  0.31072924051E-01 -0.63524860213E-01  0.71200051838E-01  0.51100000000E-03 0.  1.
</event>
<event>
 8    1  0.2877139E+004  0.1043930E+01  0.7957747E-01            NaN
         13   -1    0    0    0    0  0.00000000000E+00  0.00000000000E+00  0.74505805969E-08  0.10566000000E+00  0.10566000000E+00 0.  1.
     999900   -1    0    0    0    0 -0.00000000000E+00 -0.00000000000E+00 -0.74505805969E-08  0.93827000000E+00  0.93827000000E+00 0. -1.
     999902    2    1    2    0    0 -0.63208663232E-02 -0.44495471883E-02 -0.11956904673E-01  0.10296920440E+01  0.10295936024E+01 0.  0.
     999903    2    3    3    0    0 -0.85584063136E-01  0.59218902662E-01  0.80547470970E-01  0.13902185512E+00  0.44807039913E-01 0.  0.
         14    1    1    2    0    0  0.63208663232E-02  0.44495471883E-02  0.11956904673E-01  0.14237955985E-01  0.00000000000E+00 0.  1.
     999901    1    3    3    0    0  0.79263196813E-01 -0.63668449851E-01 -0.92504375643E-01  0.89067018890E+00  0.88000000000E+00 0. -1.
        -11    1    4    4    0    0 -0.45223117807E-01  0.56079503744E-02  0.39850566144E-01  0.60538485566E-01  0.51100000000E-03 0.  1.
         11    1    4    4    0    0 -0.40360945329E-01  0.53610952288E-01  0.40696904826E-01  0.78483369553E-01  0.51100000000E-03 0. -1.
</event>
<event>
 8    1  0.2877139E+004  0.1043930E+01  0.7957747E-01            NaN
         13   -1    0    0    0    0  0.00000000000E+00  0.00000000000E+00  0.74505805969E-08  0.10566000000E+00  0.10566000000E+00 0. -1.
     999900   -1    0    0    0    0 -0.00000000000E+00 -0.00000000000E+00 -0.74505805969E-08  0.93827000000E+00  0.93827000000E+00 0. -1.
     999902    2    1    2    0    0  0.10492545698E-02 -0.42784823670E-02 -0.13131932121E-01  0.10300788633E+01  0.10299857332E+01 0.  0.
     999903    2    3    3    0    0  0.16055383516E-01  0.97309145901E-01  0.85002401590E-01  0.13868917435E+00  0.47774821714E-01 0.  0.
         14    1    1    2    0    0 -0.10492545698E-02  0.42784823670E-02  0.13131932121E-01  0.13851136695E-01  0.00000000000E+00 0. -1.
     999901    1    3    3    0    0 -0.15006128946E-01 -0.10158762827E+00 -0.98134333711E-01  0.89138968896E+00  0.88000000000E+00 0. -1.
        -11    1    4    4    0    0 -0.15632688951E-01  0.41983636416E-01  0.44535263127E-01  0.63171650867E-01  0.51100000000E-03 0.  1.
         11    1    4    4    0    0  0.31688072467E-01  0.55325509485E-01  0.40467138464E-01  0.75517523482E-01  0.51100000000E-03 0. -1.
</event>
<event>
 8    1  0.2877139E+004  0.1043930E+01  0.7957747E-01            NaN
         13   -1    0    0    0    0  0.00000000000E+00  0.00000000000E+00  0.74505805969E-08  0.10566000000E+00  0.10566000000E+00 0. -1.
     999900   -1    0    0    0    0 -0.00000000000E+00 -0.00000000000E+00 -0.74505805969E-08  0.93827000000E+00  0.93827000000E+00 0. -1.
     999902    2    1    2    0    0  0.51122599945E-02  0.92995592342E-02  0.10893023325E-01  0.10287222730E+01  0.10286098580E+01 0.  0.
     999903    2    3    3    0    0  0.51887033589E-01  0.10202668516E+00  0.67982727002E-01  0.14077777381E+00  0.45771406899E-01 0.  0.
         14    1    1    2    0    0 -0.51122599945E-02 -0.92995592342E-02 -0.10893023325E-01  0.15207727028E-01  0.00000000000E+00 0.  1.
     999901    1    3    3    0    0 -0.46774773594E-01 -0.92727125922E-01 -0.57089703677E-01  0.88794449916E+00  0.88000000000E+00 0. -1.
        -11    1    4    4    0    0 -0.77833082074E-02  0.22528517242E-01  0.14435683148E-01  0.27870486984E-01  0.51100000000E-03 0.  1.
         11    1    4    4    0    0  0.59670341796E-01  0.79498167914E-01  0.53547043854E-01  0.11290728683E+00  0.51100000000E-03 0. -1.
</event>
<event>
 8    1  0.2877139E+004  0.1043930E+01  0.7957747E-01            NaN
         13   -1    0    0    0    0  0.00000000000E+00  0.00000000000E+00  0.74505805969E-08  0.10566000000E+00  0.10566000000E+00 0. -1.
     999900   -1    0    0    0    0 -0.00000000000E+00 -0.00000000000E+00 -0.74505805969E-08  0.93827000000E+00  0.93827000000E+00 0. -1.
     999902    2    1    2    0    0 -0.34216819227E-02  0.12873429128E-01 -0.33474860704E-02  0.10301954178E+01  0.10301038589E+01 0.  0.
     999903    2    3    3    0    0 -0.35310902174E-01 -0.10711317957E+00 -0.67971296900E-01  0.13913428324E+00  0.44923919237E-01 0.  0.
         14    1    1    2    0    0  0.34216819227E-02 -0.12873429128E-01  0.33474860704E-02  0.13734582181E-01  0.00000000000E+00 0.  1.
     999901    1    3    3    0    0  0.31889220251E-01  0.11998660870E+00  0.64623810830E-01  0.89106113458E+00  0.88000000000E+00 0.  1.
        -11    1    4    4    0    0 -0.28062924927E-01 -0.23030998674E-01 -0.13759093342E-01  0.38826903378E-01  0.51100000000E-03 0. -1.
         11    1    4    4    0    0 -0.72479772475E-02 -0.84082180897E-01 -0.54212203559E-01  0.10030737986E+00  0.51100000000E-03 0.  1.
</event>
<event>
 8    1  0.2877139E+004  0.1043930E+01  0.7957747E-01            NaN
         13   -1    0    0    0    0  0.00000000000E+00  0.00000000000E+00  0.74505805969E-08  0.10566000000E+00  0.10566000000E+00 0.  1.
     999900   -1    0    0    0    0 -0.00000000000E+00 -0.00000000000E+00 -0.74505805969E-08  0.93827000000E+00  0.93827000000E+00 0. -1.
     999902    2    1    2    0    0 -0.10960885380E-01 -0.41095681971E-02  0.64561914554E-02  0.10305616805E+01  0.10304749707E+01 0.  0.
     999903    2    3    3    0    0  0.12259078844E+00 -0.11104655330E-01  0.48104276719E-01  0.13948393760E+00  0.44608660928E-01 0.  0.
         14    1    1    2    0    0  0.10960885380E-01  0.41095681971E-02 -0.64561914554E-02  0.13368319535E-01  0.00000000000E+00 0. -1.
     999901    1    3    3    0    0 -0.13355167382E+00  0.69950871325E-02 -0.41648085264E-01  0.89107774287E+00  0.88000000000E+00 0. -1.
        -11    1    4    4    0    0  0.80944008488E-01 -0.15641062195E-01  0.10356688071E-01  0.83090898692E-01  0.51100000000E-03 0. -1.
         11    1    4    4    0    0  0.41646779950E-01  0.45364068652E-02  0.37747588648E-01  0.56393038907E-01  0.51100000000E-03 0.  1.
</event>
<event>
 8    1  0.2877139E+004  0.1043930E+01  0.7957747E-01            NaN
         13   -1    0    0    0    0  0.00000000000E+00  0.00000000000E+00  0.74505805969E-08  0.10566000000E+00  0.10566000000E+00 0. -1.
     999900   -1    0    0    0    0 -0.00000000000E+00 -0.00000000000E+00 -0.74505805969E-08  0.93827000000E+00  0.93827000000E+00 0.  1.
     999902    2    1    2    0    0  0.49167644669E-02  0.10636813932E-01 -0.72085394831E-02  0.10301721141E+01  0.10300802421E+01 0.  0.
     999903    2    3    3    0    0 -0.60720772557E-01 -0.11282575133E+00 -0.29119367973E-01  0.13886331479E+00  0.44926831852E-01 0.  0.
         14    1    1    2    0    0 -0.49167644669E-02 -0.10636813932E-01  0.72085394831E-02  0.13757885918E-01  0.00000000000E+00 0. -1.
     999901    1    3    3    0    0  0.65637537024E-01  0.12346256526E+00  0.21910828490E-01  0.89130879929E+00  0.88000000000E+00 0. -1.
        -11    1    4    4    0    0 -0.23542385670E-01 -0.65399165893E-01 -0.35875592649E-01  0.78221570500E-01  0.51100000000E-03 0.  1.
         11    1    4    4    0    0 -0.37178386887E-01 -0.47426585439E-01  0.67562246756E-02  0.60641744292E-01  0.51100000000E-03 0. -1.
</event>
<event>
 7    1  0.2877139E+004  0.1043930E+01  0.7957747E-01            NaN
         13   -1    0    0    0    0  0.00000000000E+00  0.00000000000E+00  0.74505805969E-08  0.10566000000E+00  0.10566000000E+00 0. -1.
     999900   -1    0    0    0    0 -0.00000000000E+00 -0.00000000000E+00 -0.74505805969E-08  0.93827000000E+00  0.93827000000E+00 0. -1.
     999903    2    1    2    0    0  0.81026980486E-01 -0.83809433944E-01 -0.30942180421E-01  0.12856027109E+00  0.44507662124E-01 0.  0.
         14    1    1    2    0    0 -0.27483099889E-01 -0.20679357040E-03  0.10768962278E-01  0.29518368716E-01  0.00000000000E+00 0.  1.
     999901    1    1    2    0    0 -0.53543880597E-01  0.84016227515E-01  0.20173218143E-01  0.88585136020E+00  0.88000000000E+00 0.  1.
        -11    1    3    3    0    0  0.84775562483E-01 -0.70986883689E-01 -0.22774327472E-01  0.11289359930E+00  0.51100000000E-03 0.  1.
         11    1    3    3    0    0 -0.37485819970E-02 -0.12822550256E-01 -0.81678529494E-02  0.15666671786E-01  0.51100000000E-03 0. -1.
</event>
<event>
 8    1  0.2877139E+004  0.1043930E+01  0.7957747E-01            NaN
         13   -1    0    0    0    0  0.00000000000E+00  0.00000000000E+00  0.74505805969E-08  0.10566000000E+00  0.10566000000E+00 0.  1.
     999900   -1    0    0    0    0 -0.00000000000E+00 -0.00000000000E+00 -0.74505805969E-08  0.93827000000E+00  0.93827000000E+00 0. -1.
     999902    2    1    2    0    0 -0.37688872603E-02  0.13370715565E-01  0.49877264098E-02  0.10291699878E+01  0.10290641408E+01 0.  0.
     999903    2    3    3    0    0  0.37059312598E-01  0.30950064826E-01 -0.12204552819E+00  0.13893775786E+00  0.45577301864E-01 0.  0.
         14    1    1    2    0    0  0.37688872603E-02 -0.13370715565E-01 -0.49877264098E-02  0.14760012217E-01  0.00000000000E+00 0.  1.
     999901    1    3    3    0    0 -0.40828199858E-01 -0.17579349261E-01  0.12703325460E+00  0.89023222993E+00  0.88000000000E+00 0.  1.
        -11    1    4    4    0    0  0.38817806455E-01  0.10562759310E-01 -0.50754578035E-01  0.64766367002E-01  0.51100000000E-03 0. -1.
         11    1    4    4    0    0 -0.17584938569E-02  0.20387305516E-01 -0.71290950152E-01  0.74171390856E-01  0.51100000000E-03 0.  1.
</event>
<event>
 8    1  0.2877139E+004  0.1043930E+01  0.7957747E-01            NaN
         13   -1    0    0    0    0  0.00000000000E+00  0.00000000000E+00  0.74505805969E-08  0.10566000000E+00  0.10566000000E+00 0. -1.
     999900   -1    0    0    0    0 -0.00000000000E+00 -0.00000000000E+00 -0.74505805969E-08  0.93827000000E+00  0.93827000000E+00 0.  1.
     999902    2    1    2    0    0 -0.55588817418E-02 -0.10558818378E-01  0.83963659169E-02  0.10293392916E+01  0.10292358760E+01 0.  0.
     999903    2    3    3    0    0 -0.12856380883E+00 -0.35039417860E-01  0.30784885483E-03  0.14041019657E+00  0.44255110258E-01 0.  0.
         14    1    1    2    0    0  0.55588817418E-02  0.10558818378E-01 -0.83963659169E-02  0.14590708426E-01  0.00000000000E+00 0.  1.
     999901    1    3    3    0    0  0.12300492709E+00  0.24480599481E-01  0.80885170620E-02  0.88892909501E+00  0.88000000000E+00 0.  1.
        -11    1    4    4    0    0 -0.12008163753E+00 -0.43081912338E-01 -0.47460151590E-02  0.12766533055E+00  0.51100000000E-03 0.  1.
         11    1    4    4    0    0 -0.84821713020E-02  0.80424944784E-02  0.50538640138E-02  0.12744866021E-01  0.51100000000E-03 0. -1.
</event>
<event>
 7    1  0.2877139E+004  0.1043930E+01  0.7957747E-01            NaN
         13   -1    0    0    0    0  0.00000000000E+00  0.00000000000E+00  0.74505805969E-08  0.10566000000E+00  0.10566000000E+00 0. -1.
     999900   -1    0    0    0    0 -0.00000000000E+00 -0.00000000000E+00 -0.74505805969E-08  0.93827000000E+00  0.93827000000E+00 0. -1.
     999903    2    1    2    0    0 -0.43736856417E-01 -0.93451852000E-01 -0.27440672229E-02  0.11252278394E+00  0.44807206433E-01 0.  0.
         14    1    1    2    0    0  0.20098136826E-01  0.38410074224E-01  0.23129971240E-01  0.49135165364E-01  0.00000000000E+00 0. -1.
     999901    1    1    2    0    0  0.23638719591E-01  0.55041777776E-01 -0.20385904018E-01  0.88227205070E+00  0.88000000000E+00 0. -1.
        -11    1    3    3    0    0 -0.59935276877E-02 -0.64762175573E-01 -0.29961453346E-02  0.65109905290E-01  0.51100000000E-03 0.  1.
         11    1    3    3    0    0 -0.37743328729E-01 -0.28689676427E-01  0.25207811171E-03  0.47412878645E-01  0.51100000000E-03 0. -1.
</event>
<event>
 8    1  0.2877139E+004  0.1043930E+01  0.7957747E-01            NaN
         13   -1    0    0    0    0  0.00000000000E+00  0.00000000000E+00  0.74505805969E-08  0.10566000000E+00  0.10566000000E+00 0. -1.
     999900   -1    0    0    0    0 -0.00000000000E+00 -0.00000000000E+00 -0.74505805969E-08  0.93827000000E+00  0.93827000000E+00 0.  1.
     999902    2    1    2    0    0  0.10621493764E-02  0.13640923499E-01  0.12114676745E-02  0.10301942580E+01  0.10301026835E+01 0.  0.
     999903    2    3    3    0    0 -0.28907779108E-01  0.30949712996E-01 -0.12606501016E+00  0.14036444693E+00  0.44902636295E-01 0.  0.
         14    1    1    2    0    0 -0.10621493764E-02 -0.13640923499E-01 -0.12114676745E-02  0.13735742030E-01  0.00000000000E+00 0.  1.
     999901    1    3    3    0    0  0.29969928484E-01 -0.17308789497E-01  0.12727647784E+00  0.88982981104E+00  0.88000000000E+00 0.  1.
        -11    1    4    4    0    0 -0.14946297049E-01 -0.80275735864E-02 -0.18506388616E-01  0.25111377377E-01  0.51100000000E-03 0. -1.
         11    1    4    4    0    0 -0.13961482059E-01  0.38977286582E-01 -0.10755862155E+00  0.11525306955E+00  0.51100000000E-03 0.  1.
</event>
<event>
 8    1  0.2877139E+004  0.1043930E+01  0.7957747E-01            NaN
         13   -1    0    0    0    0  0.00000000000E+00  0.00000000000E+00  0.74505805969E-08  0.10566000000E+00  0.10566000000E+00 0.  1.
     999900   -1    0    0    0    0 -0.00000000000E+00 -0.00000000000E+00 -0.74505805969E-08  0.93827000000E+00  0.93827000000E+00 0. -1.
     999902    2    1    2    0    0 -0.42387656425E-02  0.12949205748E-01  0.11571997965E-02  0.10302556380E+01  0.10301648856E+01 0.  0.
     999903    2    3    3    0    0 -0.76771564322E-01 -0.10545847825E+00 -0.16344384317E-01  0.13919576802E+00  0.45748871158E-01 0.  0.
         14    1    1    2    0    0  0.42387656425E-02 -0.12949205748E-01 -0.11571997965E-02  0.13674361961E-01  0.00000000000E+00 0. -1.
     999901    1    3    3    0    0  0.72532798679E-01  0.11840768400E+00  0.17501584113E-01  0.89105987002E+00  0.88000000000E+00 0. -1.
        -11    1    4    4    0    0 -0.72418218460E-01 -0.82328462286E-01  0.14957549759E-02  0.10965797951E+00  0.51100000000E-03 0. -1.
         11    1    4    4    0    0 -0.43533458618E-02 -0.23130015965E-01 -0.17840139293E-01  0.29537788504E-01  0.51100000000E-03 0.  1.
</event>
<event>
 8    1  0.2877139E+004  0.1043930E+01  0.7957747E-01            NaN
         13   -1    0    0    0    0  0.00000000000E+00  0.00000000000E+00  0.74505805969E-08  0.10566000000E+00  0.10566000000E+00 0. -1.
     999900   -1    0    0    0    0 -0.00000000000E+00 -0.00000000000E+00 -0.74505805969E-08  0.93827000000E+00  0.93827000000E+00 0. -1.
     999902    2    1    2    0    0 -0.67143123572E-02 -0.14658380665E-02  0.12629985601E-01  0.10295512932E+01  0.10294508819E+01 0.  0.
     999903    2    3    3    0    0 -0.32480947167E-01  0.31080252663E-01 -0.12304858950E+00  0.13818613618E+00  0.43971113474E-01 0.  0.
         14    1    1    2    0    0  0.67143123572E-02  0.14658380665E-02 -0.12629985601E-01  0.14378706755E-01  0.00000000000E+00 0.  1.
     999901    1    3    3    0    0  0.25766634809E-01 -0.32546090729E-01  0.13567857510E+00  0.89136515707E+00  0.88000000000E+00 0.  1.
        -11    1    4    4    0    0 -0.30531640462E-01  0.51317575344E-02 -0.95016572467E-01  0.99934609466E-01  0.51100000000E-03 0. -1.
         11    1    4    4    0    0 -0.19493067043E-02  0.25948495128E-01 -0.28032017031E-01  0.38251526713E-01  0.51100000000E-03 0.  1.
</event>
<event>
 8    1  0.2877139E+004  0.1043930E+01  0.7957747E-01            NaN
         13   -1    0    0    0    0  0.00000000000E+00  0.00000000000E+00  0.74505805969E-08  0.10566000000E+00  0.10566000000E+00 0.  1.
     999900   -1    0    0    0    0 -0.00000000000E+00 -0.00000000000E+00 -0.74505805969E-08  0.93827000000E+00  0.93827000000E+00 0. -1.
     999902    2    1    2    0    0 -0.80372221006E-03  0.11171960599E-01  0.91317010268E-02  0.10294784729E+01  0.10293770346E+01 0.  0.
     999903    2    3    3    0    0  0.71521425456E-01  0.50554385024E-01 -0.98378307360E-01  0.13911882404E+00  0.44773828291E-01 0.  0.
         14    1    1    2    0    0  0.80372221006E-03 -0.11171960599E-01 -0.91317010268E-02  0.14451527139E-01  0.00000000000E+00 0. -1.
     999901    1    3    3    0    0 -0.72325147666E-01 -0.39382424425E-01  0.10751000839E+00  0.89035964882E+00  0.88000000000E+00 0.  1.
        -11    1    4    4    0    0  0.20494634504E-01  0.17970417949E-01 -0.63834708776E-01  0.69412514219E-01  0.51100000000E-03 0. -1.
         11    1    4    4    0    0  0.51026790952E-01  0.32583967076E-01 -0.34543598584E-01  0.69706309825E-01  0.51100000000E-03 0.  1.
</event>
<event>
 8    1  0.2877139E+004  0.1043930E+01  0.7957747E-01            NaN
         13   -1    0    0    0    0  0.00000000000E+00  0.00000000000E+00  0.74505805969E-08  0.10566000000E+00  0.10566000000E+00 0.  1.
     999900   -1    0    0    0    0 -0.00000000000E+00 -0.00000000000E+00 -0.74505805969E-08  0.93827000000E+00  0.93827000000E+00 0. -1.
     999902    2    1    2    0    0  0.11542573014E-01 -0.18381565606E-01 -0.37209458483E-02  0.10219082293E+01  0.10216709210E+01 0.  0.
     999903    2    3    3    0    0 -0.11453884025E+00  0.33067911121E-01 -0.30173683874E-01  0.13104161822E+00  0.45263913160E-01 0.  0.
         14    1    1    2    0    0 -0.11542573014E-01  0.18381565606E-01  0.37209458483E-02  0.22021770681E-01  0.00000000000E+00 0.  1.
     999901    1    3    3    0    0  0.12608141327E+00 -0.51449476727E-01  0.26452738025E-01  0.89086661110E+00  0.88000000000E+00 0.  1.
        -11    1    4    4    0    0 -0.83485213021E-01  0.37428451484E-01 -0.37425968741E-01  0.98851575763E-01  0.51100000000E-03 0. -1.
         11    1    4    4    0    0 -0.31053627230E-01 -0.43605403631E-02  0.72522848675E-02  0.32190042454E-01  0.51100000000E-03 0.  1.
</event>
<event>
 8    1  0.2877139E+004  0.1043930E+01  0.7957747E-01            NaN
         13   -1    0    0    0    0  0.00000000000E+00  0.00000000000E+00  0.74505805969E-08  0.10566000000E+00  0.10566000000E+00 0.  1.
     999900   -1    0    0    0    0 -0.00000000000E+00 -0.00000000000E+00 -0.74505805969E-08  0.93827000000E+00  0.93827000000E+00 0. -1.
     999902    2    1    2    0    0 -0.89978656054E-02 -0.65329266223E-02  0.74496800340E-02  0.10305457388E+01  0.10304588208E+01 0.  0.
     999903    2    3    3    0    0 -0.50694091048E-01  0.21093581715E-01  0.12259190470E+00  0.14163655834E+00  0.44914468737E-01 0.  0.
         14    1    1    2    0    0  0.89978656054E-02  0.65329266223E-02 -0.74496800340E-02  0.13384261217E-01  0.00000000000E+00 0.  1.
     999901    1    3    3    0    0  0.41696225443E-01 -0.27626508337E-01 -0.11514222467E+00  0.88890918045E+00  0.88000000000E+00 0. -1.
        -11    1    4    4    0    0 -0.50298141702E-01  0.51500999833E-02  0.67863466714E-01  0.84629414650E-01  0.51100000000E-03 0. -1.
         11    1    4    4    0    0 -0.39594934626E-03  0.15943481732E-01  0.54728437990E-01  0.57007143688E-01  0.51100000000E-03 0.  1.
</event>
<event>
 8    1  0.2877139E+004  0.1043930E+01  0.7957747E-01            NaN
         13   -1    0    0    0    0  0.00000000000E+00  0.00000000000E+00  0.74505805969E-08  0.10566000000E+00  0.10566000000E+00 0. -1.
     999900   -1    0    0    0    0 -0.00000000000E+00 -0.00000000000E+00 -0.74505805969E-08  0.93827000000E+00  0.93827000000E+00 0.  1.
     999902    2    1    2    0    0 -0.12319905729E-02 -0.13572805506E-02  0.13913981370E-01  0.10298957958E+01  0.10298001705E+01 0.  0.
     999903    2    3    3    0    0 -0.86661832937E-01  0.73931344010E-01 -0.65500547687E-01  0.13901235648E+00  0.45365147309E-01 0.  0.
         14    1    1    2    0    0  0.12319905729E-02  0.13572805506E-02 -0.13913981370E-01  0.14034204246E-01  0.00000000000E+00 0.  1.
     999901    1    3    3    0    0  0.85429842365E-01 -0.75288624561E-01  0.79414529057E-01  0.89088343928E+00  0.88000000000E+00 0.  1.
        -11    1    4    4    0    0 -0.28378428524E-01  0.22352449210E-03 -0.11437386489E-01  0.30601635567E-01  0.51100000000E-03 0. -1.
         11    1    4    4    0    0 -0.58283404413E-01  0.73707819518E-01 -0.54063161198E-01  0.10841072091E+00  0.51100000000E-03 0.  1.
</event>
<event>
 8    1  0.2877139E+004  0.1043930E+01  0.7957747E-01            NaN
         13   -1    0    0    0    0  0.00000000000E+00  0.00000000000E+00  0.74505805969E-08  0.10566000000E+00  0.10566000000E+00 0.  1.
     999900   -1    0    0    0    0 -0.00000000000E+00 -0.00000000000E+00 -0.74505805969E-08  0.93827000000E+00  0.93827000000E+00 0. -1.
     999902    2    1    2    0    0 -0.23748468130E-03 -0.10950312682E-01 -0.84469785109E-02  0.10300982542E+01  0.10300053864E+01 0.  0.
     999903    2    3    3    0    0  0.10626277842E+00 -0.76752055408E-01  0.25152553221E-01  0.14060339532E+00  0.44204159924E-01 0.  0.
         14    1    1    2    0    0  0.23748468130E-03  0.10950312682E-01  0.84469785109E-02  0.13831745833E-01  0.00000000000E+00 0.  1.
     999901    1    3    3    0    0 -0.10650026310E+00  0.65801742725E-01 -0.33599531732E-01  0.88949485885E+00  0.88000000000E+00 0. -1.
        -11    1    4    4    0    0  0.68755597599E-01 -0.73549072958E-01  0.18849530012E-01  0.10243224217E+00  0.51100000000E-03 0. -1.
         11    1    4    4    0    0  0.37507180822E-01 -0.32029824493E-02  0.63030232087E-02  0.38171153144E-01  0.51100000000E-03 0.  1.
</event>
<event>
 8    1  0.2877139E+004  0.1043930E+01  0.7957747E-01            NaN
         13   -1    0    0    0    0  0.00000000000E+00  0.00000000000E+00  0.74505805969E-08  0.10566000000E+00  0.10566000000E+00 0. -1.
     999900   -1    0    0    0    0 -0.00000000000E+00 -0.00000000000E+00 -0.74505805969E-08  0.93827000000E+00  0.93827000000E+00 0. -1.
     999902    2    1    2    0    0  0.31396825405E-02 -0.23973040633E-03  0.12462126262E-01  0.10310762197E+01  0.10309960966E+01 0.  0.
     999903    2    3    3    0    0 -0.12452575746E+00  0.40179569418E-01 -0.23261763336E-01  0.14022921787E+00  0.44744405700E-01 0.  0.
         14    1    1    2    0    0 -0.31396825405E-02  0.23973040633E-03 -0.12462126262E-01  0.12853780304E-01  0.00000000000E+00 0.  1.
     999901    1    3    3    0    0  0.12766544000E+00 -0.40419299824E-01  0.35723889598E-01  0.89084700182E+00  0.88000000000E+00 0. -1.
        -11    1    4    4    0    0 -0.19796159396E-01  0.57884813033E-02  0.12761809433E-01  0.24259417627E-01  0.51100000000E-03 0. -1.
         11    1    4    4    0    0 -0.10472959807E+00  0.34391088114E-01 -0.36023572768E-01  0.11596980025E+00  0.51100000000E-03 0.  1.
</event>
<event>
 8    1  0.2877139E+004  0.1043930E+01  0.7957747E-01            NaN
         13   -1    0    0    0    0  0.00000000000E+00  0.00000000000E+00  0.74505805969E-08  0.10566000000E+00  0.10566000000E+00 0.  1.
     999900   -1    0    0    0    0 -0.00000000000E+00 -0.00000000000E+00 -0.74505805969E-08  0.93827000000E+00  0.93827000000E+00 0.  1.
     999902    2    1    2    0    0  0.90348356487E-02  0.28870762279E-02 -0.13068582730E-01  0.10277822039E+01  0.10276553446E+01 0.  0.
     999903    2    3    3    0    0  0.26567151152E-01 -0.91575731656E-01 -0.90969272792E-01  0.13913203557E+00  0.44613748786E-01 0.  0.
         14    1    1    2    0    0 -0.90348356487E-02 -0.28870762279E-02  0.13068582730E-01  0.16147796101E-01  0.00000000000E+00 0.  1.
     999901    1    3    3    0    0 -0.17532315503E-01  0.94462807884E-01  0.77900690062E-01  0.88865016833E+00  0.88000000000E+00 0.  1.
        -11    1    4    4    0    0  0.31216272121E-01 -0.35271632328E-01 -0.29196279669E-01  0.55418657144E-01  0.51100000000E-03 0.  1.
         11    1    4    4    0    0 -0.46491209688E-02 -0.56304099329E-01 -0.61772993123E-01  0.83713378425E-01  0.51100000000E-03 0. -1.
</event>
<event>
 8    1  0.2877139E+004  0.1043930E+01  0.7957747E-01            NaN
         13   -1    0    0    0    0  0.00000000000E+00  0.00000000000E+00  0.74505805969E-08  0.10566000000E+00  0.10566000000E+00 0.  1.
     999900   -1    0    0    0    0 -0.00000000000E+00 -0.00000000000E+00 -0.74505805969E-08  0.93827000000E+00  0.93827000000E+00 0. -1.
     999902    2    1    2    0    0  0.13279390551E-01  0.56425447583E-02 -0.38057581492E-02  0.10290080591E+01  0.10288998598E+01 0.  0.
     999903    2    3    3    0    0  0.10734575179E+00 -0.58804889246E-01  0.50725084490E-01  0.13997737074E+00  0.45160875740E-01 0.  0.
         14    1    1    2    0    0 -0.13279390551E-01 -0.56425447583E-02  0.38057581492E-02  0.14921940888E-01  0.00000000000E+00 0.  1.
     999901    1    3    3    0    0 -0.94066361234E-01  0.64447434005E-01 -0.54530842639E-01  0.88903068837E+00  0.88000000000E+00 0.  1.
        -11    1    4    4    0    0  0.13621647847E-01 -0.26420175071E-01  0.21194908571E-01  0.36511097096E-01  0.51100000000E-03 0. -1.
         11    1    4    4    0    0  0.93724103938E-01 -0.32384714176E-01  0.29530175918E-01  0.10346627365E+00  0.51100000000E-03 0.  1.
</event>
<event>
 8    1  0.2877139E+004  0.1043930E+01  0.7957747E-01            NaN
         13   -1    0    0    0    0  0.00000000000E+00  0.00000000000E+00  0.74505805969E-08  0.10566000000E+00  0.10566000000E+00 0. -1.
     999900   -1    0    0    0    0 -0.00000000000E+00 -0.00000000000E+00 -0.74505805969E-08  0.93827000000E+00  0.93827000000E+00 0. -1.
     999902    2    1    2    0    0  0.28010541847E-02  0.12474552568E-01 -0.42509554620E-02  0.10304566564E+01  0.10303685698E+01 0.  0.
     999903    2    3    3    0    0 -0.29671832896E-01 -0.12579563705E+00 -0.19018245854E-01  0.13894602458E+00  0.47321708581E-01 0.  0.
         14    1    1    2    0    0 -0.28010541847E-02 -0.12474552568E-01  0.42509554620E-02  0.13473343633E-01  0.00000000000E+00 0. -1.
     999901    1    3    3    0    0  0.32472887081E-01  0.13827018961E+00  0.14767290392E-01  0.89151063179E+00  0.88000000000E+00 0.  1.
        -11    1    4    4    0    0  0.24405145473E-02 -0.45083179314E-01  0.11978402121E-01  0.46713942316E-01  0.51100000000E-03 0. -1.
         11    1    4    4    0    0 -0.32112347443E-01 -0.80712457731E-01 -0.30996647975E-01  0.92232082259E-01  0.51100000000E-03 0.  1.
</event>
<event>
 8    1  0.2877139E+004  0.1043930E+01  0.7957747E-01            NaN
         13   -1    0    0    0    0  0.00000000000E+00  0.00000000000E+00  0.74505805969E-08  0.10566000000E+00  0.10566000000E+00 0. -1.
     999900   -1    0    0    0    0 -0.00000000000E+00 -0.00000000000E+00 -0.74505805969E-08  0.93827000000E+00  0.93827000000E+00 0. -1.
     999902    2    1    2    0    0  0.74340080951E-02  0.92459698933E-02  0.70955060168E-02  0.10301061568E+01  0.10300133958E+01 0.  0.
     999903    2    3    3    0    0  0.31498684775E-01  0.53817820494E-01  0.11841463136E+00  0.14164810702E+00  0.46407287759E-01 0.  0.
         14    1    1    2    0    0 -0.74340080951E-02 -0.92459698933E-02 -0.70955060168E-02  0.13823843216E-01  0.00000000000E+00 0.  1.
     999901    1    3    3    0    0 -0.24064676680E-01 -0.44571850601E-01 -0.11131912534E+00  0.88845804977E+00  0.88000000000E+00 0. -1.
        -11    1    4    4    0    0  0.42886789885E-02  0.22455388479E-01  0.85948864603E-01  0.88938774934E-01  0.51100000000E-03 0. -1.
         11    1    4    4    0    0  0.27210005787E-01  0.31362432015E-01  0.32465766753E-01  0.52709332083E-01  0.51100000000E-03 0.  1.
</event>
<event>
 8    1  0.2877139E+004  0.1043930E+01  0.7957747E-01            NaN
         13   -1    0    0    0    0  0.00000000000E+00  0.00000000000E+00  0.74505805969E-08  0.10566000000E+00  0.10566000000E+00 0.  1.
     999900   -1    0    0    0    0 -0.00000000000E+00 -0.00000000000E+00 -0.74505805969E-08  0.93827000000E+00  0.93827000000E+00 0.  1.
     999902    2    1    2    0    0  0.95047666525E-02 -0.87006911705E-02  0.62783730688E-02  0.10295961037E+01  0.10294963215E+01 0.  0.
     999903    2    3    3    0    0  0.10660651443E-01  0.93814144936E-01  0.92248164587E-01  0.13948294639E+00  0.45066896765E-01 0.  0.
         14    1    1    2    0    0 -0.95047666525E-02  0.87006911705E-02 -0.62783730688E-02  0.14333896342E-01  0.00000000000E+00 0. -1.
     999901    1    3    3    0    0 -0.11558847900E-02 -0.10251483611E+00 -0.85969791518E-01  0.89011315727E+00  0.88000000000E+00 0.  1.
        -11    1    4    4    0    0 -0.17792875316E-01  0.38283871239E-01  0.37871410569E-01  0.56716365086E-01  0.51100000000E-03 0.  1.
         11    1    4    4    0    0  0.28453526758E-01  0.55530273697E-01  0.54376754018E-01  0.82766581302E-01  0.51100000000E-03 0. -1.
</event>
<event>
 8    1  0.2877139E+004  0.1043930E+01  0.7957747E-01            NaN
         13   -1    0    0    0    0  0.00000000000E+00  0.00000000000E+00  0.74505805969E-08  0.10566000000E+00  0.10566000000E+00 0. -1.
     999900   -1    0    0    0    0 -0.00000000000E+00 -0.00000000000E+00 -0.74505805969E-08  0.93827000000E+00  0.93827000000E+00 0.  1.
     999902    2    1    2    0    0 -0.38650295950E-02 -0.11167789115E-01  0.82557306445E-02  0.10295142081E+01  0.10294132745E+01 0.  0.
     999903    2    3    3    0    0  0.45158814633E-01  0.11843080179E+00  0.93970602254E-02  0.13867166607E+00  0.55464879684E-01 0.  0.
         14    1    1    2    0    0  0.38650295950E-02  0.11167789115E-01 -0.82557306445E-02  0.14415791895E-01  0.00000000000E+00 0. -1.
     999901    1    3    3    0    0 -0.49023844228E-01 -0.12959859090E+00 -0.11413295810E-02  0.89084254204E+00  0.88000000000E+00 0.  1.
        -11    1    4    4    0    0 -0.56744662315E-02  0.98077639222E-02 -0.12369053653E-01  0.16782324316E-01  0.51100000000E-03 0. -1.
         11    1    4    4    0    0  0.50833280865E-01  0.10862303787E+00  0.21766113879E-01  0.12188934175E+00  0.51100000000E-03 0.  1.
</event>
<event>
 8    1  0.2877139E+004  0.1043930E+01  0.7957747E-01            NaN
         13   -1    0    0    0    0  0.00000000000E+00  0.00000000000E+00  0.74505805969E-08  0.10566000000E+00  0.10566000000E+00 0. -1.
     999900   -1    0    0    0    0 -0.00000000000E+00 -0.00000000000E+00 -0.74505805969E-08  0.93827000000E+00  0.93827000000E+00 0. -1.
     999902    2    1    2    0    0 -0.12984689666E-01 -0.37437757184E-02 -0.18653345176E-02  0.10302882444E+01  0.10301979271E+01 0.  0.
     999903    2    3    3    0    0 -0.43647881824E-01  0.38868226018E-01  0.11920489076E+00  0.14044892550E+00  0.45828136680E-01 0.  0.
         14    1    1    2    0    0  0.12984689666E-01  0.37437757184E-02  0.18653345176E-02  0.13641755576E-01  0.00000000000E+00 0. -1.
     999901    1    3    3    0    0  0.30663192158E-01 -0.42612001737E-01 -0.12107022528E+00  0.88983931892E+00  0.88000000000E+00 0. -1.
        -11    1    4    4    0    0 -0.18748332249E-02  0.31830120524E-01  0.52647239480E-01  0.61552128461E-01  0.51100000000E-03 0. -1.
         11    1    4    4    0    0 -0.41773048599E-01  0.70381054945E-02  0.66557651284E-01  0.78896797043E-01  0.51100000000E-03 0.  1.
</event>
<event>
 8    1  0.2877139E+004  0.1043930E+01  0.7957747E-01            NaN
         13   -1    0    0    0    0  0.00000000000E+00  0.00000000000E+00  0.74505805969E-08  0.10566000000E+00  0.10566000000E+00 0.  1.
     999900   -1    0    0    0    0 -0.00000000000E+00 -0.00000000000E+00 -0.74505805969E-08  0.93827000000E+00  0.93827000000E+00 0.  1.
     999902    2    1    2    0    0  0.36384783350E-02 -0.37889893129E-02 -0.11830227848E-01  0.10309859181E+01  0.10309046581E+01 0.  0.
     999903    2    3    3    0    0  0.42366639728E-02 -0.10439124783E+00 -0.85263506959E-01  0.14221507099E+00  0.45163910954E-01 0.  0.
         14    1    1    2    0    0 -0.36384783350E-02  0.37889893129E-02  0.11830227848E-01  0.12944081874E-01  0.00000000000E+00 0.  1.
     999901    1    3    3    0    0 -0.59818563785E-03  0.10060225851E+00  0.73433279110E-01  0.88877084714E+00  0.88000000000E+00 0. -1.
        -11    1    4    4    0    0 -0.16130510774E-01 -0.81732877778E-01 -0.60764160842E-01  0.10311644414E+00  0.51100000000E-03 0. -1.
         11    1    4    4    0    0  0.20367174747E-01 -0.22658370048E-01 -0.24499346117E-01  0.39098626850E-01  0.51100000000E-03 0.  1.
</event>
<event>
 8    1  0.2877139E+004  0.1043930E+01  0.7957747E-01            NaN
         13   -1    0    0    0    0  0.00000000000E+00  0.00000000000E+00  0.74505805969E-08  0.10566000000E+00  0.10566000000E+00 0. -1.
     999900   -1    0    0    0    0 -0.00000000000E+00 -0.00000000000E+00 -0.74505805969E-08  0.93827000000E+00  0.93827000000E+00 0. -1.
     999902    2    1    2    0    0 -0.27268272735E-02 -0.13093350322E-01  0.13842092150E-02  0.10304842778E+01  0.10303965544E+01 0.  0.
     999903    2    3    3    0    0  0.40209907613E-01 -0.12792192550E+00 -0.12179104062E-01  0.14188249505E+00  0.44737636656E-01 0.  0.
         14    1    1    2    0    0  0.27268272735E-02  0.13093350322E-01 -0.13842092150E-02  0.13445722174E-01  0.00000000000E+00 0. -1.
     999901    1    3    3    0    0 -0.42936734886E-01  0.11482857518E+00  0.13563313277E-01  0.88860178277E+00  0.88000000000E+00 0. -1.
        -11    1    4    4    0    0 -0.44895018057E-02 -0.44080753401E-01  0.72542248169E-02  0.44901596247E-01  0.51100000000E-03 0. -1.
         11    1    4    4    0    0  0.44699409419E-01 -0.83841172097E-01 -0.19433328879E-01  0.96980898806E-01  0.51100000000E-03 0.  1.
</event>
<event>
 8    1  0.2877139E+004  0.1043930E+01  0.7957747E-01            NaN
         13   -1    0    0    0    0  0.00000000000E+00  0.00000000000E+00  0.74505805969E-08  0.10566000000E+00  0.10566000000E+00 0. -1.
     999900   -1    0    0    0    0 -0.00000000000E+00 -0.00000000000E+00 -0.74505805969E-08  0.93827000000E+00  0.93827000000E+00 0.  1.
     999902    2    1    2    0    0  0.63728428220E-02 -0.11980549597E-01 -0.11148023119E-02  0.10303142195E+01  0.10302242481E+01 0.  0.
     999903    2    3    3    0    0 -0.10761736121E+00 -0.56962994094E-01 -0.51950714165E-01  0.14036957130E+00  0.46673983285E-01 0.  0.
         14    1    1    2    0    0 -0.63728428220E-02  0.11980549597E-01  0.11148023119E-02  0.13615780495E-01  0.00000000000E+00 0. -1.
     999901    1    3    3    0    0  0.11399020403E+00  0.44982444497E-01  0.50835911853E-01  0.88994464820E+00  0.88000000000E+00 0.  1.
        -11    1    4    4    0    0 -0.62699957642E-01 -0.31888734121E-01 -0.54310115440E-01  0.88870837806E-01  0.51100000000E-03 0.  1.
         11    1    4    4    0    0 -0.44917403569E-01 -0.25074259973E-01  0.23594012751E-02  0.51498733498E-01  0.51100000000E-03 0. -1.
</event>
<event>
 8    1  0.2877139E+004  0.1043930E+01  0.7957747E-01            NaN
         13   -1    0    0    0    0  0.00000000000E+00  0.00000000000E+00  0.74505805969E-08  0.10566000000E+00  0.10566000000E+00 0.  1.
     999900   -1    0    0    0    0 -0.00000000000E+00 -0.00000000000E+00 -0.74505805969E-08  0.93827000000E+00  0.93827000000E+00 0. -1.
     999902    2    1    2    0    0  0.15575601310E-02 -0.11806209950E-01 -0.79587440099E-02  0.10296067953E+01  0.10295071630E+01 0.  0.
     999903    2    3    3    0    0 -0.11716775386E+00  0.56520682857E-01 -0.96349653058E-02  0.13900751717E+00  0.48035269738E-01 0.  0.
         14    1    1    2    0    0 -0.15575601310E-02  0.11806209950E-01  0.79587440099E-02  0.14323204710E-01  0.00000000000E+00 0.  1.
     999901    1    3    3    0    0  0.11872531399E+00 -0.68326892807E-01  0.16762212959E-02  0.89059927812E+00  0.88000000000E+00 0.  1.
        -11    1    4    4    0    0 -0.26448758071E-01  0.37120586023E-01  0.12517490788E-02  0.45599371782E-01  0.51100000000E-03 0. -1.
         11    1    4    4    0    0 -0.90718995791E-01  0.19400096834E-01 -0.10886714385E-01  0.93408145392E-01  0.51100000000E-03 0.  1.
</event>
<event>
 8    1  0.2877139E+004  0.1043930E+01  0.7957747E-01            NaN
         13   -1    0    0    0    0  0.00000000000E+00  0.00000000000E+00  0.74505805969E-08  0.10566000000E+00  0.10566000000E+00 0.  1.
     999900   -1    0    0    0    0 -0.00000000000E+00 -0.00000000000E+00 -0.74505805969E-08  0.93827000000E+00  0.93827000000E+00 0. -1.
     999902    2    1    2    0    0 -0.56956754717E-02  0.33400042525E-02 -0.11741738077E-01  0.10304591143E+01  0.10303710601E+01 0.  0.
     999903    2    3    3    0    0 -0.34066539323E-01  0.11517562387E+00 -0.58385168100E-01  0.14170283656E+00  0.47380508635E-01 0.  0.
         14    1    1    2    0    0  0.56956754717E-02 -0.33400042525E-02  0.11741738077E-01  0.13470885663E-01  0.00000000000E+00 0.  1.
     999901    1    3    3    0    0  0.28370863852E-01 -0.11183561962E+00  0.46643430023E-01  0.88875627778E+00  0.88000000000E+00 0.  1.
        -11    1    4    4    0    0 -0.18872067473E-01  0.20372585811E-01  0.26969411122E-02  0.27905766353E-01  0.51100000000E-03 0.  1.
         11    1    4    4    0    0 -0.15194471850E-01  0.94803038059E-01 -0.61082109212E-01  0.11379707020E+00  0.51100000000E-03 0. -1.
</event>
<event>
 8    1  0.2877139E+004  0.1043930E+01  0.7957747E-01            NaN
         13   -1    0    0    0    0  0.00000000000E+00  0.00000000000E+00  0.74505805969E-08  0.10566000000E+00  0.10566000000E+00 0. -1.
     999900   -1    0    0    0    0 -0.00000000000E+00 -0.00000000000E+00 -0.74505805969E-08  0.93827000000E+00  0.93827000000E+00 0. -1.
     999902    2    1    2    0    0  0.83872182467E-02  0.92728659510E-02 -0.47295184829E-02  0.10305621349E+01  0.10304754311E+01 0.  0.
     999903    2    3    3    0    0 -0.76906601130E-01  0.90220485615E-01 -0.61167576386E-01  0.14094828205E+00  0.45503675580E-01 0.  0.
         14    1    1    2    0    0 -0.83872182467E-02 -0.92728659510E-02  0.47295184829E-02  0.13367865123E-01  0.00000000000E+00 0. -1.
     999901    1    3    3    0    0  0.85293819377E-01 -0.80947619664E-01  0.56438057904E-01  0.88961385282E+00  0.88000000000E+00 0.  1.
        -11    1    4    4    0    0 -0.21113000938E-01  0.48642980714E-01 -0.85600208943E-02  0.53716230881E-01  0.51100000000E-03 0. -1.
         11    1    4    4    0    0 -0.55793600192E-01  0.41577504901E-01 -0.52607555492E-01  0.87232051174E-01  0.51100000000E-03 0.  1.
</event>
<event>
 8    1  0.2877139E+004  0.1043930E+01  0.7957747E-01            NaN
         13   -1    0    0    0    0  0.00000000000E+00  0.00000000000E+00  0.74505805969E-08  0.10566000000E+00  0.10566000000E+00 0. -1.
     999900   -1    0    0    0    0 -0.00000000000E+00 -0.00000000000E+00 -0.74505805969E-08  0.93827000000E+00  0.93827000000E+00 0.  1.
     999902    2    1    2    0    0 -0.38238281471E-02  0.13436988307E-01 -0.17828962473E-02  0.10298462137E+01  0.10297499070E+01 0.  0.
     999903    2    3    3    0    0 -0.11179227217E+00  0.28315505720E-01 -0.65792095404E-01  0.14081543094E+00  0.46915943896E-01 0.  0.
         14    1    1    2    0    0  0.38238281471E-02 -0.13436988307E-01  0.17828962473E-02  0.14083786262E-01  0.00000000000E+00 0.  1.
     999901    1    3    3    0    0  0.10796844402E+00 -0.14878517413E-01  0.64009199157E-01  0.88903078280E+00  0.88000000000E+00 0. -1.
        -11    1    4    4    0    0 -0.66257214157E-01  0.11207897855E-01 -0.11953392162E-01  0.68255256994E-01  0.51100000000E-03 0. -1.
         11    1    4    4    0    0 -0.45535058015E-01  0.17107607865E-01 -0.53838703242E-01  0.72560173946E-01  0.51100000000E-03 0.  1.
</event>
<event>
 8    1  0.2877139E+004  0.1043930E+01  0.7957747E-01            NaN
         13   -1    0    0    0    0  0.00000000000E+00  0.00000000000E+00  0.74505805969E-08  0.10566000000E+00  0.10566000000E+00 0.  1.
     999900   -1    0    0    0    0 -0.00000000000E+00 -0.00000000000E+00 -0.74505805969E-08  0.93827000000E+00  0.93827000000E+00 0. -1.
     999902    2    1    2    0    0 -0.57004682342E-02 -0.11843640777E-01  0.32376214948E-02  0.10303930373E+01  0.10303041114E+01 0.  0.
     999903    2    3    3    0    0  0.13610539729E-01 -0.13284062235E+00 -0.15423610163E-01  0.14170781403E+00  0.44847954991E-01 0.  0.
         14    1    1    2    0    0  0.57004682342E-02  0.11843640777E-01 -0.32376214948E-02  0.13536962654E-01  0.00000000000E+00 0. -1.
     999901    1    3    3    0    0 -0.19311007963E-01  0.12099698158E+00  0.18661231658E-01  0.88868522332E+00  0.88000000000E+00 0. -1.
        -11    1    4    4    0    0 -0.14299491322E-01 -0.24967487409E-01  0.23502024831E-02  0.28872745839E-01  0.51100000000E-03 0. -1.
         11    1    4    4    0    0  0.27910031050E-01 -0.10787313494E+00 -0.17773812646E-01  0.11283506819E+00  0.51100000000E-03 0.  1.
</event>
<event>
 8    1  0.2877139E+004  0.1043930E+01  0.7957747E-01            NaN
         13   -1    0    0    0    0  0.00000000000E+00  0.00000000000E+00  0.74505805969E-08  0.10566000000E+00  0.10566000000E+00 0.  1.
     999900   -1    0    0    0    0 -0.00000000000E+00 -0.00000000000E+00 -0.74505805969E-08  0.93827000000E+00  0.93827000000E+00 0.  1.
     999902    2    1    2    0    0 -0.76672621750E-02  0.11005628228E-01  0.35545794151E-02  0.10300539128E+01  0.10299604446E+01 0.  0.
     999903    2    3    3    0    0 -0.25405612677E-01 -0.99330609832E-01  0.82674569782E-01  0.13946494620E+00  0.45862528541E-01 0.  0.
         14    1    1    2    0    0  0.76672621750E-02 -0.11005628228E-01 -0.35545794151E-02  0.13876087228E-01  0.00000000000E+00 0.  1.
     999901    1    3    3    0    0  0.17738350502E-01  0.11033623806E+00 -0.79119990367E-01  0.89058896657E+00  0.88000000000E+00 0.  1.
        -11    1    4    4    0    0  0.53905925815E-02 -0.76282463295E-03  0.15082202521E-01  0.16042890753E-01  0.51100000000E-03 0.  1.
         11    1    4    4    0    0 -0.30796205258E-01 -0.98567785199E-01  0.67592367260E-01  0.12342205545E+00  0.51100000000E-03 0. -1.
</event>
<event>
 8    1  0.2877139E+004  0.1043930E+01  0.7957747E-01            NaN
         13   -1    0    0    0    0  0.00000000000E+00  0.00000000000E+00  0.74505805969E-08  0.10566000000E+00  0.10566000000E+00 0.  1.
     999900   -1    0    0    0    0 -0.00000000000E+00 -0.00000000000E+00 -0.74505805969E-08  0.93827000000E+00  0.93827000000E+00 0. -1.
     999902    2    1    2    0    0 -0.44100486991E-04  0.21968564310E-02 -0.21929087005E-01  0.10218911030E+01  0.10216534214E+01 0.  0.
     999903    2    3    3    0    0  0.21287695555E-01  0.11909605708E+00 -0.36554417271E-01  0.13378391979E+00  0.43873397149E-01 0.  0.
         14    1    1    2    0    0  0.44100486991E-04 -0.21968564310E-02  0.21929087005E-01  0.22038896976E-01  0.00000000000E+00 0.  1.
     999901    1    3    3    0    0 -0.21331796042E-01 -0.11689920065E+00  0.14625330266E-01  0.88810718324E+00  0.88000000000E+00 0.  1.
        -11    1    4    4    0    0  0.28733316219E-01  0.40955711415E-01 -0.10939421344E-01  0.51214312636E-01  0.51100000000E-03 0.  1.
         11    1    4    4    0    0 -0.74456206637E-02  0.78140345663E-01 -0.25614995926E-01  0.82569607149E-01  0.51100000000E-03 0. -1.
</event>
<event>
 7    1  0.2877139E+004  0.1043930E+01  0.7957747E-01            NaN
         13   -1    0    0    0    0  0.00000000000E+00  0.00000000000E+00  0.74505805969E-08  0.10566000000E+00  0.10566000000E+00 0.  1.
     999900   -1    0    0    0    0 -0.00000000000E+00 -0.00000000000E+00 -0.74505805969E-08  0.93827000000E+00  0.93827000000E+00 0. -1.
     999902    2    1    2    0    0  0.19032697276E-02  0.73235285950E-02 -0.12118929357E-01  0.10296427695E+01  0.10295436406E+01 0.  0.
         14    1    1    2    0    0 -0.19032697276E-02 -0.73235285950E-02  0.12118929357E-01  0.14287230505E-01  0.00000000000E+00 0.  1.
     999901    1    3    3    0    0 -0.29311339590E-01  0.82680047140E-01  0.69450022177E-01  0.88708424087E+00  0.88000000000E+00 0. -1.
        -11    1    3    3    0    0 -0.18616594785E-01 -0.25269267167E-01 -0.61597894746E-01  0.69135195253E-01  0.51100000000E-03 0.  1.
         11    1    3    3    0    0  0.49831204102E-01 -0.50087251378E-01 -0.19971056788E-01  0.73423333370E-01  0.51100000000E-03 0. -1.
</event>
<event>
 8    1  0.2877139E+004  0.1043930E+01  0.7957747E-01            NaN
         13   -1    0    0    0    0  0.00000000000E+00  0.00000000000E+00  0.74505805969E-08  0.10566000000E+00  0.10566000000E+00 0. -1.
     999900   -1    0    0    0    0 -0.00000000000E+00 -0.00000000000E+00 -0.74505805969E-08  0.93827000000E+00  0.93827000000E+00 0.  1.
     999902    2    1    2    0    0  0.72687719521E-02  0.84720113901E-02  0.72924749615E-02  0.10305962003E+01  0.10305099407E+01 0.  0.
     999903    2    3    3    0    0  0.80111052491E-01  0.38165899968E-01 -0.99607911103E-01  0.14064371991E+00  0.44547764759E-01 0.  0.
         14    1    1    2    0    0 -0.72687719521E-02 -0.84720113901E-02 -0.72924749615E-02  0.13333799674E-01  0.00000000000E+00 0. -1.
     999901    1    3    3    0    0 -0.72842280539E-01 -0.29693888578E-01  0.10690038606E+00  0.88995248041E+00  0.88000000000E+00 0. -1.
        -11    1    4    4    0    0  0.68919246448E-02 -0.59404810444E-03 -0.34731522286E-01  0.35417386688E-01  0.51100000000E-03 0. -1.
         11    1    4    4    0    0  0.73219127846E-01  0.38759948073E-01 -0.64876388816E-01  0.10522633322E+00  0.51100000000E-03 0.  1.
</event>
<event>
 8    1  0.2877139E+004  0.1043930E+01  0.7957747E-01            NaN
         13   -1    0    0    0    0  0.00000000000E+00  0.00000000000E+00  0.74505805969E-08  0.10566000000E+00  0.10566000000E+00 0. -1.
     999900   -1    0    0    0    0 -0.00000000000E+00 -0.00000000000E+00 -0.74505805969E-08  0.93827000000E+00  0.93827000000E+00 0.  1.
     999902    2    1    2    0    0  0.77019380501E-02  0.12713171480E-01  0.48147314961E-02  0.10283054610E+01  0.10281867510E+01 0.  0.
     999903    2    3    3    0    0 -0.83769776062E-01 -0.58384427729E-01 -0.79805433975E-01  0.13668754089E+00  0.43456412194E-01 0.  0.
         14    1    1    2    0    0 -0.77019380501E-02 -0.12713171480E-01 -0.48147314961E-02  0.15624538975E-01  0.00000000000E+00 0. -1.
     999901    1    3    3    0    0  0.91471714112E-01  0.71097599209E-01  0.84620165471E-01  0.89161792013E+00  0.88000000000E+00 0. -1.
        -11    1    4    4    0    0 -0.46884926307E-01 -0.21829136783E-01 -0.64238568776E-01  0.82471585209E-01  0.51100000000E-03 0. -1.
         11    1    4    4    0    0 -0.36884849755E-01 -0.36555290947E-01 -0.15566865199E-01  0.54215955685E-01  0.51100000000E-03 0.  1.
</event>
<event>
 8    1  0.2877139E+004  0.1043930E+01  0.7957747E-01            NaN
         13   -1    0    0    0    0  0.00000000000E+00  0.00000000000E+00  0.74505805969E-08  0.10566000000E+00  0.10566000000E+00 0.  1.
     999900   -1    0    0    0    0 -0.00000000000E+00 -0.00000000000E+00 -0.74505805969E-08  0.93827000000E+00  0.93827000000E+00 0. -1.
     999902    2    1    2    0    0 -0.95102503506E-02  0.93582578820E-02 -0.41750095349E-04  0.10305874517E+01  0.10305010781E+01 0.  0.
     999903    2    3    3    0    0  0.69304839459E-02 -0.10731024913E+00  0.76475867532E-01  0.13944392561E+00  0.45083576805E-01 0.  0.
         14    1    1    2    0    0  0.95102503506E-02 -0.93582578820E-02  0.41750095349E-04  0.13342548309E-01  0.00000000000E+00 0. -1.
     999901    1    3    3    0    0 -0.16440734297E-01  0.11666850701E+00 -0.76517617627E-01  0.89114352608E+00  0.88000000000E+00 0.  1.
        -11    1    4    4    0    0  0.23703959036E-01 -0.43122025676E-01  0.41887008452E-01  0.64623288143E-01  0.51100000000E-03 0. -1.
         11    1    4    4    0    0 -0.16773475090E-01 -0.64188223456E-01  0.34588859080E-01  0.74820637464E-01  0.51100000000E-03 0.  1.
</event>
<event>
 8    1  0.2877139E+004  0.1043930E+01  0.7957747E-01            NaN
         13   -1    0    0    0    0  0.00000000000E+00  0.00000000000E+00  0.74505805969E-08  0.10566000000E+00  0.10566000000E+00 0.  1.
     999900   -1    0    0    0    0 -0.00000000000E+00 -0.00000000000E+00 -0.74505805969E-08  0.93827000000E+00  0.93827000000E+00 0. -1.
     999902    2    1    2    0    0  0.11292081565E-01 -0.64702970371E-02  0.42438677383E-02  0.10302410898E+01  0.10301501428E+01 0.  0.
     999903    2    3    3    0    0  0.35676091355E-01 -0.34824766529E-01 -0.12326049639E+00  0.14026585487E+00  0.44674514141E-01 0.  0.
         14    1    1    2    0    0 -0.11292081565E-01  0.64702970371E-02 -0.42438677383E-02  0.13688910227E-01  0.00000000000E+00 0. -1.
     999901    1    3    3    0    0 -0.24384009790E-01  0.28354469492E-01  0.12750436413E+00  0.88997523491E+00  0.88000000000E+00 0.  1.
        -11    1    4    4    0    0  0.45241105882E-01 -0.28123051575E-01 -0.11204969181E+00  0.12406876419E+00  0.51100000000E-03 0.  1.
         11    1    4    4    0    0 -0.95650145271E-02 -0.67017149533E-02 -0.11210804581E-01  0.16197090682E-01  0.51100000000E-03 0. -1.
</event>
<event>
 8    1  0.2877139E+004  0.1043930E+01  0.7957747E-01            NaN
         13   -1    0    0    0    0  0.00000000000E+00  0.00000000000E+00  0.74505805969E-08  0.10566000000E+00  0.10566000000E+00 0.  1.
     999900   -1    0    0    0    0 -0.00000000000E+00 -0.00000000000E+00 -0.74505805969E-08  0.93827000000E+00  0.93827000000E+00 0. -1.
     999902    2    1    2    0    0  0.13380036991E-01  0.46685541661E-02 -0.15954815204E-02  0.10296693426E+01  0.10295705846E+01 0.  0.
     999903    2    3    3    0    0  0.95255617804E-01 -0.24022754511E-01  0.90165579122E-01  0.14065477908E+00  0.44757231381E-01 0.  0.
         14    1    1    2    0    0 -0.13380036991E-01 -0.46685541661E-02  0.15954815204E-02  0.14260657389E-01  0.00000000000E+00 0. -1.
     999901    1    3    3    0    0 -0.81875580813E-01  0.28691308677E-01 -0.91761060643E-01  0.88901456354E+00  0.88000000000E+00 0.  1.
        -11    1    4    4    0    0  0.19522488540E-01 -0.85026011409E-02 -0.75087528002E-03  0.21313064530E-01  0.51100000000E-03 0.  1.
         11    1    4    4    0    0  0.75733129264E-01 -0.15520153371E-01  0.90916454402E-01  0.11934171455E+00  0.51100000000E-03 0. -1.
</event>
<event>
 8    1  0.2877139E+004  0.1043930E+01  0.7957747E-01            NaN
         13   -1    0    0    0    0  0.00000000000E+00  0.00000000000E+00  0.74505805969E-08  0.10566000000E+00  0.10566000000E+00 0.  1.
     999900   -1    0    0    0    0 -0.00000000000E+00 -0.00000000000E+00 -0.74505805969E-08  0.93827000000E+00  0.93827000000E+00 0. -1.
     999902    2    1    2    0    0 -0.66795767350E-02 -0.66557353468E-02 -0.98111480383E-02  0.10303221279E+01  0.10302322617E+01 0.  0.
     999903    2    3    3    0    0  0.89905343261E-01  0.77621422677E-01 -0.58440016294E-01  0.13970658063E+00  0.44661360953E-01 0.  0.
         14    1    1    2    0    0  0.66795767350E-02  0.66557353468E-02  0.98111480383E-02  0.13607872141E-01  0.00000000000E+00 0.  1.
     999901    1    3    3    0    0 -0.96584919996E-01 -0.84277158024E-01  0.48628868255E-01  0.89061554723E+00  0.88000000000E+00 0.  1.
        -11    1    4    4    0    0  0.45672153184E-01  0.62070246778E-01 -0.50532341453E-01  0.92154434323E-01  0.51100000000E-03 0.  1.
         11    1    4    4    0    0  0.44233190077E-01  0.15551175899E-01 -0.79076748402E-02  0.47552146309E-01  0.51100000000E-03 0. -1.
</event>
<event>
 8    1  0.2877139E+004  0.1043930E+01  0.7957747E-01            NaN
         13   -1    0    0    0    0  0.00000000000E+00  0.00000000000E+00  0.74505805969E-08  0.10566000000E+00  0.10566000000E+00 0.  1.
     999900   -1    0    0    0    0 -0.00000000000E+00 -0.00000000000E+00 -0.74505805969E-08  0.93827000000E+00  0.93827000000E+00 0. -1.
     999902    2    1    2    0    0 -0.19392946391E-01  0.36242117259E-02  0.19496359767E-01  0.10161932135E+01  0.10158146080E+01 0.  0.
     999903    2    3    3    0    0  0.81730228867E-01 -0.49302804392E-01 -0.65991079686E-01  0.12471395525E+00  0.45696293119E-01 0.  0.
         14    1    1    2    0    0  0.19392946391E-01 -0.36242117259E-02 -0.19496359767E-01  0.27736786485E-01  0.00000000000E+00 0. -1.
     999901    1    3    3    0    0 -0.10112317526E+00  0.52927016118E-01  0.85487439454E-01  0.89147925826E+00  0.88000000000E+00 0.  1.
        -11    1    4    4    0    0  0.29184469000E-01 -0.36219593695E-01 -0.49904809835E-01  0.68222748141E-01  0.51100000000E-03 0. -1.
         11    1    4    4    0    0  0.52545759866E-01 -0.13083210697E-01 -0.16086269852E-01  0.56491207111E-01  0.51100000000E-03 0.  1.
</event>
<event>
 8    1  0.2877139E+004  0.1043930E+01  0.7957747E-01            NaN
         13   -1    0    0    0    0  0.00000000000E+00  0.00000000000E+00  0.74505805969E-08  0.10566000000E+00  0.10566000000E+00 0.  1.
     999900   -1    0    0    0    0 -0.00000000000E+00 -0.00000000000E+00 -0.74505805969E-08  0.93827000000E+00  0.93827000000E+00 0. -1.
     999902    2    1    2    0    0 -0.12345902971E-01  0.46547760171E-02 -0.43995950678E-02  0.10300215602E+01  0.10299276527E+01 0.  0.
     999903    2    3    3    0    0  0.57198966543E-01 -0.33931911467E-04  0.11844242878E+00  0.13875917705E+00  0.44201553765E-01 0.  0.
         14    1    1    2    0    0  0.12345902971E-01 -0.46547760171E-02  0.43995950678E-02  0.13908439765E-01  0.00000000000E+00 0.  1.
     999901    1    3    3    0    0 -0.69544869514E-01  0.46887079286E-02 -0.12284202385E+00  0.89126238319E+00  0.88000000000E+00 0. -1.
        -11    1    4    4    0    0 -0.51416040680E-03 -0.14411304667E-02  0.46446510185E-01  0.46474516107E-01  0.51100000000E-03 0. -1.
         11    1    4    4    0    0  0.57713126950E-01  0.14071985552E-02  0.71995918595E-01  0.92284660943E-01  0.51100000000E-03 0.  1.
</event>
<event>
 8    1  0.2877139E+004  0.1043930E+01  0.7957747E-01            NaN
         13   -1    0    0    0    0  0.00000000000E+00  0.00000000000E+00  0.74505805969E-08  0.10566000000E+00  0.10566000000E+00 0. -1.
     999900   -1    0    0    0    0 -0.00000000000E+00 -0.00000000000E+00 -0.74505805969E-08  0.93827000000E+00  0.93827000000E+00 0. -1.
     999902    2    1    2    0    0 -0.68719277512E-02  0.38550423885E-02 -0.10933574515E-01  0.10304530644E+01  0.10303649305E+01 0.  0.
     999903    2    3    3    0    0  0.38897212608E-01 -0.26619384978E-02  0.12518913245E+00  0.13878794975E+00  0.45493923179E-01 0.  0.
         14    1    1    2    0    0  0.68719277512E-02 -0.38550423885E-02  0.10933574515E-01  0.13476935649E-01  0.00000000000E+00 0. -1.
     999901    1    3    3    0    0 -0.45769140359E-01  0.65169808862E-02 -0.13612270696E+00  0.89166511460E+00  0.88000000000E+00 0. -1.
        -11    1    4    4    0    0  0.19278172054E-01  0.21196711095E-01  0.67910386059E-01  0.73709091262E-01  0.51100000000E-03 0. -1.
         11    1    4    4    0    0  0.19619040554E-01 -0.23858649592E-01  0.57278746391E-01  0.65078858485E-01  0.51100000000E-03 0.  1.
</event>
<event>
 8    1  0.2877139E+004  0.1043930E+01  0.7957747E-01            NaN
         13   -1    0    0    0    0  0.00000000000E+00  0.00000000000E+00  0.74505805969E-08  0.10566000000E+00  0.10566000000E+00 0.  1.
     999900   -1    0    0    0    0 -0.00000000000E+00 -0.00000000000E+00 -0.74505805969E-08  0.93827000000E+00  0.93827000000E+00 0. -1.
     999902    2    1    2    0    0 -0.14059630136E-01  0.50352372818E-03  0.33324709120E-02  0.10294720576E+01  0.10293705287E+01 0.  0.
     999903    2    3    3    0    0  0.34349504126E-01 -0.10797420910E+00  0.67785970535E-01  0.13915463309E+00  0.43940366917E-01 0.  0.
         14    1    1    2    0    0  0.14059630136E-01 -0.50352372818E-03 -0.33324709120E-02  0.14457942388E-01  0.00000000000E+00 0. -1.
     999901    1    3    3    0    0 -0.48409134263E-01  0.10847773282E+00 -0.64453499623E-01  0.89031742452E+00  0.88000000000E+00 0. -1.
        -11    1    4    4    0    0  0.14203667332E-01 -0.49602185104E-01  0.56254347998E-01  0.76334354798E-01  0.51100000000E-03 0. -1.
         11    1    4    4    0    0  0.20145836794E-01 -0.58372023991E-01  0.11531622537E-01  0.62820278289E-01  0.51100000000E-03 0.  1.
</event>
<event>
 8    1  0.2877139E+004  0.1043930E+01  0.7957747E-01            NaN
         13   -1    0    0    0    0  0.00000000000E+00  0.00000000000E+00  0.74505805969E-08  0.10566000000E+00  0.10566000000E+00 0.  1.
     999900   -1    0    0    0    0 -0.00000000000E+00 -0.00000000000E+00 -0.74505805969E-08  0.93827000000E+00  0.93827000000E+00 0. -1.
     999902    2    1    2    0    0  0.18586523333E-01 -0.29181438039E-03  0.22597247406E-02  0.10252043395E+01  0.10250333104E+01 0.  0.
     999903    2    3    3    0    0 -0.16833832265E-01 -0.73724379270E-01 -0.10264620842E+00  0.13523119497E+00  0.45084032451E-01 0.  0.
         14    1    1    2    0    0 -0.18586523333E-01  0.29181438039E-03 -0.22597247406E-02  0.18725660499E-01  0.00000000000E+00 0.  1.
     999901    1    3    3    0    0  0.35420355598E-01  0.73432564890E-01  0.10490593316E+00  0.88997314453E+00  0.88000000000E+00 0. -1.
        -11    1    4    4    0    0 -0.15974427565E-01 -0.17854826472E-02 -0.19667925194E-01  0.25405878980E-01  0.51100000000E-03 0. -1.
         11    1    4    4    0    0 -0.85940469996E-03 -0.71938896623E-01 -0.82978283225E-01  0.10982531599E+00  0.51100000000E-03 0.  1.
</event>
<event>
 8    1  0.2877139E+004  0.1043930E+01  0.7957747E-01            NaN
         13   -1    0    0    0    0  0.00000000000E+00  0.00000000000E+00  0.74505805969E-08  0.10566000000E+00  0.10566000000E+00 0.  1.
     999900   -1    0    0    0    0 -0.00000000000E+00 -0.00000000000E+00 -0.74505805969E-08  0.93827000000E+00  0.93827000000E+00 0.  1.
     999902    2    1    2    0    0 -0.43912469029E-02  0.12626609247E-01  0.10235234985E-02  0.10305224681E+01  0.10304352456E+01 0.  0.
     999903    2    3    3    0    0  0.50862671551E-01 -0.57436050378E-01  0.10758963110E+00  0.13961388300E+00  0.45062138918E-01 0.  0.
         14    1    1    2    0    0  0.43912469029E-02 -0.12626609247E-01 -0.10235234985E-02  0.13407531868E-01  0.00000000000E+00 0. -1.
     999901    1    3    3    0    0 -0.55253918454E-01  0.70062659625E-01 -0.10656610761E+00  0.89090858514E+00  0.88000000000E+00 0.  1.
        -11    1    4    4    0    0  0.69621605424E-02  0.75165270061E-02  0.16534653123E-01  0.19458307546E-01  0.51100000000E-03 0.  1.
         11    1    4    4    0    0  0.43900511009E-01 -0.64952577384E-01  0.91054977981E-01  0.12015557545E+00  0.51100000000E-03 0. -1.
</event>
<event>
 8    1  0.2877139E+004  0.1043930E+01  0.7957747E-01            NaN
         13   -1    0    0    0    0  0.00000000000E+00  0.00000000000E+00  0.74505805969E-08  0.10566000000E+00  0.10566000000E+00 0. -1.
     999900   -1    0    0    0    0 -0.00000000000E+00 -0.00000000000E+00 -0.74505805969E-08  0.93827000000E+00  0.93827000000E+00 0.  1.
     999902    2    1    2    0    0 -0.41013452874E-02 -0.11625210601E-01  0.70470404303E-02  0.10297304460E+01  0.10296325384E+01 0.  0.
     999903    2    3    3    0    0  0.84044895383E-01  0.63878220484E-01  0.79644711855E-01  0.13914583479E+00  0.43293321891E-01 0.  0.
         14    1    1    2    0    0  0.41013452874E-02  0.11625210601E-01 -0.70470404303E-02  0.14199553989E-01  0.00000000000E+00 0.  1.
     999901    1    3    3    0    0 -0.88146240670E-01 -0.75503431084E-01 -0.72597671425E-01  0.89058461122E+00  0.88000000000E+00 0.  1.
        -11    1    4    4    0    0  0.22403110628E-01  0.13179992708E-01  0.45355276778E-01  0.52277852158E-01  0.51100000000E-03 0.  1.
         11    1    4    4    0    0  0.61641784755E-01  0.50698227776E-01  0.34289435077E-01  0.86867982631E-01  0.51100000000E-03 0. -1.
</event>
<event>
 8    1  0.2877139E+004  0.1043930E+01  0.7957747E-01            NaN
         13   -1    0    0    0    0  0.00000000000E+00  0.00000000000E+00  0.74505805969E-08  0.10566000000E+00  0.10566000000E+00 0. -1.
     999900   -1    0    0    0    0 -0.00000000000E+00 -0.00000000000E+00 -0.74505805969E-08  0.93827000000E+00  0.93827000000E+00 0.  1.
     999902    2    1    2    0    0 -0.28304832670E-02 -0.52407108116E-02 -0.13389517055E-01  0.10292754494E+01  0.10291711203E+01 0.  0.
     999903    2    3    3    0    0  0.16286524242E-01 -0.18598474866E-01 -0.13117218181E+00  0.14112194584E+00  0.45805110796E-01 0.  0.
         14    1    1    2    0    0  0.28304832670E-02  0.52407108116E-02  0.13389517055E-01  0.14654550566E-01  0.00000000000E+00 0. -1.
     999901    1    3    3    0    0 -0.19117007509E-01  0.13357764054E-01  0.11778266476E+00  0.88815350360E+00  0.88000000000E+00 0. -1.
        -11    1    4    4    0    0  0.22177309094E-01 -0.11009414760E-01 -0.27512348227E-01  0.37016627047E-01  0.51100000000E-03 0. -1.
         11    1    4    4    0    0 -0.58907848519E-02 -0.75890601058E-02 -0.10365983359E+00  0.10410531879E+00  0.51100000000E-03 0.  1.
</event>
<event>
 8    1  0.2877139E+004  0.1043930E+01  0.7957747E-01            NaN
         13   -1    0    0    0    0  0.00000000000E+00  0.00000000000E+00  0.74505805969E-08  0.10566000000E+00  0.10566000000E+00 0.  1.
     999900   -1    0    0    0    0 -0.00000000000E+00 -0.00000000000E+00 -0.74505805969E-08  0.93827000000E+00  0.93827000000E+00 0. -1.
     999902    2    1    2    0    0 -0.46895055515E-02  0.10976353317E-01 -0.17135073758E-02  0.10318714801E+01  0.10318010194E+01 0.  0.
     999903    2    3    3    0    0  0.13127130060E+00  0.26748884884E-01  0.98054293930E-02  0.14121621601E+00  0.43568520902E-01 0.  0.
         14    1    1    2    0    0  0.46895055515E-02 -0.10976353317E-01  0.17135073758E-02  0.12058519892E-01  0.00000000000E+00 0. -1.
     999901    1    3    3    0    0 -0.13596080616E+00 -0.15772531567E-01 -0.11518936769E-01  0.89065526410E+00  0.88000000000E+00 0. -1.
        -11    1    4    4    0    0  0.87508927074E-01  0.10257170658E-01 -0.13203579023E-01  0.89093307759E-01  0.51100000000E-03 0. -1.
         11    1    4    4    0    0  0.43762373530E-01  0.16491714226E-01  0.23009008416E-01  0.52122908250E-01  0.51100000000E-03 0.  1.
</event>
<event>
 8    1  0.2877139E+004  0.1043930E+01  0.7957747E-01            NaN
         13   -1    0    0    0    0  0.00000000000E+00  0.00000000000E+00  0.74505805969E-08  0.10566000000E+00  0.10566000000E+00 0.  1.
     999900   -1    0    0    0    0 -0.00000000000E+00 -0.00000000000E+00 -0.74505805969E-08  0.93827000000E+00  0.93827000000E+00 0. -1.
     999902    2    1    2    0    0  0.62031944467E-02 -0.12146857172E-01 -0.48621037386E-03  0.10302822104E+01  0.10301918127E+01 0.  0.
     999903    2    3    3    0    0  0.79871221434E-01  0.99947551018E-02  0.10259901330E+00  0.14093200236E+00  0.53441225806E-01 0.  0.
         14    1    1    2    0    0 -0.62031944467E-02  0.12146857172E-01  0.48621037386E-03  0.13647789602E-01  0.00000000000E+00 0. -1.
     999901    1    3    3    0    0 -0.73668026987E-01 -0.22141612274E-01 -0.10308522368E+00  0.88935020804E+00  0.88000000000E+00 0. -1.
        -11    1    4    4    0    0  0.31195145328E-01  0.24639047711E-01  0.70127183525E-01  0.80612050925E-01  0.51100000000E-03 0. -1.
         11    1    4    4    0    0  0.48676076106E-01 -0.14644292609E-01  0.32471829779E-01  0.60319951436E-01  0.51100000000E-03 0.  1.
</event>
<event>
 8    1  0.2877139E+004  0.1043930E+01  0.7957747E-01            NaN
         13   -1    0    0    0    0  0.00000000000E+00  0.00000000000E+00  0.74505805969E-08  0.10566000000E+00  0.10566000000E+00 0. -1.
     999900   -1    0    0    0    0 -0.00000000000E+00 -0.00000000000E+00 -0.74505805969E-08  0.93827000000E+00  0.93827000000E+00 0. -1.
     999902    2    1    2    0    0 -0.86266183253E-02  0.96598244005E-02 -0.49712978388E-02  0.10300575614E+01  0.10299641427E+01 0.  0.
     999903    2    3    3    0    0  0.10037110636E-03  0.61159512388E-01 -0.11903216905E+00  0.14116034541E+00  0.44912023104E-01 0.  0.
         14    1    1    2    0    0  0.86266183253E-02 -0.96598244005E-02  0.49712978388E-02  0.13872438624E-01  0.00000000000E+00 0. -1.
     999901    1    3    3    0    0 -0.87269894316E-02 -0.51499687988E-01  0.11406087121E+00  0.88889721596E+00  0.88000000000E+00 0. -1.
        -11    1    4    4    0    0 -0.10543382629E-01  0.57838773964E-02 -0.52888519377E-01  0.54240877185E-01  0.51100000000E-03 0. -1.
         11    1    4    4    0    0  0.10643753735E-01  0.55375634992E-01 -0.66143649669E-01  0.86919468227E-01  0.51100000000E-03 0.  1.
</event>
<event>
 8    1  0.2877139E+004  0.1043930E+01  0.7957747E-01            NaN
         13   -1    0    0    0    0  0.00000000000E+00  0.00000000000E+00  0.74505805969E-08  0.10566000000E+00  0.10566000000E+00 0.  1.
     999900   -1    0    0    0    0 -0.00000000000E+00 -0.00000000000E+00 -0.74505805969E-08  0.93827000000E+00  0.93827000000E+00 0.  1.
     999902    2    1    2    0    0 -0.58260723137E-02  0.10137372570E-01 -0.75869501611E-02  0.10299918777E+01  0.10298975662E+01 0.  0.
     999903    2    3    3    0    0  0.37016774715E-01 -0.80408769144E-01 -0.98498971030E-01  0.13965536328E+00  0.44336908260E-01 0.  0.
         14    1    1    2    0    0  0.58260723137E-02 -0.10137372570E-01  0.75869501611E-02  0.13938122326E-01  0.00000000000E+00 0.  1.
     999901    1    3    3    0    0 -0.42842847029E-01  0.90546141714E-01  0.90912020868E-01  0.89033651439E+00  0.88000000000E+00 0. -1.
        -11    1    4    4    0    0  0.22963480558E-01 -0.59889092364E-01 -0.94865744661E-01  0.11451548129E+00  0.51100000000E-03 0.  1.
         11    1    4    4    0    0  0.14053294157E-01 -0.20519676780E-01 -0.36332263681E-02  0.25139881994E-01  0.51100000000E-03 0. -1.
</event>
<event>
 8    1  0.2877139E+004  0.1043930E+01  0.7957747E-01            NaN
         13   -1    0    0    0    0  0.00000000000E+00  0.00000000000E+00  0.74505805969E-08  0.10566000000E+00  0.10566000000E+00 0.  1.
     999900   -1    0    0    0    0 -0.00000000000E+00 -0.00000000000E+00 -0.74505805969E-08  0.93827000000E+00  0.93827000000E+00 0. -1.
     999902    2    1    2    0    0  0.65097329258E-02  0.92934787333E-02  0.78843759435E-02  0.10301130266E+01  0.10300203585E+01 0.  0.
     999903    2    3    3    0    0  0.48528690656E-01  0.42638531178E-01 -0.11493290375E+00  0.13996608957E+00  0.46987825084E-01 0.  0.
         14    1    1    2    0    0 -0.65097329258E-02 -0.92934787333E-02 -0.78843759435E-02  0.13816973393E-01  0.00000000000E+00 0. -1.
     999901    1    3    3    0    0 -0.42018957731E-01 -0.33345052445E-01  0.12281727969E+00  0.89014693704E+00  0.88000000000E+00 0.  1.
        -11    1    4    4    0    0  0.15697830748E-01  0.37622107275E-02 -0.22250367952E-02  0.16303006762E-01  0.51100000000E-03 0.  1.
         11    1    4    4    0    0  0.32830859909E-01  0.38876320450E-01 -0.11270786696E+00  0.12366308280E+00  0.51100000000E-03 0. -1.
</event>
<event>
 8    1  0.2877139E+004  0.1043930E+01  0.7957747E-01            NaN
         13   -1    0    0    0    0  0.00000000000E+00  0.00000000000E+00  0.74505805969E-08  0.10566000000E+00  0.10566000000E+00 0. -1.
     999900   -1    0    0    0    0 -0.00000000000E+00 -0.00000000000E+00 -0.74505805969E-08  0.93827000000E+00  0.93827000000E+00 0.  1.
     999902    2    1    2    0    0  0.73301039742E-02 -0.13287472253E-02 -0.10329852819E-01  0.10311941509E+01  0.10311155003E+01 0.  0.
     999903    2    3    3    0    0 -0.91638407767E-01  0.60385826898E-01  0.73820311249E-01  0.13951892689E+00  0.44407732873E-01 0.  0.
         14    1    1    2    0    0 -0.73301039742E-02  0.13287472253E-02  0.10329852819E-01  0.12735849116E-01  0.00000000000E+00 0. -1.
     999901    1    3    3    0    0  0.98968511741E-01 -0.61714574123E-01 -0.84150164067E-01  0.89167522400E+00  0.88000000000E+00 0.  1.
        -11    1    4    4    0    0 -0.39884436501E-01  0.16135403726E-01  0.53094393997E-01  0.68340290630E-01  0.51100000000E-03 0. -1.
         11    1    4    4    0    0 -0.51753971266E-01  0.44250423172E-01  0.20725917252E-01  0.71178636258E-01  0.51100000000E-03 0.  1.
</event>
<event>
 8    1  0.2877139E+004  0.1043930E+01  0.7957747E-01            NaN
         13   -1    0    0    0    0  0.00000000000E+00  0.00000000000E+00  0.74505805969E-08  0.10566000000E+00  0.10566000000E+00 0.  1.
     999900   -1    0    0    0    0 -0.00000000000E+00 -0.00000000000E+00 -0.74505805969E-08  0.93827000000E+00  0.93827000000E+00 0.  1.
     999902    2    1    2    0    0  0.13991675889E-01 -0.32897426337E-02 -0.24008194930E-02  0.10293576517E+01  0.10292544981E+01 0.  0.
     999903    2    3    3    0    0 -0.93469737118E-01  0.89253025199E-01 -0.16472145807E-01  0.13789249737E+00  0.45169845899E-01 0.  0.
         14    1    1    2    0    0 -0.13991675889E-01  0.32897426337E-02  0.24008194930E-02  0.14572348301E-01  0.00000000000E+00 0. -1.
     999901    1    3    3    0    0  0.10746141301E+00 -0.92542767833E-01  0.14071326314E-01  0.89146515433E+00  0.88000000000E+00 0. -1.
        -11    1    4    4    0    0 -0.48439767133E-01  0.16242174380E-01 -0.75527263718E-02  0.51648079008E-01  0.51100000000E-03 0.  1.
         11    1    4    4    0    0 -0.45029969985E-01  0.73010850819E-01 -0.89194194348E-02  0.86244418359E-01  0.51100000000E-03 0. -1.
</event>
<event>
 8    1  0.2877139E+004  0.1043930E+01  0.7957747E-01            NaN
         13   -1    0    0    0    0  0.00000000000E+00  0.00000000000E+00  0.74505805969E-08  0.10566000000E+00  0.10566000000E+00 0.  1.
     999900   -1    0    0    0    0 -0.00000000000E+00 -0.00000000000E+00 -0.74505805969E-08  0.93827000000E+00  0.93827000000E+00 0. -1.
     999902    2    1    2    0    0 -0.10633086262E-01  0.70502749939E-02 -0.86274764723E-02  0.10285286283E+01  0.10284133104E+01 0.  0.
     999903    2    3    3    0    0  0.56612198590E-01 -0.10696640932E+00 -0.48486482468E-01  0.13773658015E+00  0.44426037136E-01 0.  0.
         14    1    1    2    0    0  0.10633086262E-01 -0.70502749939E-02  0.86274764723E-02  0.15401371732E-01  0.00000000000E+00 0.  1.
     999901    1    3    3    0    0 -0.67245284852E-01  0.11401668432E+00  0.39859005996E-01  0.89079204812E+00  0.88000000000E+00 0.  1.
        -11    1    4    4    0    0  0.54852658205E-01 -0.74354488296E-01 -0.20323238934E-01  0.94608134976E-01  0.51100000000E-03 0.  1.
         11    1    4    4    0    0  0.17595403853E-02 -0.32611921028E-01 -0.28163243534E-01  0.43128445171E-01  0.51100000000E-03 0. -1.
</event>
<event>
 8    1  0.2877139E+004  0.1043930E+01  0.7957747E-01            NaN
         13   -1    0    0    0    0  0.00000000000E+00  0.00000000000E+00  0.74505805969E-08  0.10566000000E+00  0.10566000000E+00 0. -1.
     999900   -1    0    0    0    0 -0.00000000000E+00 -0.00000000000E+00 -0.74505805969E-08  0.93827000000E+00  0.93827000000E+00 0. -1.
     999902    2    1    2    0    0  0.23446156506E-02 -0.13461406557E-01  0.82694254870E-02  0.10279584601E+01  0.10278343765E+01 0.  0.
     999903    2    3    3    0    0 -0.54159265889E-01 -0.85816928402E-01 -0.82978739007E-01  0.13848994593E+00  0.44679108250E-01 0.  0.
         14    1    1    2    0    0 -0.23446156506E-02  0.13461406557E-01 -0.82694254870E-02  0.15971539904E-01  0.00000000000E+00 0.  1.
     999901    1    3    3    0    0  0.56503881540E-01  0.72355521846E-01  0.91248164494E-01  0.88946851417E+00  0.88000000000E+00 0.  1.
        -11    1    4    4    0    0 -0.52409462774E-01 -0.45586704760E-01 -0.42731149014E-01  0.81554347868E-01  0.51100000000E-03 0.  1.
         11    1    4    4    0    0 -0.17498031152E-02 -0.40230223642E-01 -0.40247589993E-01  0.56935598060E-01  0.51100000000E-03 0. -1.
</event>
<event>
 8    1  0.2877139E+004  0.1043930E+01  0.7957747E-01            NaN
         13   -1    0    0    0    0  0.00000000000E+00  0.00000000000E+00  0.74505805969E-08  0.10566000000E+00  0.10566000000E+00 0.  1.
     999900   -1    0    0    0    0 -0.00000000000E+00 -0.00000000000E+00 -0.74505805969E-08  0.93827000000E+00  0.93827000000E+00 0. -1.
     999902    2    1    2    0    0 -0.12485678316E-01 -0.50225848233E-02  0.24628553760E-02  0.10302484731E+01  0.10301576249E+01 0.  0.
     999903    2    3    3    0    0 -0.11307906480E+00 -0.68146758033E-01 -0.26133283914E-01  0.14181083893E+00  0.44682322944E-01 0.  0.
         14    1    1    2    0    0  0.12485678316E-01  0.50225848233E-02 -0.24628553760E-02  0.13681526886E-01  0.00000000000E+00 0. -1.
     999901    1    3    3    0    0  0.10059338649E+00  0.63124173210E-01  0.28596139290E-01  0.88843763418E+00  0.88000000000E+00 0. -1.
        -11    1    4    4    0    0 -0.67310967357E-01 -0.16484315130E-01 -0.43709028927E-02  0.69439649228E-01  0.51100000000E-03 0. -1.
         11    1    4    4    0    0 -0.45768097445E-01 -0.51662442904E-01 -0.21762381021E-01  0.72371189705E-01  0.51100000000E-03 0.  1.
</event>
<event>
 8    1  0.2877139E+004  0.1043930E+01  0.7957747E-01            NaN
         13   -1    0    0    0    0  0.00000000000E+00  0.00000000000E+00  0.74505805969E-08  0.10566000000E+00  0.10566000000E+00 0. -1.
     999900   -1    0    0    0    0 -0.00000000000E+00 -0.00000000000E+00 -0.74505805969E-08  0.93827000000E+00  0.93827000000E+00 0. -1.
     999902    2    1    2    0    0 -0.42461272461E-02  0.23346494487E-02 -0.12701773267E-01  0.10303353235E+01  0.10302456327E+01 0.  0.
     999903    2    3    3    0    0 -0.12006697250E+00  0.49728520197E-01 -0.31975645895E-01  0.14127282327E+00  0.45238977180E-01 0.  0.
         14    1    1    2    0    0  0.42461272461E-02 -0.23346494487E-02  0.12701773267E-01  0.13594676486E-01  0.00000000000E+00 0. -1.
     999901    1    3    3    0    0  0.11582084526E+00 -0.47393870749E-01  0.19273872628E-01  0.88906250025E+00  0.88000000000E+00 0. -1.
        -11    1    4    4    0    0 -0.46025102146E-01  0.27008962163E-01  0.82464044945E-02  0.54000540486E-01  0.51100000000E-03 0. -1.
         11    1    4    4    0    0 -0.74041870356E-01  0.22719558034E-01 -0.40222050390E-01  0.87272282780E-01  0.51100000000E-03 0.  1.
</event>
<event>
 8    1  0.2877139E+004  0.1043930E+01  0.7957747E-01            NaN
         13   -1    0    0    0    0  0.00000000000E+00  0.00000000000E+00  0.74505805969E-08  0.10566000000E+00  0.10566000000E+00 0. -1.
     999900   -1    0    0    0    0 -0.00000000000E+00 -0.00000000000E+00 -0.74505805969E-08  0.93827000000E+00  0.93827000000E+00 0. -1.
     999902    2    1    2    0    0  0.26497735452E-02 -0.70607435307E-02  0.12052075914E-01  0.10297128296E+01  0.10296146772E+01 0.  0.
     999903    2    3    3    0    0  0.98623627985E-01  0.86898507295E-01 -0.18889734072E-01  0.13898463476E+00  0.41011414023E-01 0.  0.
         14    1    1    2    0    0 -0.26497735452E-02  0.70607435307E-02 -0.12052075914E-01  0.14217170355E-01  0.00000000000E+00 0.  1.
     999901    1    3    3    0    0 -0.95973854440E-01 -0.93959250826E-01  0.30941809986E-01  0.89072819488E+00  0.88000000000E+00 0. -1.
        -11    1    4    4    0    0  0.86250187652E-01  0.70645875648E-01 -0.30362241004E-01  0.11555112036E+00  0.51100000000E-03 0. -1.
         11    1    4    4    0    0  0.12373440333E-01  0.16252631647E-01  0.11472506932E-01  0.23433514406E-01  0.51100000000E-03 0.  1.
</event>
<event>
 8    1  0.2877139E+004  0.1043930E+01  0.7957747E-01            NaN
         13   -1    0    0    0    0  0.00000000000E+00  0.00000000000E+00  0.74505805969E-08  0.10566000000E+00  0.10566000000E+00 0.  1.
     999900   -1    0    0    0    0 -0.00000000000E+00 -0.00000000000E+00 -0.74505805969E-08  0.93827000000E+00  0.93827000000E+00 0.  1.
     999902    2    1    2    0    0  0.67420773336E-02 -0.86143366204E-02  0.88820908728E-02  0.10298390831E+01  0.10297426781E+01 0.  0.
     999903    2    3    3    0    0 -0.63202450838E-01 -0.14701252481E-01 -0.11396030417E+00  0.13853692240E+00  0.44663758522E-01 0.  0.
         14    1    1    2    0    0 -0.67420773336E-02  0.86143366204E-02 -0.88820908728E-02  0.14090916949E-01  0.00000000000E+00 0. -1.
     999901    1    3    3    0    0  0.69944528171E-01  0.60869158610E-02  0.12284239504E+00  0.89130216065E+00  0.88000000000E+00 0. -1.
        -11    1    4    4    0    0 -0.58959303034E-01 -0.21059226932E-01 -0.70002135659E-01  0.93916189079E-01  0.51100000000E-03 0.  1.
         11    1    4    4    0    0 -0.42431478037E-02  0.63579744508E-02 -0.43958168508E-01  0.44620733319E-01  0.51100000000E-03 0. -1.
</event>
<event>
 8    1  0.2877139E+004  0.1043930E+01  0.7957747E-01            NaN
         13   -1    0    0    0    0  0.00000000000E+00  0.00000000000E+00  0.74505805969E-08  0.10566000000E+00  0.10566000000E+00 0.  1.
     999900   -1    0    0    0    0 -0.00000000000E+00 -0.00000000000E+00 -0.74505805969E-08  0.93827000000E+00  0.93827000000E+00 0. -1.
     999902    2    1    2    0    0 -0.29284141742E-02  0.33909231093E-02 -0.12337528873E-01  0.10308041253E+01  0.10307205519E+01 0.  0.
     999903    2    3    3    0    0 -0.47245661088E-03 -0.59641082416E-01  0.11925059198E+00  0.13878702957E+00  0.38520825032E-01 0.  0.
         14    1    1    2    0    0  0.29284141742E-02 -0.33909231093E-02  0.12337528873E-01  0.13125874744E-01  0.00000000000E+00 0.  1.
     999901    1    3    3    0    0 -0.24559575633E-02  0.63032005526E-01 -0.13158812086E+00  0.89201709569E+00  0.88000000000E+00 0. -1.
        -11    1    4    4    0    0 -0.16179884022E-01 -0.48086803061E-01  0.94646969407E-01  0.10738919506E+00  0.51100000000E-03 0. -1.
         11    1    4    4    0    0  0.15707427411E-01 -0.11554279355E-01  0.24603622576E-01  0.31397834514E-01  0.51100000000E-03 0.  1.
</event>
<event>
 8    1  0.2877139E+004  0.1043930E+01  0.7957747E-01            NaN
         13   -1    0    0    0    0  0.00000000000E+00  0.00000000000E+00  0.74505805969E-08  0.10566000000E+00  0.10566000000E+00 0.  1.
     999900   -1    0    0    0    0 -0.00000000000E+00 -0.00000000000E+00 -0.74505805969E-08  0.93827000000E+00  0.93827000000E+00 0.  1.
     999902    2    1    2    0    0  0.10406929556E-01  0.62748115072E-02 -0.68571212197E-02  0.10299765935E+01  0.10298820736E+01 0.  0.
     999903    2    3    3    0    0 -0.43040280174E-01 -0.11006548833E+00  0.56756922169E-01  0.13843948482E+00  0.44466451443E-01 0.  0.
         14    1    1    2    0    0 -0.10406929556E-01 -0.62748115072E-02  0.68571212197E-02  0.13953406525E-01  0.00000000000E+00 0. -1.
     999901    1    3    3    0    0  0.53447209730E-01  0.11634029984E+00 -0.63614043389E-01  0.89153710866E+00  0.88000000000E+00 0. -1.
        -11    1    4    4    0    0 -0.11638408906E-01 -0.54927574272E-01  0.46676007494E-02  0.56343043892E-01  0.51100000000E-03 0.  1.
         11    1    4    4    0    0 -0.31401871268E-01 -0.55137914058E-01  0.52089321420E-01  0.82096440927E-01  0.51100000000E-03 0. -1.
</event>
<event>
 8    1  0.2877139E+004  0.1043930E+01  0.7957747E-01            NaN
         13   -1    0    0    0    0  0.00000000000E+00  0.00000000000E+00  0.74505805969E-08  0.10566000000E+00  0.10566000000E+00 0.  1.
     999900   -1    0    0    0    0 -0.00000000000E+00 -0.00000000000E+00 -0.74505805969E-08  0.93827000000E+00  0.93827000000E+00 0.  1.
     999902    2    1    2    0    0 -0.17143244942E-03 -0.10497983151E-01 -0.65322781047E-02  0.10315644148E+01  0.10314902977E+01 0.  0.
     999903    2    3    3    0    0 -0.11575171783E+00  0.59597355982E-01 -0.25255567442E-01  0.14104618341E+00  0.48019549615E-01 0.  0.
         14    1    1    2    0    0  0.17143244942E-03  0.10497983151E-01  0.65322781047E-02  0.12365585169E-01  0.00000000000E+00 0.  1.
     999901    1    3    3    0    0  0.11558028538E+00 -0.70095339133E-01  0.18723289338E-01  0.89051823143E+00  0.88000000000E+00 0.  1.
        -11    1    4    4    0    0 -0.42072875672E-01  0.45681669458E-01 -0.58623592944E-03  0.62109150576E-01  0.51100000000E-03 0.  1.
         11    1    4    4    0    0 -0.73678842161E-01  0.13915686524E-01 -0.24669331513E-01  0.78937032830E-01  0.51100000000E-03 0. -1.
</event>
<event>
 8    1  0.2877139E+004  0.1043930E+01  0.7957747E-01            NaN
         13   -1    0    0    0    0  0.00000000000E+00  0.00000000000E+00  0.74505805969E-08  0.10566000000E+00  0.10566000000E+00 0. -1.
     999900   -1    0    0    0    0 -0.00000000000E+00 -0.00000000000E+00 -0.74505805969E-08  0.93827000000E+00  0.93827000000E+00 0.  1.
     999902    2    1    2    0    0 -0.92096942442E-02 -0.55233262912E-02  0.90776258496E-02  0.10298683894E+01  0.10297723878E+01 0.  0.
     999903    2    3    3    0    0  0.10038953353E+00  0.48043765022E-01  0.70400318054E-01  0.13933939124E+00  0.45530202825E-01 0.  0.
         14    1    1    2    0    0  0.92096942442E-02  0.55233262912E-02 -0.90776258496E-02  0.14061610593E-01  0.00000000000E+00 0.  1.
     999901    1    3    3    0    0 -0.10959922777E+00 -0.53567091313E-01 -0.61322692205E-01  0.89052899817E+00  0.88000000000E+00 0. -1.
        -11    1    4    4    0    0  0.88664025277E-02  0.23035493098E-01  0.20770703725E-01  0.32263451308E-01  0.51100000000E-03 0. -1.
         11    1    4    4    0    0  0.91523131000E-01  0.25008271924E-01  0.49629614329E-01  0.10707593993E+00  0.51100000000E-03 0.  1.
</event>
<event>
 8    1  0.2877139E+004  0.1043930E+01  0.7957747E-01            NaN
         13   -1    0    0    0    0  0.00000000000E+00  0.00000000000E+00  0.74505805969E-08  0.10566000000E+00  0.10566000000E+00 0.  1.
     999900   -1    0    0    0    0 -0.00000000000E+00 -0.00000000000E+00 -0.74505805969E-08  0.93827000000E+00  0.93827000000E+00 0. -1.
     999902    2    1    2    0    0  0.82763461472E-02  0.95084481453E-03 -0.10886912208E-01  0.10302213579E+01  0.10301301468E+01 0.  0.
     999903    2    3    3    0    0 -0.46160163531E-01  0.25293109943E-01 -0.12284466533E+00  0.14112607730E+00  0.45334928989E-01 0.  0.
         14    1    1    2    0    0 -0.82763461472E-02 -0.95084481453E-03  0.10886912208E-01  0.13708642122E-01  0.00000000000E+00 0.  1.
     999901    1    3    3    0    0  0.54436509678E-01 -0.24342265128E-01  0.11195775312E+00  0.88909528058E+00  0.88000000000E+00 0.  1.
        -11    1    4    4    0    0 -0.14107809955E-01 -0.13046832182E-01 -0.28770061246E-01  0.34600977975E-01  0.51100000000E-03 0. -1.
         11    1    4    4    0    0 -0.32052353576E-01  0.38339942124E-01 -0.94074604086E-01  0.10652509933E+00  0.51100000000E-03 0.  1.
</event>
<event>
 8    1  0.2877139E+004  0.1043930E+01  0.7957747E-01            NaN
         13   -1    0    0    0    0  0.00000000000E+00  0.00000000000E+00  0.74505805969E-08  0.10566000000E+00  0.10566000000E+00 0. -1.
     999900   -1    0    0    0    0 -0.00000000000E+00 -0.00000000000E+00 -0.74505805969E-08  0.93827000000E+00  0.93827000000E+00 0. -1.
     999902    2    1    2    0    0 -0.35939252581E-02 -0.10520581216E-01 -0.83037440893E-02  0.10300537219E+01  0.10299602511E+01 0.  0.
     999903    2    3    3    0    0 -0.69870379803E-01  0.15615895045E-01 -0.11281681050E+00  0.14101004195E+00  0.45060770610E-01 0.  0.
         14    1    1    2    0    0  0.35939252581E-02  0.10520581216E-01  0.83037440893E-02  0.13876278095E-01  0.00000000000E+00 0.  1.
     999901    1    3    3    0    0  0.66276454544E-01 -0.26136476261E-01  0.10451306641E+00  0.88904367996E+00  0.88000000000E+00 0.  1.
        -11    1    4    4    0    0 -0.28824648279E-01 -0.14520730151E-01 -0.56600529012E-01  0.65158214816E-01  0.51100000000E-03 0. -1.
         11    1    4    4    0    0 -0.41045731523E-01  0.30136625196E-01 -0.56216281485E-01  0.75851827134E-01  0.51100000000E-03 0.  1.
</event>
<event>
 8    1  0.2877139E+004  0.1043930E+01  0.7957747E-01            NaN
         13   -1    0    0    0    0  0.00000000000E+00  0.00000000000E+00  0.74505805969E-08  0.10566000000E+00  0.10566000000E+00 0. -1.
     999900   -1    0    0    0    0 -0.00000000000E+00 -0.00000000000E+00 -0.74505805969E-08  0.93827000000E+00  0.93827000000E+00 0.  1.
     999902    2    1    2    0    0  0.32344943782E-02 -0.10635420770E-01 -0.89904191150E-02  0.10296330855E+01  0.10295338212E+01 0.  0.
     999903    2    3    3    0    0  0.24762640094E-01 -0.12609105999E+00 -0.38228717959E-01  0.14134915351E+00  0.44788442331E-01 0.  0.
         14    1    1    2    0    0 -0.32344943782E-02  0.10635420770E-01  0.89904191150E-02  0.14296914517E-01  0.00000000000E+00 0. -1.
     999901    1    3    3    0    0 -0.21528145716E-01  0.11545563922E+00  0.29238298844E-01  0.88828393198E+00  0.88000000000E+00 0.  1.
        -11    1    4    4    0    0  0.16835304290E-01 -0.49065804796E-01  0.59215345419E-02  0.52213086129E-01  0.51100000000E-03 0. -1.
         11    1    4    4    0    0  0.79273358042E-02 -0.77025255196E-01 -0.44150252501E-01  0.89136067379E-01  0.51100000000E-03 0.  1.
</event>
<event>
 8    1  0.2877139E+004  0.1043930E+01  0.7957747E-01            NaN
         13   -1    0    0    0    0  0.00000000000E+00  0.00000000000E+00  0.74505805969E-08  0.10566000000E+00  0.10566000000E+00 0.  1.
     999900   -1    0    0    0    0 -0.00000000000E+00 -0.00000000000E+00 -0.74505805969E-08  0.93827000000E+00  0.93827000000E+00 0.  1.
     999902    2    1    2    0    0  0.11383279052E-01 -0.72661403269E-02  0.12020398243E-02  0.10303719494E+01  0.10302827444E+01 0.  0.
     999903    2    3    3    0    0 -0.60218112059E-01 -0.73073779890E-01  0.93418465489E-01  0.14022517844E+00  0.44385725703E-01 0.  0.
         14    1    1    2    0    0 -0.11383279052E-01  0.72661403269E-02 -0.12020398243E-02  0.13558050633E-01  0.00000000000E+00 0. -1.
     999901    1    3    3    0    0  0.71601391111E-01  0.65807639563E-01 -0.92216425665E-01  0.89014677093E+00  0.88000000000E+00 0.  1.
        -11    1    4    4    0    0 -0.33043502950E-01 -0.27077546728E-01  0.69741172624E-01  0.81787278375E-01  0.51100000000E-03 0. -1.
         11    1    4    4    0    0 -0.27174609109E-01 -0.45996233162E-01  0.23677292865E-01  0.58437900063E-01  0.51100000000E-03 0.  1.
</event>
<event>
 8    1  0.2877139E+004  0.1043930E+01  0.7957747E-01            NaN
         13   -1    0    0    0    0  0.00000000000E+00  0.00000000000E+00  0.74505805969E-08  0.10566000000E+00  0.10566000000E+00 0. -1.
     999900   -1    0    0    0    0 -0.00000000000E+00 -0.00000000000E+00 -0.74505805969E-08  0.93827000000E+00  0.93827000000E+00 0.  1.
     999902    2    1    2    0    0  0.70473941457E-02  0.40520531170E-02 -0.22423526975E-01  0.10200783866E+01  0.10197994976E+01 0.  0.
     999903    2    3    3    0    0 -0.15963214283E-01  0.23056754280E-01  0.11673614949E+00  0.12864354194E+00  0.46210325196E-01 0.  0.
         14    1    1    2    0    0 -0.70473941457E-02 -0.40520531170E-02  0.22423526975E-01  0.23851613377E-01  0.00000000000E+00 0. -1.
     999901    1    3    3    0    0  0.23010608429E-01 -0.19004701164E-01 -0.13915967647E+00  0.89143484469E+00  0.88000000000E+00 0.  1.
        -11    1    4    4    0    0 -0.47324753465E-02  0.85614071027E-04  0.94887472179E-01  0.95006826861E-01  0.51100000000E-03 0. -1.
         11    1    4    4    0    0 -0.11230738937E-01  0.22971140209E-01  0.21848677316E-01  0.33636715075E-01  0.51100000000E-03 0.  1.
</event>
<event>
 8    1  0.2877139E+004  0.1043930E+01  0.7957747E-01            NaN
         13   -1    0    0    0    0  0.00000000000E+00  0.00000000000E+00  0.74505805969E-08  0.10566000000E+00  0.10566000000E+00 0. -1.
     999900   -1    0    0    0    0 -0.00000000000E+00 -0.00000000000E+00 -0.74505805969E-08  0.93827000000E+00  0.93827000000E+00 0. -1.
     999902    2    1    2    0    0 -0.10573257107E-01  0.59927635104E-02  0.82076928539E-02  0.10292646257E+01  0.10291601414E+01 0.  0.
     999903    2    3    3    0    0  0.11224862269E+00 -0.17138738342E-01 -0.63314464031E-01  0.13756080750E+00  0.44952917102E-01 0.  0.
         14    1    1    2    0    0  0.10573257107E-01 -0.59927635104E-02 -0.82076928539E-02  0.14665374265E-01  0.00000000000E+00 0.  1.
     999901    1    3    3    0    0 -0.12282187980E+00  0.23131501853E-01  0.71522156885E-01  0.89170381824E+00  0.88000000000E+00 0.  1.
        -11    1    4    4    0    0  0.48796549709E-01  0.48510639026E-02 -0.62546128953E-02  0.49437004237E-01  0.51100000000E-03 0.  1.
         11    1    4    4    0    0  0.63452072981E-01 -0.21989802245E-01 -0.57059851136E-01  0.88123803260E-01  0.51100000000E-03 0. -1.
</event>
<event>
 8    1  0.2877139E+004  0.1043930E+01  0.7957747E-01            NaN
         13   -1    0    0    0    0  0.00000000000E+00  0.00000000000E+00  0.74505805969E-08  0.10566000000E+00  0.10566000000E+00 0.  1.
     999900   -1    0    0    0    0 -0.00000000000E+00 -0.00000000000E+00 -0.74505805969E-08  0.93827000000E+00  0.93827000000E+00 0. -1.
     999902    2    1    2    0    0  0.65482284616E-02  0.12309982095E-01  0.33525759564E-02  0.10295893333E+01  0.10294894563E+01 0.  0.
     999903    2    3    3    0    0 -0.46893598185E-01  0.25270436991E-01 -0.12047633565E+00  0.13921997088E+00  0.45056057346E-01 0.  0.
         14    1    1    2    0    0 -0.65482284616E-02 -0.12309982095E-01 -0.33525759564E-02  0.14340666676E-01  0.00000000000E+00 0. -1.
     999901    1    3    3    0    0  0.53441826647E-01 -0.12960454896E-01  0.12382891161E+00  0.89036936244E+00  0.88000000000E+00 0.  1.
        -11    1    4    4    0    0 -0.46226203886E-02  0.25039218817E-01 -0.62312699855E-01  0.67316155434E-01  0.51100000000E-03 0.  1.
         11    1    4    4    0    0 -0.42270977797E-01  0.23121817365E-03 -0.58163635798E-01  0.71903815448E-01  0.51100000000E-03 0. -1.
</event>
<event>
 8    1  0.2877139E+004  0.1043930E+01  0.7957747E-01            NaN
         13   -1    0    0    0    0  0.00000000000E+00  0.00000000000E+00  0.74505805969E-08  0.10566000000E+00  0.10566000000E+00 0. -1.
     999900   -1    0    0    0    0 -0.00000000000E+00 -0.00000000000E+00 -0.74505805969E-08  0.93827000000E+00  0.93827000000E+00 0.  1.
     999902    2    1    2    0    0 -0.64591953097E-03  0.85196365970E-02  0.10459856114E-01  0.10304240750E+01  0.10303355591E+01 0.  0.
     999903    2    3    3    0    0  0.11546568211E+00 -0.49920408163E-01  0.42502046397E-01  0.14029832838E+00  0.45308124018E-01 0.  0.
         14    1    1    2    0    0  0.64591953097E-03 -0.85196365970E-02 -0.10459856114E-01  0.13505924985E-01  0.00000000000E+00 0.  1.
     999901    1    3    3    0    0 -0.11611160164E+00  0.58440044760E-01 -0.32042190283E-01  0.89012574664E+00  0.88000000000E+00 0. -1.
        -11    1    4    4    0    0  0.33324961829E-01 -0.35144774509E-01  0.26860538184E-01  0.55384635855E-01  0.51100000000E-03 0. -1.
         11    1    4    4    0    0  0.82140720279E-01 -0.14775633654E-01  0.15641508212E-01  0.84913692524E-01  0.51100000000E-03 0.  1.
</event>
<event>
 8    1  0.2877139E+004  0.1043930E+01  0.7957747E-01            NaN
         13   -1    0    0    0    0  0.00000000000E+00  0.00000000000E+00  0.74505805969E-08  0.10566000000E+00  0.10566000000E+00 0. -1.
     999900   -1    0    0    0    0 -0.00000000000E+00 -0.00000000000E+00 -0.74505805969E-08  0.93827000000E+00  0.93827000000E+00 0.  1.
     999902    2    1    2    0    0  0.36534494536E-02  0.98613524514E-02  0.10966753679E-01  0.10287358021E+01  0.10286235885E+01 0.  0.
     999903    2    3    3    0    0  0.80809299859E-01 -0.10096120181E+00  0.19982307372E-01  0.13838983334E+00  0.45046044773E-01 0.  0.
         14    1    1    2    0    0 -0.36534494536E-02 -0.98613524514E-02 -0.10966753679E-01  0.15194197950E-01  0.00000000000E+00 0.  1.
     999901    1    3    3    0    0 -0.77155850406E-01  0.11082255426E+00 -0.90155536933E-02  0.89034596871E+00  0.88000000000E+00 0. -1.
        -11    1    4    4    0    0  0.20900884914E-01 -0.28516547983E-01  0.26452807086E-01  0.44159400163E-01  0.51100000000E-03 0. -1.
         11    1    4    4    0    0  0.59908414946E-01 -0.72444653828E-01 -0.64704997140E-02  0.94230433179E-01  0.51100000000E-03 0.  1.
</event>
<event>
 8    1  0.2877139E+004  0.1043930E+01  0.7957747E-01            NaN
         13   -1    0    0    0    0  0.00000000000E+00  0.00000000000E+00  0.74505805969E-08  0.10566000000E+00  0.10566000000E+00 0.  1.
     999900   -1    0    0    0    0 -0.00000000000E+00 -0.00000000000E+00 -0.74505805969E-08  0.93827000000E+00  0.93827000000E+00 0. -1.
     999902    2    1    2    0    0 -0.12385354747E-01 -0.44943896062E-02 -0.47282889928E-02  0.10299316691E+01  0.10298365355E+01 0.  0.
     999903    2    3    3    0    0 -0.64275430169E-01  0.30414980835E-01 -0.11452392953E+00  0.14090617639E+00  0.41017290596E-01 0.  0.
         14    1    1    2    0    0  0.12385354747E-01  0.44943896062E-02  0.47282889928E-02  0.13998330862E-01  0.00000000000E+00 0. -1.
     999901    1    3    3    0    0  0.51890075422E-01 -0.34909370441E-01  0.10979564054E+00  0.88902549275E+00  0.88000000000E+00 0.  1.
        -11    1    4    4    0    0 -0.58680653922E-01  0.18581996590E-01 -0.64347520573E-01  0.89048157011E-01  0.51100000000E-03 0. -1.
         11    1    4    4    0    0 -0.55947762464E-02  0.11832984245E-01 -0.50176408956E-01  0.51858019381E-01  0.51100000000E-03 0.  1.
</event>
<event>
 8    1  0.2877139E+004  0.1043930E+01  0.7957747E-01            NaN
         13   -1    0    0    0    0  0.00000000000E+00  0.00000000000E+00  0.74505805969E-08  0.10566000000E+00  0.10566000000E+00 0. -1.
     999900   -1    0    0    0    0 -0.00000000000E+00 -0.00000000000E+00 -0.74505805969E-08  0.93827000000E+00  0.93827000000E+00 0.  1.
     999902    2    1    2    0    0 -0.47264456217E-02 -0.13524042672E-01 -0.64346685790E-03  0.10295893909E+01  0.10294895147E+01 0.  0.
     999903    2    3    3    0    0 -0.10254238648E+00 -0.51370037430E-01  0.68091134713E-01  0.14069978978E+00  0.44790695992E-01 0.  0.
         14    1    1    2    0    0  0.47264456217E-02  0.13524042672E-01  0.64346685790E-03  0.14340609053E-01  0.00000000000E+00 0.  1.
     999901    1    3    3    0    0  0.97815940860E-01  0.37845994758E-01 -0.68734601571E-01  0.88888960116E+00  0.88000000000E+00 0.  1.
        -11    1    4    4    0    0 -0.12818709260E-01 -0.14876486406E-01 -0.38827221528E-02  0.20024130623E-01  0.51100000000E-03 0. -1.
         11    1    4    4    0    0 -0.89723677222E-01 -0.36493551024E-01  0.71973856866E-01  0.12067565916E+00  0.51100000000E-03 0.  1.
</event>
<event>
 8    1  0.2877139E+004  0.1043930E+01  0.7957747E-01            NaN
         13   -1    0    0    0    0  0.00000000000E+00  0.00000000000E+00  0.74505805969E-08  0.10566000000E+00  0.10566000000E+00 0. -1.
     999900   -1    0    0    0    0 -0.00000000000E+00 -0.00000000000E+00 -0.74505805969E-08  0.93827000000E+00  0.93827000000E+00 0. -1.
     999902    2    1    2    0    0 -0.68447579044E-02  0.15868101444E-01 -0.12998352331E-01  0.10223058349E+01  0.10220771084E+01 0.  0.
     999903    2    3    3    0    0 -0.18512189222E-01 -0.65104114105E-01 -0.10602313641E+00  0.13362915627E+00  0.45106530863E-01 0.  0.
         14    1    1    2    0    0  0.68447579044E-02 -0.15868101444E-01  0.12998352331E-01  0.21624165129E-01  0.00000000000E+00 0. -1.
     999901    1    3    3    0    0  0.11667431318E-01  0.80972215549E-01  0.93024784080E-01  0.88867667861E+00  0.88000000000E+00 0.  1.
        -11    1    4    4    0    0  0.11702336724E-01 -0.34273389148E-01 -0.34110188786E-01  0.49753150539E-01  0.51100000000E-03 0. -1.
         11    1    4    4    0    0 -0.30214525946E-01 -0.30830724957E-01 -0.71912947625E-01  0.83876005727E-01  0.51100000000E-03 0.  1.
</event>
<event>
 8    1  0.2877139E+004  0.1043930E+01  0.7957747E-01            NaN
         13   -1    0    0    0    0  0.00000000000E+00  0.00000000000E+00  0.74505805969E-08  0.10566000000E+00  0.10566000000E+00 0. -1.
     999900   -1    0    0    0    0 -0.00000000000E+00 -0.00000000000E+00 -0.74505805969E-08  0.93827000000E+00  0.93827000000E+00 0. -1.
     999902    2    1    2    0    0  0.33381290927E-02  0.11181444809E-01  0.92617689789E-02  0.10290320747E+01  0.10289242259E+01 0.  0.
     999903    2    3    3    0    0 -0.19672119021E-01  0.85833449610E-01 -0.97757567576E-01  0.13911324034E+00  0.45183827643E-01 0.  0.
         14    1    1    2    0    0 -0.33381290927E-02 -0.11181444809E-01 -0.92617689789E-02  0.14897925308E-01  0.00000000000E+00 0.  1.
     999901    1    3    3    0    0  0.23010248114E-01 -0.74652004801E-01  0.10701933656E+00  0.88991883435E+00  0.88000000000E+00 0. -1.
        -11    1    4    4    0    0 -0.34234208881E-02  0.50272231686E-01 -0.24405145308E-01  0.55990082406E-01  0.51100000000E-03 0.  1.
         11    1    4    4    0    0 -0.16248698133E-01  0.35561217924E-01 -0.73352422268E-01  0.83123157934E-01  0.51100000000E-03 0. -1.
</event>
<event>
 8    1  0.2877139E+004  0.1043930E+01  0.7957747E-01            NaN
         13   -1    0    0    0    0  0.00000000000E+00  0.00000000000E+00  0.74505805969E-08  0.10566000000E+00  0.10566000000E+00 0. -1.
     999900   -1    0    0    0    0 -0.00000000000E+00 -0.00000000000E+00 -0.74505805969E-08  0.93827000000E+00  0.93827000000E+00 0.  1.
     999902    2    1    2    0    0  0.10259005893E-01 -0.83547319990E-02 -0.89843443163E-03  0.10306689317E+01  0.10305836166E+01 0.  0.
     999903    2    3    3    0    0  0.33113264354E-01 -0.29496833382E-01  0.12616004626E+00  0.14099867641E+00  0.44695838985E-01 0.  0.
         14    1    1    2    0    0 -0.10259005893E-01  0.83547319990E-02  0.89843443163E-03  0.13261068325E-01  0.00000000000E+00 0. -1.
     999901    1    3    3    0    0 -0.22854258461E-01  0.21142101383E-01 -0.12705848069E+00  0.88967025526E+00  0.88000000000E+00 0.  1.
        -11    1    4    4    0    0  0.40752166034E-01 -0.33480032394E-01  0.94933306662E-01  0.10860131417E+00  0.51100000000E-03 0. -1.
         11    1    4    4    0    0 -0.76389016799E-02  0.39831990112E-02  0.31226739597E-01  0.32397362240E-01  0.51100000000E-03 0.  1.
</event>
<event>
 8    1  0.2877139E+004  0.1043930E+01  0.7957747E-01            NaN
         13   -1    0    0    0    0  0.00000000000E+00  0.00000000000E+00  0.74505805969E-08  0.10566000000E+00  0.10566000000E+00 0.  1.
     999900   -1    0    0    0    0 -0.00000000000E+00 -0.00000000000E+00 -0.74505805969E-08  0.93827000000E+00  0.93827000000E+00 0. -1.
     999902    2    1    2    0    0 -0.12534656127E-01  0.57874083946E-02 -0.24308974356E-02  0.10299114065E+01  0.10298159954E+01 0.  0.
     999903    2    3    3    0    0 -0.10379763222E+00  0.49004482747E-01  0.69059050819E-01  0.14125654721E+00  0.44820440052E-01 0.  0.
         14    1    1    2    0    0  0.12534656127E-01 -0.57874083946E-02  0.24308974356E-02  0.14018593456E-01  0.00000000000E+00 0. -1.
     999901    1    3    3    0    0  0.91262976089E-01 -0.43217074352E-01 -0.71489948254E-01  0.88865485934E+00  0.88000000000E+00 0. -1.
        -11    1    4    4    0    0 -0.70106224749E-01  0.13742436126E-01  0.55975671335E-01  0.90759430374E-01  0.51100000000E-03 0.  1.
         11    1    4    4    0    0 -0.33691407466E-01  0.35262046621E-01  0.13083379483E-01  0.50497116835E-01  0.51100000000E-03 0. -1.
</event>
<event>
 8    1  0.2877139E+004  0.1043930E+01  0.7957747E-01            NaN
         13   -1    0    0    0    0  0.00000000000E+00  0.00000000000E+00  0.74505805969E-08  0.10566000000E+00  0.10566000000E+00 0. -1.
     999900   -1    0    0    0    0 -0.00000000000E+00 -0.00000000000E+00 -0.74505805969E-08  0.93827000000E+00  0.93827000000E+00 0. -1.
     999902    2    1    2    0    0 -0.11581677771E-01 -0.77108375117E-02  0.15441388597E-02  0.10299308343E+01  0.10298356892E+01 0.  0.
     999903    2    3    3    0    0  0.12911287476E+00 -0.21747688463E-01  0.91298113125E-02  0.13861184948E+00  0.44573478441E-01 0.  0.
         14    1    1    2    0    0  0.11581677771E-01  0.77108375117E-02 -0.15441388597E-02  0.13999165687E-01  0.00000000000E+00 0. -1.
     999901    1    3    3    0    0 -0.14069455253E+00  0.14036850951E-01 -0.75856724528E-02  0.89131898483E+00  0.88000000000E+00 0.  1.
        -11    1    4    4    0    0  0.49099986664E-01  0.84897266165E-02  0.17149083345E-01  0.52699490785E-01  0.51100000000E-03 0. -1.
         11    1    4    4    0    0  0.80012888094E-01 -0.30237415079E-01 -0.80192720327E-02  0.85912358696E-01  0.51100000000E-03 0.  1.
</event>
<event>
 8    1  0.2877139E+004  0.1043930E+01  0.7957747E-01            NaN
         13   -1    0    0    0    0  0.00000000000E+00  0.00000000000E+00  0.74505805969E-08  0.10566000000E+00  0.10566000000E+00 0.  1.
     999900   -1    0    0    0    0 -0.00000000000E+00 -0.00000000000E+00 -0.74505805969E-08  0.93827000000E+00  0.93827000000E+00 0. -1.
     999902    2    1    2    0    0 -0.11892478025E-01 -0.10095303071E-01  0.90449158427E-02  0.10258978986E+01  0.10257394122E+01 0.  0.
     999903    2    3    3    0    0  0.52894700991E-02 -0.10806795288E+00 -0.70521095634E-01  0.13672715594E+00  0.44882394183E-01 0.  0.
         14    1    1    2    0    0  0.11892478025E-01  0.10095303071E-01 -0.90449158427E-02  0.18032101382E-01  0.00000000000E+00 0. -1.
     999901    1    3    3    0    0 -0.17181948124E-01  0.97972649812E-01  0.79566011477E-01  0.88917074268E+00  0.88000000000E+00 0.  1.
        -11    1    4    4    0    0  0.23645363912E-01 -0.62073168529E-01 -0.30695022909E-01  0.73175317137E-01  0.51100000000E-03 0. -1.
         11    1    4    4    0    0 -0.18355893813E-01 -0.45994784353E-01 -0.39826072726E-01  0.63551838802E-01  0.51100000000E-03 0.  1.
</event>
<event>
 8    1  0.2877139E+004  0.1043930E+01  0.7957747E-01            NaN
         13   -1    0    0    0    0  0.00000000000E+00  0.00000000000E+00  0.74505805969E-08  0.10566000000E+00  0.10566000000E+00 0. -1.
     999900   -1    0    0    0    0 -0.00000000000E+00 -0.00000000000E+00 -0.74505805969E-08  0.93827000000E+00  0.93827000000E+00 0.  1.
     999902    2    1    2    0    0 -0.46919079228E-02  0.36996813235E-02 -0.13195562619E-01  0.10294446793E+01  0.10293427628E+01 0.  0.
     999903    2    3    3    0    0 -0.77648012898E-02 -0.31253013832E-01  0.12593179404E+00  0.13782393320E+00  0.45821139223E-01 0.  0.
         14    1    1    2    0    0  0.46919079228E-02 -0.36996813235E-02  0.13195562619E-01  0.14485320662E-01  0.00000000000E+00 0. -1.
     999901    1    3    3    0    0  0.30728933670E-02  0.34952695156E-01 -0.13912735666E+00  0.89162074614E+00  0.88000000000E+00 0.  1.
        -11    1    4    4    0    0  0.31302190046E-03  0.11818353727E-01  0.20936785992E-01  0.24049565405E-01  0.51100000000E-03 0. -1.
         11    1    4    4    0    0 -0.80778231903E-02 -0.43071367559E-01  0.10499500805E+00  0.11377436780E+00  0.51100000000E-03 0.  1.
</event>
<event>
 8    1  0.2877139E+004  0.1043930E+01  0.7957747E-01            NaN
         13   -1    0    0    0    0  0.00000000000E+00  0.00000000000E+00  0.74505805969E-08  0.10566000000E+00  0.10566000000E+00 0. -1.
     999900   -1    0    0    0    0 -0.00000000000E+00 -0.00000000000E+00 -0.74505805969E-08  0.93827000000E+00  0.93827000000E+00 0.  1.
     999902    2    1    2    0    0  0.12830148583E-02 -0.70649671184E-02  0.11346423853E-01  0.10305023710E+01  0.10304148850E+01 0.  0.
     999903    2    3    3    0    0 -0.35503980712E-04  0.80216895641E-01  0.10596528749E+00  0.14113597210E+00  0.47497040553E-01 0.  0.
         14    1    1    2    0    0 -0.12830148583E-02  0.70649671184E-02 -0.11346423853E-01  0.13427629045E-01  0.00000000000E+00 0.  1.
     999901    1    3    3    0    0  0.13185188390E-02 -0.87281862760E-01 -0.94618863634E-01  0.88936639886E+00  0.88000000000E+00 0.  1.
        -11    1    4    4    0    0 -0.19194972187E-02  0.59144750240E-01  0.38918448879E-01  0.70828615225E-01  0.51100000000E-03 0. -1.
         11    1    4    4    0    0  0.18839932380E-02  0.21072145402E-01  0.67046838608E-01  0.70307356874E-01  0.51100000000E-03 0.  1.
</event>
<event>
 8    1  0.2877139E+004  0.1043930E+01  0.7957747E-01            NaN
         13   -1    0    0    0    0  0.00000000000E+00  0.00000000000E+00  0.74505805969E-08  0.10566000000E+00  0.10566000000E+00 0. -1.
     999900   -1    0    0    0    0 -0.00000000000E+00 -0.00000000000E+00 -0.74505805969E-08  0.93827000000E+00  0.93827000000E+00 0.  1.
     999902    2    1    2    0    0 -0.32169907486E-03  0.17897299540E-02 -0.14518205277E-01  0.10292983594E+01  0.10291943585E+01 0.  0.
     999903    2    3    3    0    0  0.10624553425E+00 -0.31631981141E-01 -0.73006979082E-01  0.14031325112E+00  0.45487291268E-01 0.  0.
         14    1    1    2    0    0  0.32169907486E-03 -0.17897299540E-02  0.14518205277E-01  0.14631640649E-01  0.00000000000E+00 0. -1.
     999901    1    3    3    0    0 -0.10656723332E+00  0.33421711095E-01  0.58488773805E-01  0.88898510823E+00  0.88000000000E+00 0. -1.
        -11    1    4    4    0    0  0.59825226344E-01 -0.40184576569E-01 -0.50608312498E-01  0.88064296488E-01  0.51100000000E-03 0.  1.
         11    1    4    4    0    0  0.46420307906E-01  0.85525954273E-02 -0.22398666584E-01  0.52248954634E-01  0.51100000000E-03 0. -1.
</event>
<event>
 8    1  0.2877139E+004  0.1043930E+01  0.7957747E-01            NaN
         13   -1    0    0    0    0  0.00000000000E+00  0.00000000000E+00  0.74505805969E-08  0.10566000000E+00  0.10566000000E+00 0. -1.
     999900   -1    0    0    0    0 -0.00000000000E+00 -0.00000000000E+00 -0.74505805969E-08  0.93827000000E+00  0.93827000000E+00 0. -1.
     999902    2    1    2    0    0  0.76119252813E-02  0.99060018892E-02  0.10355637099E-01  0.10277031858E+01  0.10275750720E+01 0.  0.
     999903    2    3    3    0    0  0.49226201794E-01 -0.10613277526E+00 -0.51270524131E-01  0.13697621888E+00  0.49461429098E-01 0.  0.
         14    1    1    2    0    0 -0.76119252813E-02 -0.99060018892E-02 -0.10355637099E-01  0.16226814218E-01  0.00000000000E+00 0.  1.
     999901    1    3    3    0    0 -0.41614276513E-01  0.11603877715E+00  0.61626161230E-01  0.89072696690E+00  0.88000000000E+00 0. -1.
        -11    1    4    4    0    0  0.49802616783E-01 -0.50688518768E-01 -0.22708134631E-01  0.74602594276E-01  0.51100000000E-03 0. -1.
         11    1    4    4    0    0 -0.57641498839E-03 -0.55444256489E-01 -0.28562389500E-01  0.62373624609E-01  0.51100000000E-03 0.  1.
</event>
<event>
 8    1  0.2877139E+004  0.1043930E+01  0.7957747E-01            NaN
         13   -1    0    0    0    0  0.00000000000E+00  0.00000000000E+00  0.74505805969E-08  0.10566000000E+00  0.10566000000E+00 0.  1.
     999900   -1    0    0    0    0 -0.00000000000E+00 -0.00000000000E+00 -0.74505805969E-08  0.93827000000E+00  0.93827000000E+00 0.  1.
     999902    2    1    2    0    0 -0.94972327684E-02 -0.81065933090E-02 -0.57675277708E-02  0.10301757766E+01  0.10300839539E+01 0.  0.
     999903    2    3    3    0    0  0.10235058401E+00  0.79094350824E-01 -0.22098446305E-01  0.13867107234E+00  0.44830420419E-01 0.  0.
         14    1    1    2    0    0  0.94972327684E-02  0.81065933090E-02  0.57675277708E-02  0.13754223421E-01  0.00000000000E+00 0.  1.
     999901    1    3    3    0    0 -0.11184781678E+00 -0.87200944133E-01  0.16330918535E-01  0.89150470424E+00  0.88000000000E+00 0. -1.
        -11    1    4    4    0    0  0.67567560921E-01  0.76329894143E-01 -0.14640336506E-01  0.10298654574E+00  0.51100000000E-03 0. -1.
         11    1    4    4    0    0  0.34783023094E-01  0.27644566810E-02 -0.74581097993E-02  0.35684526605E-01  0.51100000000E-03 0.  1.
</event>
<event>
 8    1  0.2877139E+004  0.1043930E+01  0.7957747E-01            NaN
         13   -1    0    0    0    0  0.00000000000E+00  0.00000000000E+00  0.74505805969E-08  0.10566000000E+00  0.10566000000E+00 0.  1.
     999900   -1    0    0    0    0 -0.00000000000E+00 -0.00000000000E+00 -0.74505805969E-08  0.93827000000E+00  0.93827000000E+00 0. -1.
     999902    2    1    2    0    0  0.19478648921E-01 -0.54176604191E-02 -0.67461436884E-03  0.10237007165E+01  0.10235008222E+01 0.  0.
     999903    2    3    3    0    0  0.99016717223E-01  0.79944585034E-01  0.15686864879E-01  0.13584897474E+00  0.44871140425E-01 0.  0.
         14    1    1    2    0    0 -0.19478648921E-01  0.54176604191E-02  0.67461436884E-03  0.20229283545E-01  0.00000000000E+00 0. -1.
     999901    1    3    3    0    0 -0.79538068302E-01 -0.85362245453E-01 -0.16361479248E-01  0.88785174171E+00  0.88000000000E+00 0.  1.
        -11    1    4    4    0    0  0.19763051774E-01  0.27916791450E-01  0.22262998439E-01  0.40814552316E-01  0.51100000000E-03 0. -1.
         11    1    4    4    0    0  0.79253665449E-01  0.52027793584E-01 -0.65761335602E-02  0.95034422427E-01  0.51100000000E-03 0.  1.
</event>
<event>
 8    1  0.2877139E+004  0.1043930E+01  0.7957747E-01            NaN
         13   -1    0    0    0    0  0.00000000000E+00  0.00000000000E+00  0.74505805969E-08  0.10566000000E+00  0.10566000000E+00 0.  1.
     999900   -1    0    0    0    0 -0.00000000000E+00 -0.00000000000E+00 -0.74505805969E-08  0.93827000000E+00  0.93827000000E+00 0. -1.
     999902    2    1    2    0    0  0.82413504608E-03 -0.42095066004E-02  0.12483951960E-01  0.10307296894E+01  0.10306451593E+01 0.  0.
     999903    2    3    3    0    0 -0.11709345459E-01 -0.46716728880E-01  0.12643290763E+00  0.14227692383E+00  0.44021374305E-01 0.  0.
         14    1    1    2    0    0 -0.82413504608E-03  0.42095066004E-02 -0.12483951960E-01  0.13200310637E-01  0.00000000000E+00 0. -1.
     999901    1    3    3    0    0  0.12533480505E-01  0.42507222279E-01 -0.11394895567E+00  0.88845276553E+00  0.88000000000E+00 0. -1.
        -11    1    4    4    0    0 -0.22247002529E-01 -0.48112137977E-01  0.91358200186E-01  0.10562333456E+00  0.51100000000E-03 0. -1.
         11    1    4    4    0    0  0.10537657071E-01  0.13954090977E-02  0.35074707443E-01  0.36653589269E-01  0.51100000000E-03 0.  1.
</event>
<event>
 8    1  0.2877139E+004  0.1043930E+01  0.7957747E-01            NaN
         13   -1    0    0    0    0  0.00000000000E+00  0.00000000000E+00  0.74505805969E-08  0.10566000000E+00  0.10566000000E+00 0.  1.
     999900   -1    0    0    0    0 -0.00000000000E+00 -0.00000000000E+00 -0.74505805969E-08  0.93827000000E+00  0.93827000000E+00 0. -1.
     999902    2    1    2    0    0  0.43004364356E-02  0.79197988317E-02 -0.12554915674E-01  0.10284754578E+01  0.10283593362E+01 0.  0.
     999903    2    3    3    0    0 -0.12238815441E+00 -0.90052516222E-02 -0.46069992480E-01  0.13861045862E+00  0.45060627338E-01 0.  0.
         14    1    1    2    0    0 -0.43004364356E-02 -0.79197988317E-02  0.12554915674E-01  0.15454542201E-01  0.00000000000E+00 0.  1.
     999901    1    3    3    0    0  0.12668859085E+00  0.16925050454E-01  0.33515076807E-01  0.88986499917E+00  0.88000000000E+00 0. -1.
        -11    1    4    4    0    0 -0.62646224042E-01 -0.25658854652E-01 -0.15440477483E-01  0.69437710754E-01  0.51100000000E-03 0. -1.
         11    1    4    4    0    0 -0.59741930368E-01  0.16653603029E-01 -0.30629514997E-01  0.69172747870E-01  0.51100000000E-03 0.  1.
</event>
<event>
 8    1  0.2877139E+004  0.1043930E+01  0.7957747E-01            NaN
         13   -1    0    0    0    0  0.00000000000E+00  0.00000000000E+00  0.74505805969E-08  0.10566000000E+00  0.10566000000E+00 0.  1.
     999900   -1    0    0    0    0 -0.00000000000E+00 -0.00000000000E+00 -0.74505805969E-08  0.93827000000E+00  0.93827000000E+00 0.  1.
     999902    2    1    2    0    0  0.72128809540E-03  0.10665021762E-01 -0.86672158228E-02  0.10301683295E+01  0.10300764066E+01 0.  0.
     999903    2    3    3    0    0  0.92313202426E-01  0.77266274277E-01  0.56467039478E-01  0.14052386294E+00  0.45460147668E-01 0.  0.
         14    1    1    2    0    0 -0.72128809540E-03 -0.10665021762E-01  0.86672158228E-02  0.13761670532E-01  0.00000000000E+00 0. -1.
     999901    1    3    3    0    0 -0.91591914331E-01 -0.66601252515E-01 -0.65134255301E-01  0.88964446653E+00  0.88000000000E+00 0.  1.
        -11    1    4    4    0    0  0.60724395159E-01  0.29259610883E-01  0.47252289471E-01  0.82320210020E-01  0.51100000000E-03 0. -1.
         11    1    4    4    0    0  0.31588807266E-01  0.48006663394E-01  0.92147500064E-02  0.58203652922E-01  0.51100000000E-03 0.  1.
</event>
<event>
 8    1  0.2877139E+004  0.1043930E+01  0.7957747E-01            NaN
         13   -1    0    0    0    0  0.00000000000E+00  0.00000000000E+00  0.74505805969E-08  0.10566000000E+00  0.10566000000E+00 0. -1.
     999900   -1    0    0    0    0 -0.00000000000E+00 -0.00000000000E+00 -0.74505805969E-08  0.93827000000E+00  0.93827000000E+00 0.  1.
     999902    2    1    2    0    0 -0.11290480886E-01 -0.71299204297E-02  0.32046110452E-02  0.10301975473E+01  0.10301060170E+01 0.  0.
     999903    2    3    3    0    0 -0.90657775229E-01 -0.42591607056E-01 -0.92747038053E-01  0.14072387286E+00  0.34180668881E-01 0.  0.
         14    1    1    2    0    0  0.11290480886E-01  0.71299204297E-02 -0.32046110452E-02  0.13732452655E-01  0.00000000000E+00 0. -1.
     999901    1    3    3    0    0  0.79367294342E-01  0.35461686626E-01  0.95951649099E-01  0.88947367448E+00  0.88000000000E+00 0. -1.
        -11    1    4    4    0    0 -0.85670757712E-01 -0.42301114344E-01 -0.72707020499E-01  0.12006429508E+00  0.51100000000E-03 0. -1.
         11    1    4    4    0    0 -0.49870175172E-02 -0.29049271175E-03 -0.20040017555E-01  0.20659577787E-01  0.51100000000E-03 0.  1.
</event>
<event>
 8    1  0.2877139E+004  0.1043930E+01  0.7957747E-01            NaN
         13   -1    0    0    0    0  0.00000000000E+00  0.00000000000E+00  0.74505805969E-08  0.10566000000E+00  0.10566000000E+00 0.  1.
     999900   -1    0    0    0    0 -0.00000000000E+00 -0.00000000000E+00 -0.74505805969E-08  0.93827000000E+00  0.93827000000E+00 0. -1.
     999902    2    1    2    0    0 -0.21009182763E-02 -0.12085777279E-01 -0.52363049875E-02  0.10305921306E+01  0.10305058180E+01 0.  0.
     999903    2    3    3    0    0 -0.43338099473E-01 -0.18802088618E-01  0.12397707090E+00  0.14017553684E+00  0.45245525938E-01 0.  0.
         14    1    1    2    0    0  0.21009182763E-02  0.12085777279E-01  0.52363049875E-02  0.13337869394E-01  0.00000000000E+00 0. -1.
     999901    1    3    3    0    0  0.41237181197E-01  0.67163113387E-02 -0.12921337588E+00  0.89041659377E+00  0.88000000000E+00 0. -1.
        -11    1    4    4    0    0 -0.15344989671E-01 -0.30891294786E-01  0.57836853832E-01  0.67343177707E-01  0.51100000000E-03 0.  1.
         11    1    4    4    0    0 -0.27993109802E-01  0.12089206168E-01  0.66140217065E-01  0.72832359130E-01  0.51100000000E-03 0. -1.
</event>
<event>
 8    1  0.2877139E+004  0.1043930E+01  0.7957747E-01            NaN
         13   -1    0    0    0    0  0.00000000000E+00  0.00000000000E+00  0.74505805969E-08  0.10566000000E+00  0.10566000000E+00 0.  1.
     999900   -1    0    0    0    0 -0.00000000000E+00 -0.00000000000E+00 -0.74505805969E-08  0.93827000000E+00  0.93827000000E+00 0. -1.
     999902    2    1    2    0    0  0.13259853207E-02  0.13947056525E-01  0.12280277474E-02  0.10298663349E+01  0.10297703051E+01 0.  0.
     999903    2    3    3    0    0  0.67662749515E-01 -0.10039619389E+00  0.49809088415E-01  0.13866766761E+00  0.45717976030E-01 0.  0.
         14    1    1    2    0    0 -0.13259853207E-02 -0.13947056525E-01 -0.12280277474E-02  0.14063665060E-01  0.00000000000E+00 0. -1.
     999901    1    3    3    0    0 -0.66336764194E-01  0.11434325041E+00 -0.48581060667E-01  0.89119866733E+00  0.88000000000E+00 0. -1.
        -11    1    4    4    0    0  0.21041200750E-01 -0.60245690710E-01  0.42573666841E-01  0.76714103054E-01  0.51100000000E-03 0.  1.
         11    1    4    4    0    0  0.46621548765E-01 -0.40150503177E-01  0.72354215740E-02  0.61953564554E-01  0.51100000000E-03 0. -1.
</event>
<event>
 8    1  0.2877139E+004  0.1043930E+01  0.7957747E-01            NaN
         13   -1    0    0    0    0  0.00000000000E+00  0.00000000000E+00  0.74505805969E-08  0.10566000000E+00  0.10566000000E+00 0.  1.
     999900   -1    0    0    0    0 -0.00000000000E+00 -0.00000000000E+00 -0.74505805969E-08  0.93827000000E+00  0.93827000000E+00 0.  1.
     999902    2    1    2    0    0 -0.10357912785E-02 -0.37343056687E-02  0.12112237919E-01  0.10312129166E+01  0.10311344991E+01 0.  0.
     999903    2    3    3    0    0 -0.30599427293E-01  0.72960351786E-01 -0.10563310270E+00  0.13957395140E+00  0.45420233814E-01 0.  0.
         14    1    1    2    0    0  0.10357912785E-02  0.37343056687E-02 -0.12112237919E-01  0.12717083384E-01  0.00000000000E+00 0. -1.
     999901    1    3    3    0    0  0.29563636015E-01 -0.76694657455E-01  0.11774534062E+00  0.89163896522E+00  0.88000000000E+00 0.  1.
        -11    1    4    4    0    0 -0.27608788629E-01  0.74163732446E-01 -0.75866307041E-01  0.10962874662E+00  0.51100000000E-03 0. -1.
         11    1    4    4    0    0 -0.29906386646E-02 -0.12033806599E-02 -0.29766795658E-01  0.29945204781E-01  0.51100000000E-03 0.  1.
</event>
<event>
 8    1  0.2877139E+004  0.1043930E+01  0.7957747E-01            NaN
         13   -1    0    0    0    0  0.00000000000E+00  0.00000000000E+00  0.74505805969E-08  0.10566000000E+00  0.10566000000E+00 0.  1.
     999900   -1    0    0    0    0 -0.00000000000E+00 -0.00000000000E+00 -0.74505805969E-08  0.93827000000E+00  0.93827000000E+00 0.  1.
     999902    2    1    2    0    0 -0.20579134200E-03 -0.84314403302E-06  0.14181716240E-01  0.10297467907E+01  0.10296491099E+01 0.  0.
     999903    2    3    3    0    0 -0.77356983357E-01 -0.38303679884E-01 -0.98348711764E-01  0.13840930637E+00  0.45093150446E-01 0.  0.
         14    1    1    2    0    0  0.20579134200E-03  0.84314403302E-06 -0.14181716240E-01  0.14183209309E-01  0.00000000000E+00 0. -1.
     999901    1    3    3    0    0  0.77151192015E-01  0.38302836740E-01  0.11253042800E+00  0.89133748432E+00  0.88000000000E+00 0. -1.
        -11    1    4    4    0    0 -0.28289961612E-01 -0.30405314916E-01 -0.21185813813E-01  0.46625153416E-01  0.51100000000E-03 0.  1.
         11    1    4    4    0    0 -0.49067021745E-01 -0.78983649677E-02 -0.77162897951E-01  0.91784152953E-01  0.51100000000E-03 0. -1.
</event>
<event>
 8    1  0.2877139E+004  0.1043930E+01  0.7957747E-01            NaN
         13   -1    0    0    0    0  0.00000000000E+00  0.00000000000E+00  0.74505805969E-08  0.10566000000E+00  0.10566000000E+00 0. -1.
     999900   -1    0    0    0    0 -0.00000000000E+00 -0.00000000000E+00 -0.74505805969E-08  0.93827000000E+00  0.93827000000E+00 0. -1.
     999902    2    1    2    0    0  0.50247319974E-02 -0.13086598423E-01  0.19472123786E-02  0.10297773103E+01  0.10296800523E+01 0.  0.
     999903    2    3    3    0    0  0.80472453161E-01 -0.61799669693E-01  0.87280237150E-01  0.14110017710E+00  0.44681151380E-01 0.  0.
         14    1    1    2    0    0 -0.50247319974E-02  0.13086598423E-01 -0.19472123786E-02  0.14152689709E-01  0.00000000000E+00 0. -1.
     999901    1    3    3    0    0 -0.75447721164E-01  0.48713071269E-01 -0.85333024772E-01  0.88867713319E+00  0.88000000000E+00 0. -1.
        -11    1    4    4    0    0  0.86414539581E-02 -0.20687058623E-02 -0.46414342239E-02  0.10037843549E-01  0.51100000000E-03 0.  1.
         11    1    4    4    0    0  0.71830999203E-01 -0.59730963830E-01  0.91921671374E-01  0.13106233355E+00  0.51100000000E-03 0. -1.
</event>
<event>
 8    1  0.2877139E+004  0.1043930E+01  0.7957747E-01            NaN
         13   -1    0    0    0    0  0.00000000000E+00  0.00000000000E+00  0.74505805969E-08  0.10566000000E+00  0.10566000000E+00 0.  1.
     999900   -1    0    0    0    0 -0.00000000000E+00 -0.00000000000E+00 -0.74505805969E-08  0.93827000000E+00  0.93827000000E+00 0. -1.
     999902    2    1    2    0    0 -0.22138459872E-02 -0.28636190287E-02  0.12570280491E-01  0.10308489687E+01  0.10307659690E+01 0.  0.
     999903    2    3    3    0    0  0.10176998203E-01 -0.10507347615E+00  0.83653281114E-01  0.14199961089E+00  0.44966780730E-01 0.  0.
         14    1    1    2    0    0  0.22138459872E-02  0.28636190287E-02 -0.12570280491E-01  0.13081031291E-01  0.00000000000E+00 0. -1.
     999901    1    3    3    0    0 -0.12390844191E-01  0.10220985712E+00 -0.71083000623E-01  0.88884935782E+00  0.88000000000E+00 0. -1.
        -11    1    4    4    0    0  0.24944905219E-01 -0.41252578864E-01  0.26224704625E-01  0.54881871442E-01  0.51100000000E-03 0. -1.
         11    1    4    4    0    0 -0.14767907016E-01 -0.63820897289E-01  0.57428576489E-01  0.87117739451E-01  0.51100000000E-03 0.  1.
</event>
<event>
 8    1  0.2877139E+004  0.1043930E+01  0.7957747E-01            NaN
         13   -1    0    0    0    0  0.00000000000E+00  0.00000000000E+00  0.74505805969E-08  0.10566000000E+00  0.10566000000E+00 0.  1.
     999900   -1    0    0    0    0 -0.00000000000E+00 -0.00000000000E+00 -0.74505805969E-08  0.93827000000E+00  0.93827000000E+00 0. -1.
     999902    2    1    2    0    0  0.29210467805E-02 -0.12666230299E-01  0.44925911935E-02  0.10301768447E+01  0.10300850364E+01 0.  0.
     999903    2    3    3    0    0 -0.75819034795E-01 -0.94562638497E-01  0.56889577725E-01  0.14132788888E+00  0.45238584015E-01 0.  0.
         14    1    1    2    0    0 -0.29210467805E-02  0.12666230299E-01 -0.44925911935E-02  0.13753155272E-01  0.00000000000E+00 0. -1.
     999901    1    3    3    0    0  0.78740081576E-01  0.81896408198E-01 -0.52396986531E-01  0.88884895585E+00  0.88000000000E+00 0. -1.
        -11    1    4    4    0    0 -0.66662833549E-01 -0.62398470446E-01  0.23983862904E-01  0.94408629328E-01  0.51100000000E-03 0. -1.
         11    1    4    4    0    0 -0.91562012457E-02 -0.32164168051E-01  0.32905714820E-01  0.46919259548E-01  0.51100000000E-03 0.  1.
</event>
<event>
 8    1  0.2877139E+004  0.1043930E+01  0.7957747E-01            NaN
         13   -1    0    0    0    0  0.00000000000E+00  0.00000000000E+00  0.74505805969E-08  0.10566000000E+00  0.10566000000E+00 0. -1.
     999900   -1    0    0    0    0 -0.00000000000E+00 -0.00000000000E+00 -0.74505805969E-08  0.93827000000E+00  0.93827000000E+00 0.  1.
     999902    2    1    2    0    0  0.13479150464E-01 -0.24032060884E-02 -0.30338380935E-02  0.10299061963E+01  0.10298107137E+01 0.  0.
     999903    2    3    3    0    0  0.11258900444E+00  0.67971622694E-01  0.19839554086E-01  0.14125633738E+00  0.47574357917E-01 0.  0.
         14    1    1    2    0    0 -0.13479150464E-01  0.24032060884E-02  0.30338380935E-02  0.14023803703E-01  0.00000000000E+00 0. -1.
     999901    1    3    3    0    0 -0.99109853978E-01 -0.70374828782E-01 -0.22873392180E-01  0.88864985892E+00  0.88000000000E+00 0. -1.
        -11    1    4    4    0    0  0.90310409829E-01  0.43671227026E-01 -0.42750541410E-02  0.10040758638E+00  0.51100000000E-03 0.  1.
         11    1    4    4    0    0  0.22278594613E-01  0.24300395668E-01  0.24114608227E-01  0.40848751003E-01  0.51100000000E-03 0. -1.
</event>
<event>
 8    1  0.2877139E+004  0.1043930E+01  0.7957747E-01            NaN
         13   -1    0    0    0    0  0.00000000000E+00  0.00000000000E+00  0.74505805969E-08  0.10566000000E+00  0.10566000000E+00 0.  1.
     999900   -1    0    0    0    0 -0.00000000000E+00 -0.00000000000E+00 -0.74505805969E-08  0.93827000000E+00  0.93827000000E+00 0.  1.
     999902    2    1    2    0    0 -0.10879874003E-01 -0.23205585130E-02  0.39489403736E-02  0.10321253069E+01  0.10320577979E+01 0.  0.
     999903    2    3    3    0    0  0.95884352962E-02  0.78370833177E-01  0.10915063549E+00  0.14195821634E+00  0.44769949473E-01 0.  0.
         14    1    1    2    0    0  0.10879874003E-01  0.23205585130E-02 -0.39489403736E-02  0.11804693143E-01  0.00000000000E+00 0.  1.
     999901    1    3    3    0    0 -0.20468309299E-01 -0.80691391690E-01 -0.10520169511E+00  0.89016709051E+00  0.88000000000E+00 0.  1.
        -11    1    4    4    0    0  0.27411146162E-01  0.52880412704E-01  0.68623743482E-01  0.90869072143E-01  0.51100000000E-03 0. -1.
         11    1    4    4    0    0 -0.17822710866E-01  0.25490420473E-01  0.40526892005E-01  0.51089144200E-01  0.51100000000E-03 0.  1.
</event>
<event>
 8    1  0.2877139E+004  0.1043930E+01  0.7957747E-01            NaN
         13   -1    0    0    0    0  0.00000000000E+00  0.00000000000E+00  0.74505805969E-08  0.10566000000E+00  0.10566000000E+00 0.  1.
     999900   -1    0    0    0    0 -0.00000000000E+00 -0.00000000000E+00 -0.74505805969E-08  0.93827000000E+00  0.93827000000E+00 0. -1.
     999902    2    1    2    0    0  0.93293529461E-02  0.11619440270E-01  0.48941769533E-02  0.10282455750E+01  0.10281259463E+01 0.  0.
     999903    2    3    3    0    0  0.47198366579E-01 -0.87484626281E-01 -0.83346148390E-01  0.13749194286E+00  0.45565428316E-01 0.  0.
         14    1    1    2    0    0 -0.93293529461E-02 -0.11619440270E-01 -0.48941769533E-02  0.15684424970E-01  0.00000000000E+00 0. -1.
     999901    1    3    3    0    0 -0.37869013633E-01  0.99104066552E-01  0.88240325344E-01  0.89075363217E+00  0.88000000000E+00 0.  1.
        -11    1    4    4    0    0  0.33453509889E-01 -0.53761126930E-01 -0.23712474474E-01  0.67616112424E-01  0.51100000000E-03 0. -1.
         11    1    4    4    0    0  0.13744856690E-01 -0.33723499352E-01 -0.59633673916E-01  0.69875830440E-01  0.51100000000E-03 0.  1.
</event>
<event>
 8    1  0.2877139E+004  0.1043930E+01  0.7957747E-01            NaN
         13   -1    0    0    0    0  0.00000000000E+00  0.00000000000E+00  0.74505805969E-08  0.10566000000E+00  0.10566000000E+00 0. -1.
     999900   -1    0    0    0    0 -0.00000000000E+00 -0.00000000000E+00 -0.74505805969E-08  0.93827000000E+00  0.93827000000E+00 0. -1.
     999902    2    1    2    0    0  0.76401578748E-02 -0.10965926566E-01 -0.48861204887E-03  0.10305560589E+01  0.10304692758E+01 0.  0.
     999903    2    3    3    0    0  0.58223801863E-01  0.11831481962E+00  0.10216095339E-01  0.13960891846E+00  0.44697582309E-01 0.  0.
         14    1    1    2    0    0 -0.76401578748E-02  0.10965926566E-01  0.48861204887E-03  0.13373941062E-01  0.00000000000E+00 0. -1.
     999901    1    3    3    0    0 -0.50583643988E-01 -0.12928074618E+00 -0.10704707388E-01  0.89094714048E+00  0.88000000000E+00 0.  1.
        -11    1    4    4    0    0  0.13423172150E-01  0.59406225918E-01  0.21814838623E-01  0.64694895730E-01  0.51100000000E-03 0.  1.
         11    1    4    4    0    0  0.44800629713E-01  0.58908593698E-01 -0.11598743284E-01  0.74914022725E-01  0.51100000000E-03 0. -1.
</event>
<event>
 7    1  0.2877139E+004  0.1043930E+01  0.7957747E-01            NaN
         13   -1    0    0    0    0  0.00000000000E+00  0.00000000000E+00  0.74505805969E-08  0.10566000000E+00  0.10566000000E+00 0. -1.
     999900   -1    0    0    0    0 -0.00000000000E+00 -0.00000000000E+00 -0.74505805969E-08  0.93827000000E+00  0.93827000000E+00 0.  1.
     999903    2    1    2    0    0  0.20167310549E-01 -0.18113296651E-01  0.67009443707E-02  0.52905845898E-01  0.44936777192E-01 0.  0.
         14    1    1    2    0    0  0.27512330172E-01  0.59041268833E-01 -0.82980609631E-01  0.10549209123E+00  0.00000000000E+00 0.  1.
     999901    1    1    2    0    0 -0.47679640720E-01 -0.40927972182E-01  0.76279665260E-01  0.88553206287E+00  0.88000000000E+00 0. -1.
        -11    1    3    3    0    0  0.11610901123E-01 -0.13936094381E-01  0.25809523170E-01  0.31550283022E-01  0.51100000000E-03 0. -1.
         11    1    3    3    0    0  0.85564094251E-02 -0.41772022695E-02 -0.19108578799E-01  0.21355562876E-01  0.51100000000E-03 0.  1.
</event>
<event>
 8    1  0.2877139E+004  0.1043930E+01  0.7957747E-01            NaN
         13   -1    0    0    0    0  0.00000000000E+00  0.00000000000E+00  0.74505805969E-08  0.10566000000E+00  0.10566000000E+00 0.  1.
     999900   -1    0    0    0    0 -0.00000000000E+00 -0.00000000000E+00 -0.74505805969E-08  0.93827000000E+00  0.93827000000E+00 0. -1.
     999902    2    1    2    0    0 -0.36441285902E-02 -0.68268843906E-02 -0.10537668194E-01  0.10308560383E+01  0.10307731289E+01 0.  0.
     999903    2    3    3    0    0  0.16055000871E-01  0.13109098091E+00 -0.45871244463E-02  0.13987635152E+00  0.45844778077E-01 0.  0.
         14    1    1    2    0    0  0.36441285902E-02  0.68268843906E-02  0.10537668194E-01  0.13073961704E-01  0.00000000000E+00 0.  1.
     999901    1    3    3    0    0 -0.19699129462E-01 -0.13791786530E+00 -0.59505437478E-02  0.89097968677E+00  0.88000000000E+00 0. -1.
        -11    1    4    4    0    0  0.18279973928E-01  0.11064462986E+00 -0.20326415580E-01  0.11397287333E+00  0.51100000000E-03 0. -1.
         11    1    4    4    0    0 -0.22249730562E-02  0.20446351050E-01  0.15739291133E-01  0.25903478198E-01  0.51100000000E-03 0.  1.
</event>
<event>
 8    1  0.2877139E+004  0.1043930E+01  0.7957747E-01            NaN
         13   -1    0    0    0    0  0.00000000000E+00  0.00000000000E+00  0.74505805969E-08  0.10566000000E+00  0.10566000000E+00 0. -1.
     999900   -1    0    0    0    0 -0.00000000000E+00 -0.00000000000E+00 -0.74505805969E-08  0.93827000000E+00  0.93827000000E+00 0.  1.
     999902    2    1    2    0    0  0.49338748379E-02  0.11627452584E-01 -0.63043316481E-02  0.10298131529E+01  0.10297163903E+01 0.  0.
     999903    2    3    3    0    0 -0.74773200505E-01 -0.10671334897E+00 -0.79036328286E-02  0.13831984337E+00  0.45728998404E-01 0.  0.
         14    1    1    2    0    0 -0.49338748379E-02 -0.11627452584E-01  0.63043316481E-02  0.14116847100E-01  0.00000000000E+00 0.  1.
     999901    1    3    3    0    0  0.79707075343E-01  0.11834080156E+00  0.15993011805E-02  0.89149330953E+00  0.88000000000E+00 0.  1.
        -11    1    4    4    0    0 -0.48779115730E-01 -0.37770534595E-01  0.99835288226E-02  0.62497579023E-01  0.51100000000E-03 0. -1.
         11    1    4    4    0    0 -0.25994084775E-01 -0.68942814378E-01 -0.17887161651E-01  0.75822264347E-01  0.51100000000E-03 0.  1.
</event>
<event>
 8    1  0.2877139E+004  0.1043930E+01  0.7957747E-01            NaN
         13   -1    0    0    0    0  0.00000000000E+00  0.00000000000E+00  0.74505805969E-08  0.10566000000E+00  0.10566000000E+00 0. -1.
     999900   -1    0    0    0    0 -0.00000000000E+00 -0.00000000000E+00 -0.74505805969E-08  0.93827000000E+00  0.93827000000E+00 0. -1.
     999902    2    1    2    0    0 -0.80955091298E-02 -0.89252477738E-02  0.57861478564E-02  0.10305629950E+01  0.10304763024E+01 0.  0.
     999903    2    3    3    0    0 -0.51726111356E-02 -0.12087274862E+00 -0.55760956187E-01  0.14133364758E+00  0.47211634562E-01 0.  0.
         14    1    1    2    0    0  0.80955091298E-02  0.89252477738E-02 -0.57861478564E-02  0.13367005009E-01  0.00000000000E+00 0.  1.
     999901    1    3    3    0    0 -0.29228979942E-02  0.11194750085E+00  0.61547104043E-01  0.88922934741E+00  0.88000000000E+00 0. -1.
        -11    1    4    4    0    0 -0.26261410921E-01 -0.71817845617E-01 -0.32911738227E-01  0.83252076771E-01  0.51100000000E-03 0.  1.
         11    1    4    4    0    0  0.21088799786E-01 -0.49054903007E-01 -0.22849217959E-01  0.58081570810E-01  0.51100000000E-03 0. -1.
</event>
<event>
 8    1  0.2877139E+004  0.1043930E+01  0.7957747E-01            NaN
         13   -1    0    0    0    0  0.00000000000E+00  0.00000000000E+00  0.74505805969E-08  0.10566000000E+00  0.10566000000E+00 0. -1.
     999900   -1    0    0    0    0 -0.00000000000E+00 -0.00000000000E+00 -0.74505805969E-08  0.93827000000E+00  0.93827000000E+00 0. -1.
     999902    2    1    2    0    0 -0.30846137901E-02  0.54268808456E-02  0.10575718590E-01  0.10316494584E+01  0.10315763633E+01 0.  0.
     999903    2    3    3    0    0 -0.49558582116E-01 -0.57204883198E-01  0.11207953727E+00  0.14238819601E+00  0.44543506450E-01 0.  0.
         14    1    1    2    0    0  0.30846137901E-02 -0.54268808456E-02 -0.10575718590E-01  0.12280541586E-01  0.00000000000E+00 0.  1.
     999901    1    3    3    0    0  0.46473968326E-01  0.62631764043E-01 -0.10150381868E+00  0.88926126240E+00  0.88000000000E+00 0.  1.
        -11    1    4    4    0    0 -0.20331027025E-01 -0.28448351222E-01  0.17083790912E-01  0.38920128212E-01  0.51100000000E-03 0.  1.
         11    1    4    4    0    0 -0.29227555091E-01 -0.28756531976E-01  0.94995746356E-01  0.10346806780E+00  0.51100000000E-03 0. -1.
</event>
<event>
 8    1  0.2877139E+004  0.1043930E+01  0.7957747E-01            NaN
         13   -1    0    0    0    0  0.00000000000E+00  0.00000000000E+00  0.74505805969E-08  0.10566000000E+00  0.10566000000E+00 0.  1.
     999900   -1    0    0    0    0 -0.00000000000E+00 -0.00000000000E+00 -0.74505805969E-08  0.93827000000E+00  0.93827000000E+00 0.  1.
     999902    2    1    2    0    0  0.12123042783E-02 -0.11083980120E-01 -0.84766169768E-02  0.10299236681E+01  0.10298284250E+01 0.  0.
     999903    2    3    3    0    0  0.97677088740E-01 -0.81498815356E-01  0.38423854002E-01  0.14061868229E+00  0.45982069161E-01 0.  0.
         14    1    1    2    0    0 -0.12123042783E-02  0.11083980120E-01  0.84766169768E-02  0.14006331866E-01  0.00000000000E+00 0.  1.
     999901    1    3    3    0    0 -0.96464784462E-01  0.70414835236E-01 -0.46900470979E-01  0.88930498584E+00  0.88000000000E+00 0. -1.
        -11    1    4    4    0    0  0.70214322630E-01 -0.46184046291E-01  0.39462358195E-02  0.84135908698E-01  0.51100000000E-03 0.  1.
         11    1    4    4    0    0  0.27462766110E-01 -0.35314769064E-01  0.34477618183E-01  0.56482773596E-01  0.51100000000E-03 0. -1.
</event>
<event>
 8    1  0.2877139E+004  0.1043930E+01  0.7957747E-01            NaN
         13   -1    0    0    0    0  0.00000000000E+00  0.00000000000E+00  0.74505805969E-08  0.10566000000E+00  0.10566000000E+00 0.  1.
     999900   -1    0    0    0    0 -0.00000000000E+00 -0.00000000000E+00 -0.74505805969E-08  0.93827000000E+00  0.93827000000E+00 0. -1.
     999902    2    1    2    0    0 -0.51281783446E-02  0.12789747418E-01  0.84743412499E-03  0.10301244215E+01  0.10300319072E+01 0.  0.
     999903    2    3    3    0    0  0.67656152259E-02 -0.89676836176E-02 -0.13354238744E+00  0.13957657202E+00  0.39010989677E-01 0.  0.
         14    1    1    2    0    0  0.51281783446E-02 -0.12789747418E-01 -0.84743412499E-03  0.13805578465E-01  0.00000000000E+00 0.  1.
     999901    1    3    3    0    0 -0.11893793571E-01  0.21757431035E-01  0.13438982157E+00  0.89054784951E+00  0.88000000000E+00 0.  1.
        -11    1    4    4    0    0  0.79441541346E-02  0.12490725606E-01 -0.87727197502E-01  0.88968815400E-01  0.51100000000E-03 0.  1.
         11    1    4    4    0    0 -0.11785389087E-02 -0.21458409223E-01 -0.45815189938E-01  0.50607756623E-01  0.51100000000E-03 0. -1.
</event>
<event>
 7    1  0.2877139E+004  0.1043930E+01  0.7957747E-01            NaN
         13   -1    0    0    0    0  0.00000000000E+00  0.00000000000E+00  0.74505805969E-08  0.10566000000E+00  0.10566000000E+00 0.  1.
     999900   -1    0    0    0    0 -0.00000000000E+00 -0.00000000000E+00 -0.74505805969E-08  0.93827000000E+00  0.93827000000E+00 0. -1.
     999903    2    1    2    0    0 -0.99815006122E-01  0.10395662124E-01  0.30544510597E-01  0.11410578583E+00  0.44900534465E-01 0.  0.
         14    1    1    2    0    0 -0.63518786542E-03  0.28500007154E-01 -0.32530590286E-01  0.43253822672E-01  0.00000000000E+00 0. -1.
     999901    1    1    2    0    0  0.10045019399E+00 -0.38895669278E-01  0.19860796881E-02  0.88657039149E+00  0.88000000000E+00 0.  1.
        -11    1    3    3    0    0 -0.79746765764E-01  0.25981494951E-01  0.28602506048E-01  0.88616867485E-01  0.51100000000E-03 0. -1.
         11    1    3    3    0    0 -0.20068240358E-01 -0.15585832826E-01  0.19420045496E-02  0.25488918349E-01  0.51100000000E-03 0.  1.
</event>
<event>
 8    1  0.2877139E+004  0.1043930E+01  0.7957747E-01            NaN
         13   -1    0    0    0    0  0.00000000000E+00  0.00000000000E+00  0.74505805969E-08  0.10566000000E+00  0.10566000000E+00 0.  1.
     999900   -1    0    0    0    0 -0.00000000000E+00 -0.00000000000E+00 -0.74505805969E-08  0.93827000000E+00  0.93827000000E+00 0. -1.
     999902    2    1    2    0    0  0.11097017328E-01 -0.79204749439E-03  0.48447032523E-02  0.10317956569E+01  0.10317243020E+01 0.  0.
     999903    2    3    3    0    0 -0.73724601884E-01 -0.11066228036E+00 -0.11261602202E-01  0.14077063580E+00  0.44811728394E-01 0.  0.
         14    1    1    2    0    0 -0.11097017328E-01  0.79204749439E-03 -0.48447032523E-02  0.12134343098E-01  0.00000000000E+00 0. -1.
     999901    1    3    3    0    0  0.84821619212E-01  0.10987023287E+00  0.16106305454E-01  0.89102502110E+00  0.88000000000E+00 0.  1.
        -11    1    4    4    0    0 -0.23644533286E-02 -0.36944504485E-02 -0.11355016460E-01  0.12183477478E-01  0.51100000000E-03 0. -1.
         11    1    4    4    0    0 -0.71360148556E-01 -0.10696782991E+00  0.93414257850E-04  0.12858715832E+00  0.51100000000E-03 0.  1.
</event>
<event>
 8    1  0.2877139E+004  0.1043930E+01  0.7957747E-01            NaN
         13   -1    0    0    0    0  0.00000000000E+00  0.00000000000E+00  0.74505805969E-08  0.10566000000E+00  0.10566000000E+00 0.  1.
     999900   -1    0    0    0    0 -0.00000000000E+00 -0.00000000000E+00 -0.74505805969E-08  0.93827000000E+00  0.93827000000E+00 0.  1.
     999902    2    1    2    0    0  0.78600066665E-02 -0.10070296905E-01  0.43207697343E-02  0.10304444657E+01  0.10303562186E+01 0.  0.
     999903    2    3    3    0    0  0.11120364749E+00 -0.23094577591E-01  0.71779723073E-01  0.14173739901E+00  0.45139239069E-01 0.  0.
         14    1    1    2    0    0 -0.78600066665E-02  0.10070296905E-01 -0.43207697343E-02  0.13485534311E-01  0.00000000000E+00 0. -1.
     999901    1    3    3    0    0 -0.10334364082E+00  0.13024280686E-01 -0.67458953339E-01  0.88870706668E+00  0.88000000000E+00 0.  1.
        -11    1    4    4    0    0  0.98236408559E-01 -0.30039104391E-02  0.58650668001E-01  0.11445338537E+00  0.51100000000E-03 0. -1.
         11    1    4    4    0    0  0.12967238930E-01 -0.20090667152E-01  0.13129055072E-01  0.27284013638E-01  0.51100000000E-03 0.  1.
</event>
<event>
 8    1  0.2877139E+004  0.1043930E+01  0.7957747E-01            NaN
         13   -1    0    0    0    0  0.00000000000E+00  0.00000000000E+00  0.74505805969E-08  0.10566000000E+00  0.10566000000E+00 0.  1.
     999900   -1    0    0    0    0 -0.00000000000E+00 -0.00000000000E+00 -0.74505805969E-08  0.93827000000E+00  0.93827000000E+00 0.  1.
     999902    2    1    2    0    0  0.60367856317E-02 -0.12873995244E-01  0.28149493210E-02  0.10294349500E+01  0.10293328955E+01 0.  0.
     999903    2    3    3    0    0 -0.12722147749E+00  0.30186383062E-01 -0.12456459340E-02  0.13835221014E+00  0.45202437538E-01 0.  0.
         14    1    1    2    0    0 -0.60367856317E-02  0.12873995244E-01 -0.28149493210E-02  0.14495049982E-01  0.00000000000E+00 0. -1.
     999901    1    3    3    0    0  0.13325826312E+00 -0.43060378307E-01  0.40605952550E-02  0.89108273988E+00  0.88000000000E+00 0.  1.
        -11    1    4    4    0    0 -0.90773685974E-01  0.38923747478E-02  0.11627989516E-01  0.91599584648E-01  0.51100000000E-03 0.  1.
         11    1    4    4    0    0 -0.36447791519E-01  0.26294008315E-01 -0.12873635450E-01  0.46752625494E-01  0.51100000000E-03 0. -1.
</event>
<event>
 8    1  0.2877139E+004  0.1043930E+01  0.7957747E-01            NaN
         13   -1    0    0    0    0  0.00000000000E+00  0.00000000000E+00  0.74505805969E-08  0.10566000000E+00  0.10566000000E+00 0. -1.
     999900   -1    0    0    0    0 -0.00000000000E+00 -0.00000000000E+00 -0.74505805969E-08  0.93827000000E+00  0.93827000000E+00 0.  1.
     999902    2    1    2    0    0 -0.12581600181E-01 -0.51252441587E-02 -0.46000341602E-02  0.10295868795E+01  0.10294869680E+01 0.  0.
     999903    2    3    3    0    0 -0.12900697783E+00  0.34937237022E-01 -0.23758049435E-02  0.14101228043E+00  0.44893294851E-01 0.  0.
         14    1    1    2    0    0  0.12581600181E-01  0.51252441587E-02  0.46000341602E-02  0.14343120479E-01  0.00000000000E+00 0. -1.
     999901    1    3    3    0    0  0.11642537765E+00 -0.40062481181E-01 -0.22242292167E-02  0.88857459909E+00  0.88000000000E+00 0.  1.
        -11    1    4    4    0    0 -0.88672732583E-01  0.56392500339E-02  0.10635883293E-01  0.89487640371E-01  0.51100000000E-03 0.  1.
         11    1    4    4    0    0 -0.40334245247E-01  0.29297986988E-01 -0.13011688236E-01  0.51524640056E-01  0.51100000000E-03 0. -1.
</event>
<event>
 8    1  0.2877139E+004  0.1043930E+01  0.7957747E-01            NaN
         13   -1    0    0    0    0  0.00000000000E+00  0.00000000000E+00  0.74505805969E-08  0.10566000000E+00  0.10566000000E+00 0.  1.
     999900   -1    0    0    0    0 -0.00000000000E+00 -0.00000000000E+00 -0.74505805969E-08  0.93827000000E+00  0.93827000000E+00 0.  1.
     999902    2    1    2    0    0  0.88498552634E-02  0.61888820563E-02 -0.10622583562E-01  0.10287820140E+01  0.10286704870E+01 0.  0.
     999903    2    3    3    0    0 -0.90768364284E-01 -0.15876063989E-02  0.91363111093E-01  0.13727466944E+00  0.47494213876E-01 0.  0.
         14    1    1    2    0    0 -0.88498552634E-02 -0.61888820563E-02  0.10622583562E-01  0.15147986032E-01  0.00000000000E+00 0.  1.
     999901    1    3    3    0    0  0.99618219547E-01  0.77764884551E-02 -0.10198569466E+00  0.89150734453E+00  0.88000000000E+00 0.  1.
        -11    1    4    4    0    0 -0.21130149304E-01  0.13734356758E-01  0.46892902613E-01  0.53238343341E-01  0.51100000000E-03 0.  1.
         11    1    4    4    0    0 -0.69638214979E-01 -0.15321963157E-01  0.44470208479E-01  0.84036326096E-01  0.51100000000E-03 0. -1.
</event>
<event>
 8    1  0.2877139E+004  0.1043930E+01  0.7957747E-01            NaN
         13   -1    0    0    0    0  0.00000000000E+00  0.00000000000E+00  0.74505805969E-08  0.10566000000E+00  0.10566000000E+00 0. -1.
     999900   -1    0    0    0    0 -0.00000000000E+00 -0.00000000000E+00 -0.74505805969E-08  0.93827000000E+00  0.93827000000E+00 0.  1.
     999902    2    1    2    0    0  0.70910391662E-02 -0.82301592692E-02 -0.98127640571E-02  0.10292907139E+01  0.10291866036E+01 0.  0.
     999903    2    3    3    0    0  0.11210709634E+00 -0.48785844959E-01  0.51267169961E-01  0.14001916135E+00  0.45044235035E-01 0.  0.
         14    1    1    2    0    0 -0.70910391662E-02  0.82301592692E-02  0.98127640571E-02  0.14639286065E-01  0.00000000000E+00 0. -1.
     999901    1    3    3    0    0 -0.10501605717E+00  0.40555685689E-01 -0.61079934018E-01  0.88927155259E+00  0.88000000000E+00 0. -1.
        -11    1    4    4    0    0  0.75337492708E-01 -0.32104303174E-01  0.56222856526E-01  0.99336271355E-01  0.51100000000E-03 0.  1.
         11    1    4    4    0    0  0.36769603632E-01 -0.16681541785E-01 -0.49556865656E-02  0.40682889990E-01  0.51100000000E-03 0. -1.
</event>
<event>
 8    1  0.2877139E+004  0.1043930E+01  0.7957747E-01            NaN
         13   -1    0    0    0    0  0.00000000000E+00  0.00000000000E+00  0.74505805969E-08  0.10566000000E+00  0.10566000000E+00 0.  1.
     999900   -1    0    0    0    0 -0.00000000000E+00 -0.00000000000E+00 -0.74505805969E-08  0.93827000000E+00  0.93827000000E+00 0. -1.
     999902    2    1    2    0    0 -0.85399147048E-02  0.22740501432E-02 -0.80670053011E-02  0.10319642981E+01  0.10318949242E+01 0.  0.
     999903    2    3    3    0    0 -0.19020938062E-01 -0.50000160800E-01 -0.12432652623E+00  0.14271814479E+00  0.45272194163E-01 0.  0.
         14    1    1    2    0    0  0.85399147048E-02 -0.22740501432E-02  0.80670053011E-02  0.11965701891E-01  0.00000000000E+00 0.  1.
     999901    1    3    3    0    0  0.10481023358E-01  0.52274210944E-01  0.11625952093E+00  0.88924615332E+00  0.88000000000E+00 0.  1.
        -11    1    4    4    0    0 -0.22961338276E-01 -0.53462071455E-01 -0.84807916782E-01  0.10284969621E+00  0.51100000000E-03 0. -1.
         11    1    4    4    0    0  0.39404002134E-02  0.34619106543E-02 -0.39518609447E-01  0.39868448588E-01  0.51100000000E-03 0.  1.
</event>
<event>
 8    1  0.2877139E+004  0.1043930E+01  0.7957747E-01            NaN
         13   -1    0    0    0    0  0.00000000000E+00  0.00000000000E+00  0.74505805969E-08  0.10566000000E+00  0.10566000000E+00 0. -1.
     999900   -1    0    0    0    0 -0.00000000000E+00 -0.00000000000E+00 -0.74505805969E-08  0.93827000000E+00  0.93827000000E+00 0.  1.
     999902    2    1    2    0    0 -0.12812625309E-01 -0.37223535923E-02 -0.55909683384E-02  0.10294635488E+01  0.10293618995E+01 0.  0.
     999903    2    3    3    0    0  0.67960539124E-03  0.11476575516E+00  0.63837781462E-01  0.13871003434E+00  0.44649421782E-01 0.  0.
         14    1    1    2    0    0  0.12812625309E-01  0.37223535923E-02  0.55909683384E-02  0.14466451207E-01  0.00000000000E+00 0. -1.
     999901    1    3    3    0    0 -0.13492230700E-01 -0.11848810875E+00 -0.69428749801E-01  0.89075351445E+00  0.88000000000E+00 0.  1.
        -11    1    4    4    0    0 -0.20142570045E-01  0.67527501635E-01  0.27824591140E-01  0.75763814569E-01  0.51100000000E-03 0.  1.
         11    1    4    4    0    0  0.20822175436E-01  0.47238253522E-01  0.36013190322E-01  0.62946219774E-01  0.51100000000E-03 0. -1.
</event>
<event>
 8    1  0.2877139E+004  0.1043930E+01  0.7957747E-01            NaN
         13   -1    0    0    0    0  0.00000000000E+00  0.00000000000E+00  0.74505805969E-08  0.10566000000E+00  0.10566000000E+00 0. -1.
     999900   -1    0    0    0    0 -0.00000000000E+00 -0.00000000000E+00 -0.74505805969E-08  0.93827000000E+00  0.93827000000E+00 0.  1.
     999902    2    1    2    0    0 -0.29998720944E-02  0.36045635124E-02 -0.12733104004E-01  0.10303607683E+01  0.10302714151E+01 0.  0.
     999903    2    3    3    0    0  0.13119444168E+00  0.12977459970E-01  0.11471453881E-01  0.13980935169E+00  0.45107256299E-01 0.  0.
         14    1    1    2    0    0  0.29998720944E-02 -0.36045635124E-02  0.12733104004E-01  0.13569231676E-01  0.00000000000E+00 0. -1.
     999901    1    3    3    0    0 -0.13419431378E+00 -0.93728964578E-02 -0.24204557885E-01  0.89055141663E+00  0.88000000000E+00 0.  1.
        -11    1    4    4    0    0  0.36431816710E-01  0.42719593448E-02 -0.17064896955E-01  0.40459841009E-01  0.51100000000E-03 0. -1.
         11    1    4    4    0    0  0.94762624975E-01  0.87055006254E-02  0.28536350837E-01  0.99349510685E-01  0.51100000000E-03 0.  1.
</event>
<event>
 8    1  0.2877139E+004  0.1043930E+01  0.7957747E-01            NaN
         13   -1    0    0    0    0  0.00000000000E+00  0.00000000000E+00  0.74505805969E-08  0.10566000000E+00  0.10566000000E+00 0.  1.
     999900   -1    0    0    0    0 -0.00000000000E+00 -0.00000000000E+00 -0.74505805969E-08  0.93827000000E+00  0.93827000000E+00 0.  1.
     999902    2    1    2    0    0  0.36610555076E-02  0.86934883921E-02 -0.95688885147E-02  0.10304933451E+01  0.10304057408E+01 0.  0.
     999903    2    3    3    0    0 -0.35647879176E-01  0.12841277042E+00  0.13482634057E-01  0.14121876908E+00  0.44725254870E-01 0.  0.
         14    1    1    2    0    0 -0.36610555076E-02 -0.86934883921E-02  0.95688885147E-02  0.13436654913E-01  0.00000000000E+00 0.  1.
     999901    1    3    3    0    0  0.39308934684E-01 -0.11971928203E+00 -0.23051522572E-01  0.88927457600E+00  0.88000000000E+00 0.  1.
        -11    1    4    4    0    0 -0.29785519905E-01  0.33389415997E-01 -0.18571864741E-02  0.44785494965E-01  0.51100000000E-03 0.  1.
         11    1    4    4    0    0 -0.58623592710E-02  0.95023354423E-01  0.15339820531E-01  0.96433274117E-01  0.51100000000E-03 0. -1.
</event>
<event>
 8    1  0.2877139E+004  0.1043930E+01  0.7957747E-01            NaN
         13   -1    0    0    0    0  0.00000000000E+00  0.00000000000E+00  0.74505805969E-08  0.10566000000E+00  0.10566000000E+00 0. -1.
     999900   -1    0    0    0    0 -0.00000000000E+00 -0.00000000000E+00 -0.74505805969E-08  0.93827000000E+00  0.93827000000E+00 0. -1.
     999902    2    1    2    0    0 -0.10635171686E-01 -0.91365933662E-02 -0.20472638337E-02  0.10297604727E+01  0.10296629816E+01 0.  0.
     999903    2    3    3    0    0  0.12959203041E+00 -0.19024121677E-01  0.84565401799E-02  0.13854121721E+00  0.44341225091E-01 0.  0.
         14    1    1    2    0    0  0.10635171686E-01  0.91365933662E-02  0.20472638337E-02  0.14169527315E-01  0.00000000000E+00 0. -1.
     999901    1    3    3    0    0 -0.14022720210E+00  0.98875283103E-02 -0.10503804014E-01  0.89121925547E+00  0.88000000000E+00 0.  1.
        -11    1    4    4    0    0  0.44057011557E-01  0.11769111071E-01  0.13291586808E-01  0.47502206724E-01  0.51100000000E-03 0.  1.
         11    1    4    4    0    0  0.85535018857E-01 -0.30793232748E-01 -0.48350466278E-02  0.91039010489E-01  0.51100000000E-03 0. -1.
</event>
<event>
 8    1  0.2877139E+004  0.1043930E+01  0.7957747E-01            NaN
         13   -1    0    0    0    0  0.00000000000E+00  0.00000000000E+00  0.74505805969E-08  0.10566000000E+00  0.10566000000E+00 0. -1.
     999900   -1    0    0    0    0 -0.00000000000E+00 -0.00000000000E+00 -0.74505805969E-08  0.93827000000E+00  0.93827000000E+00 0.  1.
     999902    2    1    2    0    0 -0.10484701739E-01  0.75517406187E-02 -0.97509306815E-04  0.10310084186E+01  0.10309274427E+01 0.  0.
     999903    2    3    3    0    0 -0.52605217800E-01 -0.22959613328E-02 -0.12306426556E+00  0.14140629507E+00  0.45588885149E-01 0.  0.
         14    1    1    2    0    0  0.10484701739E-01 -0.75517406187E-02  0.97509306815E-04  0.12921581366E-01  0.00000000000E+00 0.  1.
     999901    1    3    3    0    0  0.42120516061E-01  0.98477019515E-02  0.12296675625E+00  0.88960212356E+00  0.88000000000E+00 0. -1.
        -11    1    4    4    0    0 -0.33987649579E-02  0.75929206913E-02 -0.61089577274E-01  0.61655507624E-01  0.51100000000E-03 0. -1.
         11    1    4    4    0    0 -0.49206452842E-01 -0.98888820241E-02 -0.61974688286E-01  0.79750787445E-01  0.51100000000E-03 0.  1.
</event>
<event>
 8    1  0.2877139E+004  0.1043930E+01  0.7957747E-01            NaN
         13   -1    0    0    0    0  0.00000000000E+00  0.00000000000E+00  0.74505805969E-08  0.10566000000E+00  0.10566000000E+00 0.  1.
     999900   -1    0    0    0    0 -0.00000000000E+00 -0.00000000000E+00 -0.74505805969E-08  0.93827000000E+00  0.93827000000E+00 0. -1.
     999902    2    1    2    0    0 -0.89678670785E-02  0.35127090449E-02  0.10110313090E-01  0.10299664691E+01  0.10298718111E+01 0.  0.
     999903    2    3    3    0    0  0.11374768477E+00 -0.17867167420E-01 -0.62270044376E-01  0.13825176027E+00  0.44477177601E-01 0.  0.
         14    1    1    2    0    0  0.89678670785E-02 -0.35127090449E-02 -0.10110313090E-01  0.13963530912E-01  0.00000000000E+00 0. -1.
     999901    1    3    3    0    0 -0.12271555185E+00  0.21379876465E-01  0.72380357466E-01  0.89171470882E+00  0.88000000000E+00 0. -1.
        -11    1    4    4    0    0  0.48088967319E-01 -0.98759664901E-02 -0.51647999983E-01  0.71259108296E-01  0.51100000000E-03 0.  1.
         11    1    4    4    0    0  0.65658717452E-01 -0.79912009299E-02 -0.10622044394E-01  0.66992651969E-01  0.51100000000E-03 0. -1.
</event>
<event>
 8    1  0.2877139E+004  0.1043930E+01  0.7957747E-01            NaN
         13   -1    0    0    0    0  0.00000000000E+00  0.00000000000E+00  0.74505805969E-08  0.10566000000E+00  0.10566000000E+00 0. -1.
     999900   -1    0    0    0    0 -0.00000000000E+00 -0.00000000000E+00 -0.74505805969E-08  0.93827000000E+00  0.93827000000E+00 0. -1.
     999902    2    1    2    0    0  0.12627748523E-01  0.31153348673E-02 -0.92412975272E-02  0.10279748465E+01  0.10278510194E+01 0.  0.
     999903    2    3    3    0    0 -0.93279122714E-01 -0.47504235238E-01 -0.77101108241E-01  0.13759090672E+00  0.45044751318E-01 0.  0.
         14    1    1    2    0    0 -0.12627748523E-01 -0.31153348673E-02  0.92412975272E-02  0.15955153527E-01  0.00000000000E+00 0. -1.
     999901    1    3    3    0    0  0.10590687124E+00  0.50619570105E-01  0.67859810714E-01  0.89038393975E+00  0.88000000000E+00 0.  1.
        -11    1    4    4    0    0 -0.67663314269E-01 -0.53665734356E-01 -0.67249615629E-01  0.10945824348E+00  0.51100000000E-03 0.  1.
         11    1    4    4    0    0 -0.25615808445E-01  0.61614991184E-02 -0.98514926122E-02  0.28132663247E-01  0.51100000000E-03 0. -1.
</event>
<event>
 8    1  0.2877139E+004  0.1043930E+01  0.7957747E-01            NaN
         13   -1    0    0    0    0  0.00000000000E+00  0.00000000000E+00  0.74505805969E-08  0.10566000000E+00  0.10566000000E+00 0.  1.
     999900   -1    0    0    0    0 -0.00000000000E+00 -0.00000000000E+00 -0.74505805969E-08  0.93827000000E+00  0.93827000000E+00 0. -1.
     999902    2    1    2    0    0 -0.69057382731E-02  0.51250740469E-02  0.97950298452E-02  0.10308954991E+01  0.10308130925E+01 0.  0.
     999903    2    3    3    0    0  0.83092563712E-01 -0.11021922620E-01 -0.10191725389E+00  0.13913316850E+00  0.44102777855E-01 0.  0.
         14    1    1    2    0    0  0.69057382731E-02 -0.51250740469E-02 -0.97950298452E-02  0.13034500940E-01  0.00000000000E+00 0.  1.
     999901    1    3    3    0    0 -0.89998301985E-01  0.16146996667E-01  0.11171228374E+00  0.89176233056E+00  0.88000000000E+00 0. -1.
        -11    1    4    4    0    0  0.47645493573E-01  0.90568197902E-02 -0.31668274323E-01  0.57924604117E-01  0.51100000000E-03 0. -1.
         11    1    4    4    0    0  0.35447070138E-01 -0.20078742410E-01 -0.70248979569E-01  0.81208564386E-01  0.51100000000E-03 0.  1.
</event>
<event>
 8    1  0.2877139E+004  0.1043930E+01  0.7957747E-01            NaN
         13   -1    0    0    0    0  0.00000000000E+00  0.00000000000E+00  0.74505805969E-08  0.10566000000E+00  0.10566000000E+00 0.  1.
     999900   -1    0    0    0    0 -0.00000000000E+00 -0.00000000000E+00 -0.74505805969E-08  0.93827000000E+00  0.93827000000E+00 0. -1.
     999902    2    1    2    0    0  0.11676059301E-02 -0.10113083416E-01  0.15952386678E-03  0.10337484870E+01  0.10336983463E+01 0.  0.
     999903    2    3    3    0    0  0.12867921682E+00 -0.16246376611E-01 -0.40167420210E-01  0.14362316398E+00  0.46817795683E-01 0.  0.
         14    1    1    2    0    0 -0.11676059301E-02  0.10113083416E-01 -0.15952386678E-03  0.10181513034E-01  0.00000000000E+00 0.  1.
     999901    1    3    3    0    0 -0.12751161089E+00  0.61332931944E-02  0.40326944076E-01  0.89012532298E+00  0.88000000000E+00 0.  1.
        -11    1    4    4    0    0  0.10079661094E+00 -0.31129311378E-01 -0.37250348124E-01  0.11187868591E+00  0.51100000000E-03 0.  1.
         11    1    4    4    0    0  0.27882605878E-01  0.14882934768E-01 -0.29170720859E-02  0.31744478077E-01  0.51100000000E-03 0. -1.
</event>
<event>
 8    1  0.2877139E+004  0.1043930E+01  0.7957747E-01            NaN
         13   -1    0    0    0    0  0.00000000000E+00  0.00000000000E+00  0.74505805969E-08  0.10566000000E+00  0.10566000000E+00 0. -1.
     999900   -1    0    0    0    0 -0.00000000000E+00 -0.00000000000E+00 -0.74505805969E-08  0.93827000000E+00  0.93827000000E+00 0. -1.
     999902    2    1    2    0    0 -0.17116433602E-03 -0.12932674906E-01  0.56517219391E-02  0.10298152794E+01  0.10297185462E+01 0.  0.
     999903    2    3    3    0    0 -0.46362731224E-02 -0.13309573514E+00 -0.18403206553E-01  0.14131219113E+00  0.43525712042E-01 0.  0.
         14    1    1    2    0    0  0.17116433602E-03  0.12932674906E-01 -0.56517219391E-02  0.14114720625E-01  0.00000000000E+00 0.  1.
     999901    1    3    3    0    0  0.44651087863E-02  0.12016306023E+00  0.24054928492E-01  0.88850308825E+00  0.88000000000E+00 0.  1.
        -11    1    4    4    0    0  0.58687931579E-02 -0.12849328691E+00 -0.16860782534E-01  0.12972861913E+00  0.51100000000E-03 0.  1.
         11    1    4    4    0    0 -0.10505066280E-01 -0.46024482317E-02 -0.15424240191E-02  0.11583571994E-01  0.51100000000E-03 0. -1.
</event>
<event>
 8    1  0.2877139E+004  0.1043930E+01  0.7957747E-01            NaN
         13   -1    0    0    0    0  0.00000000000E+00  0.00000000000E+00  0.74505805969E-08  0.10566000000E+00  0.10566000000E+00 0. -1.
     999900   -1    0    0    0    0 -0.00000000000E+00 -0.00000000000E+00 -0.74505805969E-08  0.93827000000E+00  0.93827000000E+00 0. -1.
     999902    2    1    2    0    0  0.48203737779E-02  0.60367549984E-02 -0.11857974943E-01  0.10297776156E+01  0.10296803619E+01 0.  0.
     999903    2    3    3    0    0 -0.67981258105E-01 -0.14910183626E-01  0.11060178536E+00  0.13807405234E+00  0.44586141078E-01 0.  0.
         14    1    1    2    0    0 -0.48203737779E-02 -0.60367549984E-02  0.11857974943E-01  0.14152384393E-01  0.00000000000E+00 0. -1.
     999901    1    3    3    0    0  0.72801631883E-01  0.20946938624E-01 -0.12245976030E+00  0.89170356326E+00  0.88000000000E+00 0. -1.
        -11    1    4    4    0    0 -0.25618013462E-01  0.12387433294E-01  0.61232530000E-01  0.67523440142E-01  0.51100000000E-03 0.  1.
         11    1    4    4    0    0 -0.42363244643E-01 -0.27297616920E-01  0.49369255361E-01  0.70550612202E-01  0.51100000000E-03 0. -1.
</event>
<event>
 8    1  0.2877139E+004  0.1043930E+01  0.7957747E-01            NaN
         13   -1    0    0    0    0  0.00000000000E+00  0.00000000000E+00  0.74505805969E-08  0.10566000000E+00  0.10566000000E+00 0.  1.
     999900   -1    0    0    0    0 -0.00000000000E+00 -0.00000000000E+00 -0.74505805969E-08  0.93827000000E+00  0.93827000000E+00 0. -1.
     999902    2    1    2    0    0 -0.25128316588E-02 -0.11515082006E-01  0.63388658404E-02  0.10305474495E+01  0.10304605539E+01 0.  0.
     999903    2    3    3    0    0 -0.10842194332E+00 -0.35494777875E-01  0.71136293901E-01  0.14150837705E+00  0.44148062409E-01 0.  0.
         14    1    1    2    0    0  0.25128316588E-02  0.11515082006E-01 -0.63388658404E-02  0.13382550455E-01  0.00000000000E+00 0. -1.
     999901    1    3    3    0    0  0.10590911166E+00  0.23979695869E-01 -0.64797428061E-01  0.88903907250E+00  0.88000000000E+00 0.  1.
        -11    1    4    4    0    0 -0.31902441918E-01 -0.67445683225E-02  0.45223558713E-01  0.55755595108E-01  0.51100000000E-03 0.  1.
         11    1    4    4    0    0 -0.76519501402E-01 -0.28750209552E-01  0.25912735189E-01  0.85752781938E-01  0.51100000000E-03 0. -1.
</event>
<event>
 8    1  0.2877139E+004  0.1043930E+01  0.7957747E-01            NaN
         13   -1    0    0    0    0  0.00000000000E+00  0.00000000000E+00  0.74505805969E-08  0.10566000000E+00  0.10566000000E+00 0. -1.
     999900   -1    0    0    0    0 -0.00000000000E+00 -0.00000000000E+00 -0.74505805969E-08  0.93827000000E+00  0.93827000000E+00 0.  1.
     999902    2    1    2    0    0  0.31472726198E-02  0.94254798779E-02  0.89474359749E-02  0.10305583282E+01  0.10304715747E+01 0.  0.
     999903    2    3    3    0    0  0.11900700578E+00  0.49749069778E-01 -0.34339702511E-01  0.14099481388E+00  0.45416792091E-01 0.  0.
         14    1    1    2    0    0 -0.31472726198E-02 -0.94254798779E-02 -0.89474359749E-02  0.13371671788E-01  0.00000000000E+00 0. -1.
     999901    1    3    3    0    0 -0.11585973316E+00 -0.40323589901E-01  0.43287138486E-01  0.88956351433E+00  0.88000000000E+00 0. -1.
        -11    1    4    4    0    0  0.49399145844E-01  0.21328586173E-01  0.84727323011E-02  0.54472309589E-01  0.51100000000E-03 0.  1.
         11    1    4    4    0    0  0.69607859938E-01  0.28420483605E-01 -0.42812434812E-01  0.86522504293E-01  0.51100000000E-03 0. -1.
</event>
<event>
 8    1  0.2877139E+004  0.1043930E+01  0.7957747E-01            NaN
         13   -1    0    0    0    0  0.00000000000E+00  0.00000000000E+00  0.74505805969E-08  0.10566000000E+00  0.10566000000E+00 0. -1.
     999900   -1    0    0    0    0 -0.00000000000E+00 -0.00000000000E+00 -0.74505805969E-08  0.93827000000E+00  0.93827000000E+00 0.  1.
     999902    2    1    2    0    0 -0.13892694131E-01  0.18629961816E-02 -0.83160884867E-03  0.10298883022E+01  0.10297925741E+01 0.  0.
     999903    2    3    3    0    0  0.51822649893E-01 -0.11924137360E+00  0.18521777689E-01  0.13895658289E+00  0.45406865802E-01 0.  0.
         14    1    1    2    0    0  0.13892694131E-01 -0.18629961816E-02  0.83160884867E-03  0.14041697842E-01  0.00000000000E+00 0.  1.
     999901    1    3    3    0    0 -0.65715344025E-01  0.12110436978E+00 -0.19353386537E-01  0.89093171926E+00  0.88000000000E+00 0.  1.
        -11    1    4    4    0    0  0.84899980188E-02 -0.45006561175E-01  0.26009847035E-01  0.52672990033E-01  0.51100000000E-03 0.  1.
         11    1    4    4    0    0  0.43332651874E-01 -0.74234812421E-01 -0.74880693468E-02  0.86283592862E-01  0.51100000000E-03 0. -1.
</event>
<event>
 8    1  0.2877139E+004  0.1043930E+01  0.7957747E-01            NaN
         13   -1    0    0    0    0  0.00000000000E+00  0.00000000000E+00  0.74505805969E-08  0.10566000000E+00  0.10566000000E+00 0. -1.
     999900   -1    0    0    0    0 -0.00000000000E+00 -0.00000000000E+00 -0.74505805969E-08  0.93827000000E+00  0.93827000000E+00 0.  1.
     999902    2    1    2    0    0 -0.13364258353E-01 -0.42342047435E-02 -0.42253723856E-02  0.10292880854E+01  0.10291839374E+01 0.  0.
     999903    2    3    3    0    0  0.11401332394E+00  0.50355233370E-02 -0.62546790084E-01  0.13815826092E+00  0.46381133871E-01 0.  0.
         14    1    1    2    0    0  0.13364258353E-01  0.42342047435E-02  0.42253723856E-02  0.14641914593E-01  0.00000000000E+00 0. -1.
     999901    1    3    3    0    0 -0.12737758229E+00 -0.92697280806E-02  0.58321417698E-01  0.89112982449E+00  0.88000000000E+00 0. -1.
        -11    1    4    4    0    0  0.17280005642E-01  0.18136483272E-01 -0.18032424843E-01  0.30870051622E-01  0.51100000000E-03 0. -1.
         11    1    4    4    0    0  0.96733318299E-01 -0.13100959935E-01 -0.44514365241E-01  0.10728820930E+00  0.51100000000E-03 0.  1.
</event>
<event>
 8    1  0.2877139E+004  0.1043930E+01  0.7957747E-01            NaN
         13   -1    0    0    0    0  0.00000000000E+00  0.00000000000E+00  0.74505805969E-08  0.10566000000E+00  0.10566000000E+00 0. -1.
     999900   -1    0    0    0    0 -0.00000000000E+00 -0.00000000000E+00 -0.74505805969E-08  0.93827000000E+00  0.93827000000E+00 0. -1.
     999902    2    1    2    0    0  0.64070910729E-02 -0.76958072525E-02 -0.97710497311E-02  0.10299389429E+01  0.10298439088E+01 0.  0.
     999903    2    3    3    0    0 -0.42714348738E-01 -0.12601586516E+00  0.62659511899E-03  0.14060173861E+00  0.45430633038E-01 0.  0.
         14    1    1    2    0    0 -0.64070910729E-02  0.76958072525E-02  0.97710497311E-02  0.13991057077E-01  0.00000000000E+00 0. -1.
     999901    1    3    3    0    0  0.49121439811E-01  0.11832005791E+00 -0.10397644850E-01  0.88933720431E+00  0.88000000000E+00 0. -1.
        -11    1    4    4    0    0 -0.48518349694E-01 -0.89120658351E-01  0.10363974589E-01  0.10200095633E+00  0.51100000000E-03 0. -1.
         11    1    4    4    0    0  0.58040009561E-02 -0.36895206813E-01 -0.97373794698E-02  0.38600782282E-01  0.51100000000E-03 0.  1.
</event>
<event>
 8    1  0.2877139E+004  0.1043930E+01  0.7957747E-01            NaN
         13   -1    0    0    0    0  0.00000000000E+00  0.00000000000E+00  0.74505805969E-08  0.10566000000E+00  0.10566000000E+00 0.  1.
     999900   -1    0    0    0    0 -0.00000000000E+00 -0.00000000000E+00 -0.74505805969E-08  0.93827000000E+00  0.93827000000E+00 0.  1.
     999902    2    1    2    0    0  0.16037509167E-02 -0.66650790014E-02  0.21276321823E-01  0.10215765402E+01  0.10213319491E+01 0.  0.
     999903    2    3    3    0    0  0.33523882799E-01  0.11433609076E+00  0.37134538394E-01  0.13258179277E+00  0.44747798445E-01 0.  0.
         14    1    1    2    0    0 -0.16037509167E-02  0.66650790014E-02 -0.21276321823E-01  0.22353459808E-01  0.00000000000E+00 0. -1.
     999901    1    3    3    0    0 -0.31920131883E-01 -0.12100116976E+00 -0.15858216571E-01  0.88899474742E+00  0.88000000000E+00 0.  1.
        -11    1    4    4    0    0 -0.17861156643E-02  0.66925686809E-01  0.10609492755E-01  0.67786873519E-01  0.51100000000E-03 0. -1.
         11    1    4    4    0    0  0.35309998463E-01  0.47410403950E-01  0.26525045638E-01  0.64794919255E-01  0.51100000000E-03 0.  1.
</event>
<event>
 8    1  0.2877139E+004  0.1043930E+01  0.7957747E-01            NaN
         13   -1    0    0    0    0  0.00000000000E+00  0.00000000000E+00  0.74505805969E-08  0.10566000000E+00  0.10566000000E+00 0. -1.
     999900   -1    0    0    0    0 -0.00000000000E+00 -0.00000000000E+00 -0.74505805969E-08  0.93827000000E+00  0.93827000000E+00 0.  1.
     999902    2    1    2    0    0 -0.28229672274E-02 -0.13299860915E-01 -0.40603230089E-02  0.10297405086E+01  0.10296427406E+01 0.  0.
     999903    2    3    3    0    0  0.46048707803E-01 -0.82868743327E-01 -0.94382939655E-01  0.14104120897E+00  0.44685246097E-01 0.  0.
         14    1    1    2    0    0  0.28229672274E-02  0.13299860915E-01  0.40603230089E-02  0.14189491437E-01  0.00000000000E+00 0. -1.
     999901    1    3    3    0    0 -0.48871675031E-01  0.69568882412E-01  0.90322616646E-01  0.88869929959E+00  0.88000000000E+00 0.  1.
        -11    1    4    4    0    0  0.16022955060E-01 -0.70208519739E-01 -0.60857896862E-01  0.94286351421E-01  0.51100000000E-03 0.  1.
         11    1    4    4    0    0  0.30025752744E-01 -0.12660223588E-01 -0.33525042793E-01  0.46754857548E-01  0.51100000000E-03 0. -1.
</event>
<event>
 8    1  0.2877139E+004  0.1043930E+01  0.7957747E-01            NaN
         13   -1    0    0    0    0  0.00000000000E+00  0.00000000000E+00  0.74505805969E-08  0.10566000000E+00  0.10566000000E+00 0.  1.
     999900   -1    0    0    0    0 -0.00000000000E+00 -0.00000000000E+00 -0.74505805969E-08  0.93827000000E+00  0.93827000000E+00 0.  1.
     999902    2    1    2    0    0 -0.78395282502E-02  0.12526288680E-02  0.11279238736E-01  0.10301369398E+01  0.10300445943E+01 0.  0.
     999903    2    3    3    0    0 -0.21982894008E-01 -0.15353807740E-01  0.13151711291E+00  0.14169281952E+00  0.45399527253E-01 0.  0.
         14    1    1    2    0    0  0.78395282502E-02 -0.12526288680E-02 -0.11279238736E-01  0.13793060166E-01  0.00000000000E+00 0. -1.
     999901    1    3    3    0    0  0.14143365758E-01  0.16606436608E-01 -0.12023787417E+00  0.88844412031E+00  0.88000000000E+00 0.  1.
        -11    1    4    4    0    0  0.43558984620E-02  0.12529027975E-01  0.22500857810E-01  0.26124703187E-01  0.51100000000E-03 0. -1.
         11    1    4    4    0    0 -0.26338792470E-01 -0.27882835715E-01  0.10901625510E+00  0.11556811633E+00  0.51100000000E-03 0.  1.
</event>
<event>
 8    1  0.2877139E+004  0.1043930E+01  0.7957747E-01            NaN
         13   -1    0    0    0    0  0.00000000000E+00  0.00000000000E+00  0.74505805969E-08  0.10566000000E+00  0.10566000000E+00 0.  1.
     999900   -1    0    0    0    0 -0.00000000000E+00 -0.00000000000E+00 -0.74505805969E-08  0.93827000000E+00  0.93827000000E+00 0. -1.
     999902    2    1    2    0    0  0.12645888692E-01  0.28395743544E-02  0.34925792249E-02  0.10305068933E+01  0.10304194667E+01 0.  0.
     999903    2    3    3    0    0 -0.34148201481E-03  0.11754909139E+00  0.63321809021E-01  0.14095280175E+00  0.45167857222E-01 0.  0.
         14    1    1    2    0    0 -0.12645888692E-01 -0.28395743544E-02 -0.34925792249E-02  0.13423106681E-01  0.00000000000E+00 0. -1.
     999901    1    3    3    0    0  0.12987370707E-01 -0.11470951703E+00 -0.59829229797E-01  0.88955409157E+00  0.88000000000E+00 0. -1.
        -11    1    4    4    0    0 -0.16917802578E-01  0.19469104133E-01  0.19073643782E-01  0.32083065127E-01  0.51100000000E-03 0. -1.
         11    1    4    4    0    0  0.16576320563E-01  0.98079987256E-01  0.44248165239E-01  0.10886973662E+00  0.51100000000E-03 0.  1.
</event>
<event>
 8    1  0.2877139E+004  0.1043930E+01  0.7957747E-01            NaN
         13   -1    0    0    0    0  0.00000000000E+00  0.00000000000E+00  0.74505805969E-08  0.10566000000E+00  0.10566000000E+00 0. -1.
     999900   -1    0    0    0    0 -0.00000000000E+00 -0.00000000000E+00 -0.74505805969E-08  0.93827000000E+00  0.93827000000E+00 0.  1.
     999902    2    1    2    0    0 -0.76353899902E-03  0.73048902410E-02 -0.97376729298E-02  0.10317330050E+01  0.10316609069E+01 0.  0.
     999903    2    3    3    0    0 -0.91733254469E-01 -0.51790607449E-02 -0.99977625705E-01  0.14236548408E+00  0.42785427083E-01 0.  0.
         14    1    1    2    0    0  0.76353899902E-03 -0.73048902410E-02  0.97376729298E-02  0.12196995012E-01  0.00000000000E+00 0. -1.
     999901    1    3    3    0    0  0.90969715470E-01  0.12483950986E-01  0.90239952775E-01  0.88936752091E+00  0.88000000000E+00 0. -1.
        -11    1    4    4    0    0 -0.49887142932E-01 -0.13474145446E-01 -0.80040703553E-01  0.95273579610E-01  0.51100000000E-03 0.  1.
         11    1    4    4    0    0 -0.41846111537E-01  0.82950847008E-02 -0.19936922152E-01  0.47091904473E-01  0.51100000000E-03 0. -1.
</event>
<event>
 8    1  0.2877139E+004  0.1043930E+01  0.7957747E-01            NaN
         13   -1    0    0    0    0  0.00000000000E+00  0.00000000000E+00  0.74505805969E-08  0.10566000000E+00  0.10566000000E+00 0. -1.
     999900   -1    0    0    0    0 -0.00000000000E+00 -0.00000000000E+00 -0.74505805969E-08  0.93827000000E+00  0.93827000000E+00 0. -1.
     999902    2    1    2    0    0 -0.73129583373E-02  0.11975308460E-01 -0.24957275860E-02  0.10296781219E+01  0.10295794864E+01 0.  0.
     999903    2    3    3    0    0  0.99216820565E-01 -0.61747620700E-01 -0.58916682709E-01  0.13840544297E+00  0.45034930865E-01 0.  0.
         14    1    1    2    0    0  0.73129583373E-02 -0.11975308460E-01  0.24957275860E-02  0.14251878071E-01  0.00000000000E+00 0. -1.
     999901    1    3    3    0    0 -0.10652977890E+00  0.73722929160E-01  0.56420955123E-01  0.89127267896E+00  0.88000000000E+00 0.  1.
        -11    1    4    4    0    0  0.73111960191E-01 -0.53647621710E-01 -0.63472819697E-01  0.11069094814E+00  0.51100000000E-03 0. -1.
         11    1    4    4    0    0  0.26104860374E-01 -0.80999989897E-02  0.45561369880E-02  0.27714494836E-01  0.51100000000E-03 0.  1.
</event>
<event>
 8    1  0.2877139E+004  0.1043930E+01  0.7957747E-01            NaN
         13   -1    0    0    0    0  0.00000000000E+00  0.00000000000E+00  0.74505805969E-08  0.10566000000E+00  0.10566000000E+00 0. -1.
     999900   -1    0    0    0    0 -0.00000000000E+00 -0.00000000000E+00 -0.74505805969E-08  0.93827000000E+00  0.93827000000E+00 0.  1.
     999902    2    1    2    0    0 -0.10319593435E-01  0.72165816533E-02 -0.13215758560E-01  0.10256754298E+01  0.10255129731E+01 0.  0.
     999903    2    3    3    0    0 -0.12220663268E+00 -0.88849718135E-02 -0.46262020567E-01  0.13782970839E+00  0.42935418604E-01 0.  0.
         14    1    1    2    0    0  0.10319593435E-01 -0.72165816533E-02  0.13215758560E-01  0.18254570215E-01  0.00000000000E+00 0. -1.
     999901    1    3    3    0    0  0.11188703925E+00  0.16101553467E-01  0.33046262008E-01  0.88784572140E+00  0.88000000000E+00 0.  1.
        -11    1    4    4    0    0 -0.53240900948E-01  0.14495841444E-01 -0.31453741622E-01  0.63516312362E-01  0.51100000000E-03 0.  1.
         11    1    4    4    0    0 -0.68965731734E-01 -0.23380813257E-01 -0.14808278945E-01  0.74313396024E-01  0.51100000000E-03 0. -1.
</event>
<event>
 8    1  0.2877139E+004  0.1043930E+01  0.7957747E-01            NaN
         13   -1    0    0    0    0  0.00000000000E+00  0.00000000000E+00  0.74505805969E-08  0.10566000000E+00  0.10566000000E+00 0. -1.
     999900   -1    0    0    0    0 -0.00000000000E+00 -0.00000000000E+00 -0.74505805969E-08  0.93827000000E+00  0.93827000000E+00 0. -1.
     999902    2    1    2    0    0 -0.12872974138E-01 -0.34847170607E-02  0.42283127838E-02  0.10299394552E+01  0.10298444280E+01 0.  0.
     999903    2    3    3    0    0 -0.79771016464E-01 -0.85858584583E-01 -0.64545723201E-01  0.14090027146E+00  0.44177194333E-01 0.  0.
         14    1    1    2    0    0  0.12872974138E-01  0.34847170607E-02 -0.42283127838E-02  0.13990544848E-01  0.00000000000E+00 0.  1.
     999901    1    3    3    0    0  0.66898042326E-01  0.82373867523E-01  0.68774035985E-01  0.88903918369E+00  0.88000000000E+00 0.  1.
        -11    1    4    4    0    0 -0.73329715730E-01 -0.56387006319E-01 -0.60322277852E-01  0.11043450555E+00  0.51100000000E-03 0. -1.
         11    1    4    4    0    0 -0.64413007340E-02 -0.29471578265E-01 -0.42234453489E-02  0.30465765905E-01  0.51100000000E-03 0.  1.
</event>
<event>
 8    1  0.2877139E+004  0.1043930E+01  0.7957747E-01            NaN
         13   -1    0    0    0    0  0.00000000000E+00  0.00000000000E+00  0.74505805969E-08  0.10566000000E+00  0.10566000000E+00 0. -1.
     999900   -1    0    0    0    0 -0.00000000000E+00 -0.00000000000E+00 -0.74505805969E-08  0.93827000000E+00  0.93827000000E+00 0.  1.
     999902    2    1    2    0    0 -0.15475026104E-01 -0.79157592499E-02  0.11745913001E-01  0.10229513883E+01  0.10227362517E+01 0.  0.
     999903    2    3    3    0    0  0.97813774827E-01  0.73662266018E-01  0.19575404973E-01  0.13191231643E+00  0.44988873793E-01 0.  0.
         14    1    1    2    0    0  0.15475026104E-01  0.79157592499E-02 -0.11745913001E-01  0.20978611719E-01  0.00000000000E+00 0.  1.
     999901    1    3    3    0    0 -0.11328880093E+00 -0.81578025268E-01 -0.78294919716E-02  0.89103907185E+00  0.88000000000E+00 0.  1.
        -11    1    4    4    0    0  0.50500166153E-01  0.59269175851E-01  0.25878519876E-01  0.82055230787E-01  0.51100000000E-03 0.  1.
         11    1    4    4    0    0  0.47313608673E-01  0.14393090167E-01 -0.63031149030E-02  0.49857085642E-01  0.51100000000E-03 0. -1.
</event>
<event>
 8    1  0.2877139E+004  0.1043930E+01  0.7957747E-01            NaN
         13   -1    0    0    0    0  0.00000000000E+00  0.00000000000E+00  0.74505805969E-08  0.10566000000E+00  0.10566000000E+00 0. -1.
     999900   -1    0    0    0    0 -0.00000000000E+00 -0.00000000000E+00 -0.74505805969E-08  0.93827000000E+00  0.93827000000E+00 0. -1.
     999902    2    1    2    0    0  0.55882963699E-02 -0.11851558872E-01 -0.24831776640E-02  0.10305937833E+01  0.10305074922E+01 0.  0.
     999903    2    3    3    0    0  0.51895703713E-02 -0.12408100419E+00  0.51744699668E-01  0.14181019320E+00  0.44828447573E-01 0.  0.
         14    1    1    2    0    0 -0.55882963699E-02  0.11851558872E-01  0.24831776640E-02  0.13336216680E-01  0.00000000000E+00 0. -1.
     999901    1    3    3    0    0  0.39872599855E-03  0.11222944532E+00 -0.54227877332E-01  0.88878359012E+00  0.88000000000E+00 0. -1.
        -11    1    4    4    0    0  0.19832311480E-02 -0.73452854377E-01  0.53744907975E-01  0.91038625188E-01  0.51100000000E-03 0.  1.
         11    1    4    4    0    0  0.32063392233E-02 -0.50628149812E-01 -0.20002083063E-02  0.50771568017E-01  0.51100000000E-03 0. -1.
</event>
<event>
 8    1  0.2877139E+004  0.1043930E+01  0.7957747E-01            NaN
         13   -1    0    0    0    0  0.00000000000E+00  0.00000000000E+00  0.74505805969E-08  0.10566000000E+00  0.10566000000E+00 0. -1.
     999900   -1    0    0    0    0 -0.00000000000E+00 -0.00000000000E+00 -0.74505805969E-08  0.93827000000E+00  0.93827000000E+00 0.  1.
     999902    2    1    2    0    0 -0.24722548524E-02 -0.65936934653E-02 -0.11526799837E-01  0.10304223743E+01  0.10303338360E+01 0.  0.
     999903    2    3    3    0    0  0.96599403717E-01 -0.82775805870E-01  0.40625436498E-01  0.14006359070E+00  0.42238661349E-01 0.  0.
         14    1    1    2    0    0  0.24722548524E-02  0.65936934653E-02  0.11526799837E-01  0.13507625700E-01  0.00000000000E+00 0. -1.
     999901    1    3    3    0    0 -0.99071658570E-01  0.76182112405E-01 -0.52152236335E-01  0.89035878360E+00  0.88000000000E+00 0.  1.
        -11    1    4    4    0    0  0.91189292548E-01 -0.58921466604E-01  0.39633123731E-01  0.11557799064E+00  0.51100000000E-03 0. -1.
         11    1    4    4    0    0  0.54101111694E-02 -0.23854339267E-01  0.99231276726E-03  0.24485600061E-01  0.51100000000E-03 0.  1.
</event>
<event>
 8    1  0.2877139E+004  0.1043930E+01  0.7957747E-01            NaN
         13   -1    0    0    0    0  0.00000000000E+00  0.00000000000E+00  0.74505805969E-08  0.10566000000E+00  0.10566000000E+00 0. -1.
     999900   -1    0    0    0    0 -0.00000000000E+00 -0.00000000000E+00 -0.74505805969E-08  0.93827000000E+00  0.93827000000E+00 0. -1.
     999902    2    1    2    0    0  0.16473642649E-02  0.11085706913E-01 -0.79278320316E-02  0.10302020276E+01  0.10301105573E+01 0.  0.
     999903    2    3    3    0    0 -0.32793497019E-01 -0.12325866021E+00  0.35976605545E-01  0.13825910251E+00  0.39410056034E-01 0.  0.
         14    1    1    2    0    0 -0.16473642649E-02 -0.11085706913E-01  0.79278320316E-02  0.13727972447E-01  0.00000000000E+00 0. -1.
     999901    1    3    3    0    0  0.34440861284E-01  0.13434436712E+00 -0.43904437577E-01  0.89194292505E+00  0.88000000000E+00 0.  1.
        -11    1    4    4    0    0 -0.19621525170E-01 -0.23125268458E-01  0.19145035051E-01  0.35868869223E-01  0.51100000000E-03 0. -1.
         11    1    4    4    0    0 -0.13171971849E-01 -0.10013339175E+00  0.16831570494E-01  0.10239023328E+00  0.51100000000E-03 0.  1.
</event>
<event>
 8    1  0.2877139E+004  0.1043930E+01  0.7957747E-01            NaN
         13   -1    0    0    0    0  0.00000000000E+00  0.00000000000E+00  0.74505805969E-08  0.10566000000E+00  0.10566000000E+00 0.  1.
     999900   -1    0    0    0    0 -0.00000000000E+00 -0.00000000000E+00 -0.74505805969E-08  0.93827000000E+00  0.93827000000E+00 0. -1.
     999902    2    1    2    0    0 -0.10347408962E-01  0.32986756039E-03 -0.68877553413E-02  0.10314954168E+01  0.10314204652E+01 0.  0.
     999903    2    3    3    0    0 -0.11663212750E+00  0.19311378126E-01 -0.66881448869E-01  0.14286952120E+00  0.44301121813E-01 0.  0.
         14    1    1    2    0    0  0.10347408962E-01 -0.32986756039E-03  0.68877553413E-02  0.12434583164E-01  0.00000000000E+00 0.  1.
     999901    1    3    3    0    0  0.10628471854E+00 -0.18981510565E-01  0.59993693527E-01  0.88862589564E+00  0.88000000000E+00 0. -1.
        -11    1    4    4    0    0 -0.55802052309E-01  0.11314951686E-01 -0.74074140619E-02  0.57419753375E-01  0.51100000000E-03 0. -1.
         11    1    4    4    0    0 -0.60830075190E-01  0.79964264396E-02 -0.59474034807E-01  0.85449767821E-01  0.51100000000E-03 0.  1.
</event>
<event>
 8    1  0.2877139E+004  0.1043930E+01  0.7957747E-01            NaN
         13   -1    0    0    0    0  0.00000000000E+00  0.00000000000E+00  0.74505805969E-08  0.10566000000E+00  0.10566000000E+00 0. -1.
     999900   -1    0    0    0    0 -0.00000000000E+00 -0.00000000000E+00 -0.74505805969E-08  0.93827000000E+00  0.93827000000E+00 0. -1.
     999902    2    1    2    0    0  0.11397960708E-01 -0.75088822352E-02  0.40092034438E-02  0.10297043003E+01  0.10296060292E+01 0.  0.
     999903    2    3    3    0    0  0.12335845166E+00 -0.10051024016E-01  0.51174561642E-01  0.14135403993E+00  0.45208386021E-01 0.  0.
         14    1    1    2    0    0 -0.11397960708E-01  0.75088822352E-02 -0.40092034438E-02  0.14225699736E-01  0.00000000000E+00 0.  1.
     999901    1    3    3    0    0 -0.11196049095E+00  0.25421417803E-02 -0.47165358198E-01  0.88835026033E+00  0.88000000000E+00 0. -1.
        -11    1    4    4    0    0  0.29350810666E-01  0.16769748779E-01  0.16570269828E-01  0.37650093281E-01  0.51100000000E-03 0.  1.
         11    1    4    4    0    0  0.94007640991E-01 -0.26820772794E-01  0.34604291814E-01  0.10370394665E+00  0.51100000000E-03 0. -1.
</event>
<event>
 8    1  0.2877139E+004  0.1043930E+01  0.7957747E-01            NaN
         13   -1    0    0    0    0  0.00000000000E+00  0.00000000000E+00  0.74505805969E-08  0.10566000000E+00  0.10566000000E+00 0.  1.
     999900   -1    0    0    0    0 -0.00000000000E+00 -0.00000000000E+00 -0.74505805969E-08  0.93827000000E+00  0.93827000000E+00 0.  1.
     999902    2    1    2    0    0 -0.70458565407E-03  0.13633676638E-01 -0.32391338936E-02  0.10298991209E+01  0.10298035413E+01 0.  0.
     999903    2    3    3    0    0 -0.94253752307E-01  0.33506069823E-01  0.86986652341E-01  0.14013114492E+00  0.45427233607E-01 0.  0.
         14    1    1    2    0    0  0.70458565407E-03 -0.13633676638E-01  0.32391338936E-02  0.14030879088E-01  0.00000000000E+00 0.  1.
     999901    1    3    3    0    0  0.93549166653E-01 -0.19872393185E-01 -0.90225786235E-01  0.88976797599E+00  0.88000000000E+00 0. -1.
        -11    1    4    4    0    0 -0.80333534714E-01  0.82027625609E-02  0.67952306651E-01  0.10553927806E+00  0.51100000000E-03 0.  1.
         11    1    4    4    0    0 -0.13920217592E-01  0.25303307262E-01  0.19034345690E-01  0.34591866863E-01  0.51100000000E-03 0. -1.
</event>
<event>
 8    1  0.2877139E+004  0.1043930E+01  0.7957747E-01            NaN
         13   -1    0    0    0    0  0.00000000000E+00  0.00000000000E+00  0.74505805969E-08  0.10566000000E+00  0.10566000000E+00 0. -1.
     999900   -1    0    0    0    0 -0.00000000000E+00 -0.00000000000E+00 -0.74505805969E-08  0.93827000000E+00  0.93827000000E+00 0.  1.
     999902    2    1    2    0    0  0.10055158133E-01  0.64991014710E-02  0.35843814375E-02  0.10314323076E+01  0.10313565886E+01 0.  0.
     999903    2    3    3    0    0  0.71915020063E-01 -0.79468381093E-01  0.80309589181E-01  0.14176730993E+00  0.46490282279E-01 0.  0.
         14    1    1    2    0    0 -0.10055158133E-01 -0.64991014710E-02 -0.35843814375E-02  0.12497692399E-01  0.00000000000E+00 0.  1.
     999901    1    3    3    0    0 -0.61859861929E-01  0.85967482564E-01 -0.76725207743E-01  0.88966499767E+00  0.88000000000E+00 0.  1.
        -11    1    4    4    0    0  0.16044210110E-01 -0.45688881006E-01  0.18439496695E-01  0.51818594008E-01  0.51100000000E-03 0. -1.
         11    1    4    4    0    0  0.55870809953E-01 -0.33779500087E-01  0.61870092486E-01  0.89948715922E-01  0.51100000000E-03 0.  1.
</event>
<event>
 8    1  0.2877139E+004  0.1043930E+01  0.7957747E-01            NaN
         13   -1    0    0    0    0  0.00000000000E+00  0.00000000000E+00  0.74505805969E-08  0.10566000000E+00  0.10566000000E+00 0. -1.
     999900   -1    0    0    0    0 -0.00000000000E+00 -0.00000000000E+00 -0.74505805969E-08  0.93827000000E+00  0.93827000000E+00 0.  1.
     999902    2    1    2    0    0 -0.50841847976E-03  0.11972381726E-01 -0.69296129699E-02  0.10300874587E+01  0.10299944450E+01 0.  0.
     999903    2    3    3    0    0 -0.12014518401E-01  0.94976044606E-01  0.92426149358E-01  0.14054062695E+00  0.45213681954E-01 0.  0.
         14    1    1    2    0    0  0.50841847976E-03 -0.11972381726E-01  0.69296129699E-02  0.13842541294E-01  0.00000000000E+00 0. -1.
     999901    1    3    3    0    0  0.11506099921E-01 -0.83003662880E-01 -0.99355762328E-01  0.88954683176E+00  0.88000000000E+00 0.  1.
        -11    1    4    4    0    0 -0.22148136769E-01  0.50446107554E-01  0.28656551483E-01  0.62103210816E-01  0.51100000000E-03 0.  1.
         11    1    4    4    0    0  0.10133618368E-01  0.44529937052E-01  0.63769597875E-01  0.78437416130E-01  0.51100000000E-03 0. -1.
</event>
<event>
 8    1  0.2877139E+004  0.1043930E+01  0.7957747E-01            NaN
         13   -1    0    0    0    0  0.00000000000E+00  0.00000000000E+00  0.74505805969E-08  0.10566000000E+00  0.10566000000E+00 0.  1.
     999900   -1    0    0    0    0 -0.00000000000E+00 -0.00000000000E+00 -0.74505805969E-08  0.93827000000E+00  0.93827000000E+00 0. -1.
     999902    2    1    2    0    0 -0.17425065461E-02  0.10343948956E-01 -0.84872471500E-02  0.10304367805E+01  0.10303484321E+01 0.  0.
     999903    2    3    3    0    0  0.10765948911E+00 -0.70634159472E-01 -0.30258677758E-01  0.13970660478E+00  0.44973300528E-01 0.  0.
         14    1    1    2    0    0  0.17425065461E-02 -0.10343948956E-01  0.84872471500E-02  0.13493219529E-01  0.00000000000E+00 0. -1.
     999901    1    3    3    0    0 -0.10940199565E+00  0.80978108428E-01  0.21771430608E-01  0.89073017569E+00  0.88000000000E+00 0.  1.
        -11    1    4    4    0    0  0.27552722777E-01 -0.22374053338E-01  0.11460852155E-01  0.37300979187E-01  0.51100000000E-03 0. -1.
         11    1    4    4    0    0  0.80106766329E-01 -0.48260106134E-01 -0.41719529913E-01  0.10240562559E+00  0.51100000000E-03 0.  1.
</event>
<event>
 8    1  0.2877139E+004  0.1043930E+01  0.7957747E-01            NaN
         13   -1    0    0    0    0  0.00000000000E+00  0.00000000000E+00  0.74505805969E-08  0.10566000000E+00  0.10566000000E+00 0. -1.
     999900   -1    0    0    0    0 -0.00000000000E+00 -0.00000000000E+00 -0.74505805969E-08  0.93827000000E+00  0.93827000000E+00 0. -1.
     999902    2    1    2    0    0 -0.72231772228E-02  0.11669447610E-01  0.35620413376E-02  0.10297511977E+01  0.10296535780E+01 0.  0.
     999903    2    3    3    0    0 -0.12267555364E+00 -0.27297493345E-01  0.44317603881E-01  0.14042072503E+00  0.44266075050E-01 0.  0.
         14    1    1    2    0    0  0.72231772228E-02 -0.11669447610E-01 -0.35620413376E-02  0.14178802319E-01  0.00000000000E+00 0.  1.
     999901    1    3    3    0    0  0.11545237642E+00  0.38966940955E-01 -0.40755562544E-01  0.88933047265E+00  0.88000000000E+00 0. -1.
        -11    1    4    4    0    0 -0.80984737120E-01 -0.31839496594E-01  0.46031477270E-01  0.98445107600E-01  0.51100000000E-03 0.  1.
         11    1    4    4    0    0 -0.41690816520E-01  0.45420032490E-02 -0.17138733883E-02  0.41975617430E-01  0.51100000000E-03 0. -1.
</event>
<event>
 8    1  0.2877139E+004  0.1043930E+01  0.7957747E-01            NaN
         13   -1    0    0    0    0  0.00000000000E+00  0.00000000000E+00  0.74505805969E-08  0.10566000000E+00  0.10566000000E+00 0. -1.
     999900   -1    0    0    0    0 -0.00000000000E+00 -0.00000000000E+00 -0.74505805969E-08  0.93827000000E+00  0.93827000000E+00 0. -1.
     999902    2    1    2    0    0  0.75372904711E-02 -0.10112952964E-01  0.80579042228E-02  0.10289629567E+01  0.10288540974E+01 0.  0.
     999903    2    3    3    0    0 -0.10118490392E+00 -0.33009996881E-01  0.77925702423E-01  0.13922912041E+00  0.44545349887E-01 0.  0.
         14    1    1    2    0    0 -0.75372904711E-02  0.10112952964E-01 -0.80579042228E-02  0.14967043321E-01  0.00000000000E+00 0. -1.
     999901    1    3    3    0    0  0.10872219439E+00  0.22897043917E-01 -0.69867798200E-01  0.88973383627E+00  0.88000000000E+00 0. -1.
        -11    1    4    4    0    0 -0.55402769295E-01 -0.33208446275E-01  0.65036785057E-01  0.91664127559E-01  0.51100000000E-03 0. -1.
         11    1    4    4    0    0 -0.45782134628E-01  0.19844939430E-03  0.12888917366E-01  0.47564992853E-01  0.51100000000E-03 0.  1.
</event>
<event>
 8    1  0.2877139E+004  0.1043930E+01  0.7957747E-01            NaN
         13   -1    0    0    0    0  0.00000000000E+00  0.00000000000E+00  0.74505805969E-08  0.10566000000E+00  0.10566000000E+00 0.  1.
     999900   -1    0    0    0    0 -0.00000000000E+00 -0.00000000000E+00 -0.74505805969E-08  0.93827000000E+00  0.93827000000E+00 0. -1.
     999902    2    1    2    0    0 -0.59177251493E-03  0.64471871815E-02 -0.12080356232E-01  0.10302241099E+01  0.10301329357E+01 0.  0.
     999903    2    3    3    0    0 -0.58771886123E-01  0.11363288829E+00  0.36371079651E-01  0.14049311583E+00  0.45264691085E-01 0.  0.
         14    1    1    2    0    0  0.59177251493E-03 -0.64471871815E-02  0.12080356232E-01  0.13705890119E-01  0.00000000000E+00 0.  1.
     999901    1    3    3    0    0  0.58180113608E-01 -0.10718570111E+00 -0.48451435883E-01  0.88973099405E+00  0.88000000000E+00 0. -1.
        -11    1    4    4    0    0 -0.27827930279E-01  0.89060892150E-01  0.12029134245E-01  0.94080802536E-01  0.51100000000E-03 0. -1.
         11    1    4    4    0    0 -0.30943955843E-01  0.24571996144E-01  0.24341945406E-01  0.46412313290E-01  0.51100000000E-03 0.  1.
</event>
<event>
 8    1  0.2877139E+004  0.1043930E+01  0.7957747E-01            NaN
         13   -1    0    0    0    0  0.00000000000E+00  0.00000000000E+00  0.74505805969E-08  0.10566000000E+00  0.10566000000E+00 0.  1.
     999900   -1    0    0    0    0 -0.00000000000E+00 -0.00000000000E+00 -0.74505805969E-08  0.93827000000E+00  0.93827000000E+00 0.  1.
     999902    2    1    2    0    0 -0.22558493448E-02  0.13096822852E-01 -0.46377858747E-03  0.10306322289E+01  0.10305464379E+01 0.  0.
     999903    2    3    3    0    0 -0.66979625511E-01  0.70520910650E-02 -0.11520312383E+00  0.14080594063E+00  0.44928286795E-01 0.  0.
         14    1    1    2    0    0  0.22558493448E-02 -0.13096822852E-01  0.46377858747E-03  0.13297771078E-01  0.00000000000E+00 0.  1.
     999901    1    3    3    0    0  0.64723776166E-01  0.60447317868E-02  0.11473934525E+00  0.88982628829E+00  0.88000000000E+00 0. -1.
        -11    1    4    4    0    0 -0.47155402061E-01 -0.16599363090E-01 -0.74607526942E-01  0.89809325773E-01  0.51100000000E-03 0.  1.
         11    1    4    4    0    0 -0.19824223449E-01  0.23651454155E-01 -0.40595596892E-01  0.50996614859E-01  0.51100000000E-03 0. -1.
</event>
<event>
 8    1  0.2877139E+004  0.1043930E+01  0.7957747E-01            NaN
         13   -1    0    0    0    0  0.00000000000E+00  0.00000000000E+00  0.74505805969E-08  0.10566000000E+00  0.10566000000E+00 0. -1.
     999900   -1    0    0    0    0 -0.00000000000E+00 -0.00000000000E+00 -0.74505805969E-08  0.93827000000E+00  0.93827000000E+00 0. -1.
     999902    2    1    2    0    0  0.12865938941E-01  0.37583304313E-02  0.75437413505E-03  0.10305051532E+01  0.10304177037E+01 0.  0.
     999903    2    3    3    0    0  0.15452245174E-01  0.51541638763E-01 -0.12194354618E+00  0.14070477488E+00  0.45080958417E-01 0.  0.
         14    1    1    2    0    0 -0.12865938941E-01 -0.37583304313E-02 -0.75437413505E-03  0.13424846844E-01  0.00000000000E+00 0.  1.
     999901    1    3    3    0    0 -0.25863062338E-02 -0.47783308331E-01  0.12269792031E+00  0.88980037828E+00  0.88000000000E+00 0.  1.
        -11    1    4    4    0    0  0.15854818095E-01  0.34272171261E-02 -0.60627099545E-01  0.62761671379E-01  0.51100000000E-03 0. -1.
         11    1    4    4    0    0 -0.40257292036E-03  0.48114421636E-01 -0.61316446632E-01  0.77943103498E-01  0.51100000000E-03 0.  1.
</event>
<event>
 8    1  0.2877139E+004  0.1043930E+01  0.7957747E-01            NaN
         13   -1    0    0    0    0  0.00000000000E+00  0.00000000000E+00  0.74505805969E-08  0.10566000000E+00  0.10566000000E+00 0.  1.
     999900   -1    0    0    0    0 -0.00000000000E+00 -0.00000000000E+00 -0.74505805969E-08  0.93827000000E+00  0.93827000000E+00 0. -1.
     999902    2    1    2    0    0  0.42864879847E-02  0.96500654040E-02 -0.53355310903E-02  0.10320992928E+01  0.10320314843E+01 0.  0.
     999903    2    3    3    0    0 -0.68000410473E-01 -0.11468662553E+00 -0.11491088937E-01  0.14040265193E+00  0.42470950591E-01 0.  0.
         14    1    1    2    0    0 -0.42864879847E-02 -0.96500654040E-02  0.53355310903E-02  0.11830707230E-01  0.00000000000E+00 0.  1.
     999901    1    3    3    0    0  0.72286898457E-01  0.12433669093E+00  0.61555578470E-02  0.89169664084E+00  0.88000000000E+00 0. -1.
        -11    1    4    4    0    0 -0.49510085432E-01 -0.43876705884E-01 -0.11885032653E-01  0.67215541364E-01  0.51100000000E-03 0. -1.
         11    1    4    4    0    0 -0.18490325041E-01 -0.70809919642E-01  0.39394371528E-03  0.73187110562E-01  0.51100000000E-03 0.  1.
</event>
<event>
 8    1  0.2877139E+004  0.1043930E+01  0.7957747E-01            NaN
         13   -1    0    0    0    0  0.00000000000E+00  0.00000000000E+00  0.74505805969E-08  0.10566000000E+00  0.10566000000E+00 0. -1.
     999900   -1    0    0    0    0 -0.00000000000E+00 -0.00000000000E+00 -0.74505805969E-08  0.93827000000E+00  0.93827000000E+00 0.  1.
     999902    2    1    2    0    0  0.24146276541E-02  0.94937349818E-02  0.10208136240E-01  0.10297819444E+01  0.10296847506E+01 0.  0.
     999903    2    3    3    0    0 -0.17886883580E-01 -0.78317609545E-01  0.10523747937E+00  0.14008898637E+00  0.45786553368E-01 0.  0.
         14    1    1    2    0    0 -0.24146276541E-02 -0.94937349818E-02 -0.10208136240E-01  0.14148055559E-01  0.00000000000E+00 0.  1.
     999901    1    3    3    0    0  0.20301511234E-01  0.87811344527E-01 -0.95029343127E-01  0.88969295807E+00  0.88000000000E+00 0.  1.
        -11    1    4    4    0    0 -0.16202068435E-01 -0.20512208847E-01  0.63785132330E-01  0.68935201173E-01  0.51100000000E-03 0.  1.
         11    1    4    4    0    0 -0.16848151450E-02 -0.57805400697E-01  0.41452347037E-01  0.71153785196E-01  0.51100000000E-03 0. -1.
</event>
<event>
 8    1  0.2877139E+004  0.1043930E+01  0.7957747E-01            NaN
         13   -1    0    0    0    0  0.00000000000E+00  0.00000000000E+00  0.74505805969E-08  0.10566000000E+00  0.10566000000E+00 0. -1.
     999900   -1    0    0    0    0 -0.00000000000E+00 -0.00000000000E+00 -0.74505805969E-08  0.93827000000E+00  0.93827000000E+00 0.  1.
     999902    2    1    2    0    0 -0.11962698096E-01  0.34002077886E-02  0.70059786928E-02  0.10296558522E+01  0.10295569060E+01 0.  0.
     999903    2    3    3    0    0  0.12113049483E+00  0.40846841462E-01 -0.26204267828E-01  0.13824182443E+00  0.45640739864E-01 0.  0.
         14    1    1    2    0    0  0.11962698096E-01 -0.34002077886E-02 -0.70059786928E-02  0.14274147827E-01  0.00000000000E+00 0.  1.
     999901    1    3    3    0    0 -0.13309319293E+00 -0.37446633674E-01  0.33210246521E-01  0.89141402774E+00  0.88000000000E+00 0.  1.
        -11    1    4    4    0    0  0.21260523942E-01  0.27674481062E-01 -0.44628416587E-02  0.35186145811E-01  0.51100000000E-03 0.  1.
         11    1    4    4    0    0  0.99869970887E-01  0.13172360400E-01 -0.21741426169E-01  0.10305567862E+00  0.51100000000E-03 0. -1.
</event>
<event>
 8    1  0.2877139E+004  0.1043930E+01  0.7957747E-01            NaN
         13   -1    0    0    0    0  0.00000000000E+00  0.00000000000E+00  0.74505805969E-08  0.10566000000E+00  0.10566000000E+00 0. -1.
     999900   -1    0    0    0    0 -0.00000000000E+00 -0.00000000000E+00 -0.74505805969E-08  0.93827000000E+00  0.93827000000E+00 0. -1.
     999902    2    1    2    0    0 -0.23211492783E-02  0.52045313951E-02  0.12191995265E-01  0.10304719307E+01  0.10303840451E+01 0.  0.
     999903    2    3    3    0    0 -0.13223490419E+00  0.38726458517E-02 -0.14555007940E-01  0.14053105635E+00  0.45122746724E-01 0.  0.
         14    1    1    2    0    0  0.23211492783E-02 -0.52045313951E-02 -0.12191995265E-01  0.13458069310E-01  0.00000000000E+00 0.  1.
     999901    1    3    3    0    0  0.12991375491E+00  0.13318855434E-02  0.26747003205E-01  0.88994087434E+00  0.88000000000E+00 0.  1.
        -11    1    4    4    0    0 -0.59425185748E-01 -0.20199003197E-01 -0.18148666583E-02  0.62792573552E-01  0.51100000000E-03 0.  1.
         11    1    4    4    0    0 -0.72809718441E-01  0.24071649048E-01 -0.12740141281E-01  0.77738482802E-01  0.51100000000E-03 0. -1.
</event>
<event>
 8    1  0.2877139E+004  0.1043930E+01  0.7957747E-01            NaN
         13   -1    0    0    0    0  0.00000000000E+00  0.00000000000E+00  0.74505805969E-08  0.10566000000E+00  0.10566000000E+00 0.  1.
     999900   -1    0    0    0    0 -0.00000000000E+00 -0.00000000000E+00 -0.74505805969E-08  0.93827000000E+00  0.93827000000E+00 0.  1.
     999902    2    1    2    0    0  0.11338340990E-01  0.63462553970E-02 -0.75271542287E-02  0.10289136428E+01  0.10288040597E+01 0.  0.
     999903    2    3    3    0    0 -0.48362761856E-01 -0.12015992536E+00  0.11628798862E-01  0.13765891711E+00  0.45137391386E-01 0.  0.
         14    1    1    2    0    0 -0.11338340990E-01 -0.63462553970E-02  0.75271542287E-02  0.15016357240E-01  0.00000000000E+00 0. -1.
     999901    1    3    3    0    0  0.59701102846E-01  0.12650618076E+00 -0.19155953090E-01  0.89125472565E+00  0.88000000000E+00 0.  1.
        -11    1    4    4    0    0  0.66020348664E-02 -0.28075047697E-01 -0.45519235919E-02  0.29202333759E-01  0.51100000000E-03 0. -1.
         11    1    4    4    0    0 -0.54964796723E-01 -0.92084877661E-01  0.16180722454E-01  0.10845658335E+00  0.51100000000E-03 0.  1.
</event>
<event>
 8    1  0.2877139E+004  0.1043930E+01  0.7957747E-01            NaN
         13   -1    0    0    0    0  0.00000000000E+00  0.00000000000E+00  0.74505805969E-08  0.10566000000E+00  0.10566000000E+00 0. -1.
     999900   -1    0    0    0    0 -0.00000000000E+00 -0.00000000000E+00 -0.74505805969E-08  0.93827000000E+00  0.93827000000E+00 0.  1.
     999902    2    1    2    0    0 -0.80155231995E-03  0.98354787226E-02 -0.97661655392E-02  0.10300463003E+01  0.10299527288E+01 0.  0.
     999903    2    3    3    0    0 -0.22585089644E-01 -0.11430482382E+00  0.59743188964E-01  0.13835303041E+00  0.44683703662E-01 0.  0.
         14    1    1    2    0    0  0.80155231995E-03 -0.98354787226E-02  0.97661655392E-02  0.13883699693E-01  0.00000000000E+00 0. -1.
     999901    1    3    3    0    0  0.21783537324E-01  0.12414030255E+00 -0.69509354503E-01  0.89169326990E+00  0.88000000000E+00 0.  1.
        -11    1    4    4    0    0 -0.22888798020E-01 -0.72777798155E-01  0.15844724865E-01  0.77921892984E-01  0.51100000000E-03 0. -1.
         11    1    4    4    0    0  0.30370837563E-03 -0.41527025668E-01  0.43898464098E-01  0.60431137427E-01  0.51100000000E-03 0.  1.
</event>
<event>
 8    1  0.2877139E+004  0.1043930E+01  0.7957747E-01            NaN
         13   -1    0    0    0    0  0.00000000000E+00  0.00000000000E+00  0.74505805969E-08  0.10566000000E+00  0.10566000000E+00 0.  1.
     999900   -1    0    0    0    0 -0.00000000000E+00 -0.00000000000E+00 -0.74505805969E-08  0.93827000000E+00  0.93827000000E+00 0. -1.
     999902    2    1    2    0    0 -0.88710743458E-02 -0.10240412854E-01 -0.12788639333E-02  0.10303212709E+01  0.10302313933E+01 0.  0.
     999903    2    3    3    0    0 -0.12864776453E+00 -0.10343842123E-01 -0.37277485283E-01  0.14147799619E+00  0.44375332216E-01 0.  0.
         14    1    1    2    0    0  0.88710743458E-02  0.10240412854E-01  0.12788639333E-02  0.13608729126E-01  0.00000000000E+00 0. -1.
     999901    1    3    3    0    0  0.11977669018E+00  0.10342926899E-03  0.35998621349E-01  0.88884327468E+00  0.88000000000E+00 0. -1.
        -11    1    4    4    0    0 -0.63429015750E-01 -0.32522871023E-02 -0.41280824482E-01  0.75750808586E-01  0.51100000000E-03 0. -1.
         11    1    4    4    0    0 -0.65218748779E-01 -0.70915550202E-02  0.40033391993E-02  0.65727187606E-01  0.51100000000E-03 0.  1.
</event>
<event>
 8    1  0.2877139E+004  0.1043930E+01  0.7957747E-01            NaN
         13   -1    0    0    0    0  0.00000000000E+00  0.00000000000E+00  0.74505805969E-08  0.10566000000E+00  0.10566000000E+00 0.  1.
     999900   -1    0    0    0    0 -0.00000000000E+00 -0.00000000000E+00 -0.74505805969E-08  0.93827000000E+00  0.93827000000E+00 0.  1.
     999902    2    1    2    0    0 -0.39319394962E-02 -0.75524986963E-02  0.11054278799E-01  0.10299765967E+01  0.10298820769E+01 0.  0.
     999903    2    3    3    0    0  0.29599618457E-01 -0.11409002153E+00 -0.61094138210E-01  0.13998783088E+00  0.44400773028E-01 0.  0.
         14    1    1    2    0    0  0.39319394962E-02  0.75524986963E-02 -0.11054278799E-01  0.13953403331E-01  0.00000000000E+00 0. -1.
     999901    1    3    3    0    0 -0.33531557953E-01  0.10653752284E+00  0.72148417009E-01  0.88998876579E+00  0.88000000000E+00 0.  1.
        -11    1    4    4    0    0  0.15556353278E-01 -0.97919550803E-01 -0.64518458777E-01  0.11829256613E+00  0.51100000000E-03 0.  1.
         11    1    4    4    0    0  0.14043265179E-01 -0.16170470729E-01  0.34243205670E-02  0.21695264756E-01  0.51100000000E-03 0. -1.
</event>
<event>
 8    1  0.2877139E+004  0.1043930E+01  0.7957747E-01            NaN
         13   -1    0    0    0    0  0.00000000000E+00  0.00000000000E+00  0.74505805969E-08  0.10566000000E+00  0.10566000000E+00 0.  1.
     999900   -1    0    0    0    0 -0.00000000000E+00 -0.00000000000E+00 -0.74505805969E-08  0.93827000000E+00  0.93827000000E+00 0. -1.
     999902    2    1    2    0    0 -0.14284330003E-01  0.97028716445E-02 -0.11130800503E-01  0.10233853530E+01  0.10231791134E+01 0.  0.
     999903    2    3    3    0    0 -0.12339385507E+00  0.13484697021E-01 -0.33848545924E-01  0.13634798813E+00  0.45135011732E-01 0.  0.
         14    1    1    2    0    0  0.14284330003E-01 -0.97028716445E-02  0.11130800503E-01  0.20544647031E-01  0.00000000000E+00 0. -1.
     999901    1    3    3    0    0  0.10910952506E+00 -0.37818253763E-02  0.22717745421E-01  0.88703736484E+00  0.88000000000E+00 0.  1.
        -11    1    4    4    0    0 -0.31824523093E-01  0.42229963138E-02  0.11032697268E-01  0.33950191427E-01  0.51100000000E-03 0.  1.
         11    1    4    4    0    0 -0.91569331974E-01  0.92617007070E-02 -0.44881243192E-01  0.10239779670E+00  0.51100000000E-03 0. -1.
</event>
<event>
 8    1  0.2877139E+004  0.1043930E+01  0.7957747E-01            NaN
         13   -1    0    0    0    0  0.00000000000E+00  0.00000000000E+00  0.74505805969E-08  0.10566000000E+00  0.10566000000E+00 0.  1.
     999900   -1    0    0    0    0 -0.00000000000E+00 -0.00000000000E+00 -0.74505805969E-08  0.93827000000E+00  0.93827000000E+00 0. -1.
     999902    2    1    2    0    0 -0.14846693789E-01 -0.25471177661E-02 -0.11189916240E-02  0.10288248927E+01  0.10287140008E+01 0.  0.
     999903    2    3    3    0    0 -0.51149220864E-01 -0.12216261370E+00  0.23301839728E-02  0.13998427863E+00  0.45279371970E-01 0.  0.
         14    1    1    2    0    0  0.14846693789E-01  0.25471177661E-02  0.11189916240E-02  0.15105107336E-01  0.00000000000E+00 0. -1.
     999901    1    3    3    0    0  0.36302527075E-01  0.11961549593E+00 -0.34491755969E-02  0.88884061403E+00  0.88000000000E+00 0.  1.
        -11    1    4    4    0    0 -0.96523118016E-02 -0.40882005429E-01 -0.19243321930E-01  0.46206839871E-01  0.51100000000E-03 0. -1.
         11    1    4    4    0    0 -0.41496909063E-01 -0.81280608271E-01  0.21573505903E-01  0.93777438761E-01  0.51100000000E-03 0.  1.
</event>
<event>
 8    1  0.2877139E+004  0.1043930E+01  0.7957747E-01            NaN
         13   -1    0    0    0    0  0.00000000000E+00  0.00000000000E+00  0.74505805969E-08  0.10566000000E+00  0.10566000000E+00 0.  1.
     999900   -1    0    0    0    0 -0.00000000000E+00 -0.00000000000E+00 -0.74505805969E-08  0.93827000000E+00  0.93827000000E+00 0. -1.
     999902    2    1    2    0    0 -0.70379878577E-03  0.39796953140E-02  0.13476675723E-01  0.10298603839E+01  0.10297642722E+01 0.  0.
     999903    2    3    3    0    0  0.90752835295E-01  0.13427083281E-01  0.10135882685E+00  0.14071650270E+00  0.33334046738E-01 0.  0.
         14    1    1    2    0    0  0.70379878577E-03 -0.39796953140E-02 -0.13476675723E-01  0.14069616060E-01  0.00000000000E+00 0. -1.
     999901    1    3    3    0    0 -0.91456634081E-01 -0.94473879665E-02 -0.87882151131E-01  0.88914388124E+00  0.88000000000E+00 0. -1.
        -11    1    4    4    0    0  0.20923174954E-01 -0.10869213462E-01  0.21999028843E-01  0.32251161878E-01  0.51100000000E-03 0.  1.
         11    1    4    4    0    0  0.69829660341E-01  0.24296296743E-01  0.79359798010E-01  0.10846534082E+00  0.51100000000E-03 0. -1.
</event>
<event>
 7    1  0.2877139E+004  0.1043930E+01  0.7957747E-01            NaN
         13   -1    0    0    0    0  0.00000000000E+00  0.00000000000E+00  0.74505805969E-08  0.10566000000E+00  0.10566000000E+00 0. -1.
     999900   -1    0    0    0    0 -0.00000000000E+00 -0.00000000000E+00 -0.74505805969E-08  0.93827000000E+00  0.93827000000E+00 0. -1.
     999903    2    1    2    0    0  0.10299279726E-01  0.72005053168E-01 -0.87458823815E-01  0.11963496280E+00  0.37049637182E-01 0.  0.
         14    1    1    2    0    0 -0.12575321663E-01  0.10329062012E-01 -0.28555722461E-01  0.32867271294E-01  0.00000000000E+00 0.  1.
     999901    1    1    2    0    0  0.22760419378E-02 -0.82334115180E-01  0.11601454628E+00  0.89142776591E+00  0.88000000000E+00 0.  1.
        -11    1    3    3    0    0 -0.12181772787E-01  0.10593788801E-01 -0.15269821577E-01  0.22227292264E-01  0.51100000000E-03 0.  1.
         11    1    3    3    0    0  0.22481052512E-01  0.61411264367E-01 -0.72189002238E-01  0.97407670531E-01  0.51100000000E-03 0. -1.
</event>
<event>
 8    1  0.2877139E+004  0.1043930E+01  0.7957747E-01            NaN
         13   -1    0    0    0    0  0.00000000000E+00  0.00000000000E+00  0.74505805969E-08  0.10566000000E+00  0.10566000000E+00 0.  1.
     999900   -1    0    0    0    0 -0.00000000000E+00 -0.00000000000E+00 -0.74505805969E-08  0.93827000000E+00  0.93827000000E+00 0.  1.
     999902    2    1    2    0    0 -0.83388861350E-02  0.10833306269E-01  0.78184922992E-02  0.10281811471E+01  0.10280605259E+01 0.  0.
     999903    2    3    3    0    0 -0.71755451040E-02 -0.37512260814E-02  0.13243734202E+00  0.13928074790E+00  0.42354657718E-01 0.  0.
         14    1    1    2    0    0  0.83388861350E-02 -0.10833306269E-01 -0.78184922992E-02  0.15748852928E-01  0.00000000000E+00 0. -1.
     999901    1    3    3    0    0 -0.11633410310E-02  0.14584532351E-01 -0.12461884972E+00  0.88890039917E+00  0.88000000000E+00 0.  1.
        -11    1    4    4    0    0  0.78607048709E-02  0.15123269192E-01  0.76161658145E-01  0.78047186012E-01  0.51100000000E-03 0. -1.
         11    1    4    4    0    0 -0.15036249975E-01 -0.18874495273E-01  0.56275683871E-01  0.61233561886E-01  0.51100000000E-03 0.  1.
</event>
<event>
 8    1  0.2877139E+004  0.1043930E+01  0.7957747E-01            NaN
         13   -1    0    0    0    0  0.00000000000E+00  0.00000000000E+00  0.74505805969E-08  0.10566000000E+00  0.10566000000E+00 0.  1.
     999900   -1    0    0    0    0 -0.00000000000E+00 -0.00000000000E+00 -0.74505805969E-08  0.93827000000E+00  0.93827000000E+00 0. -1.
     999902    2    1    2    0    0  0.11638906233E-01 -0.74807223570E-02 -0.49112023126E-02  0.10292485405E+01  0.10291438251E+01 0.  0.
     999903    2    3    3    0    0  0.98579231075E-01  0.67128666305E-01 -0.57919729376E-01  0.14024061875E+00  0.45701350731E-01 0.  0.
         14    1    1    2    0    0 -0.11638906233E-01  0.74807223570E-02  0.49112023126E-02  0.14681459513E-01  0.00000000000E+00 0. -1.
     999901    1    3    3    0    0 -0.86940324842E-01 -0.74609388662E-01  0.53008527063E-01  0.88900792173E+00  0.88000000000E+00 0.  1.
        -11    1    4    4    0    0  0.97931171179E-02  0.55033773706E-02 -0.24753333560E-01  0.27187882387E-01  0.51100000000E-03 0. -1.
         11    1    4    4    0    0  0.88786113957E-01  0.61625288934E-01 -0.33166395816E-01  0.11305273637E+00  0.51100000000E-03 0.  1.
</event>
<event>
 8    1  0.2877139E+004  0.1043930E+01  0.7957747E-01            NaN
         13   -1    0    0    0    0  0.00000000000E+00  0.00000000000E+00  0.74505805969E-08  0.10566000000E+00  0.10566000000E+00 0. -1.
     999900   -1    0    0    0    0 -0.00000000000E+00 -0.00000000000E+00 -0.74505805969E-08  0.93827000000E+00  0.93827000000E+00 0. -1.
     999902    2    1    2    0    0  0.20855421723E-02  0.95812178278E-02 -0.95054133203E-02  0.10302734227E+01  0.10301829077E+01 0.  0.
     999903    2    3    3    0    0  0.62796205485E-01 -0.11170546531E+00  0.30909655932E-01  0.13896560720E+00  0.43983619109E-01 0.  0.
         14    1    1    2    0    0 -0.20855421723E-02 -0.95812178278E-02  0.95054133203E-02  0.13656577302E-01  0.00000000000E+00 0. -1.
     999901    1    3    3    0    0 -0.60710663312E-01  0.12128668314E+00 -0.40415069252E-01  0.89130781550E+00  0.88000000000E+00 0.  1.
        -11    1    4    4    0    0  0.20214571609E-01 -0.70175878835E-01  0.25681068715E-02  0.73076255853E-01  0.51100000000E-03 0.  1.
         11    1    4    4    0    0  0.42581633875E-01 -0.41529586480E-01  0.28341549060E-01  0.65889351346E-01  0.51100000000E-03 0. -1.
</event>
<event>
 8    1  0.2877139E+004  0.1043930E+01  0.7957747E-01            NaN
         13   -1    0    0    0    0  0.00000000000E+00  0.00000000000E+00  0.74505805969E-08  0.10566000000E+00  0.10566000000E+00 0. -1.
     999900   -1    0    0    0    0 -0.00000000000E+00 -0.00000000000E+00 -0.74505805969E-08  0.93827000000E+00  0.93827000000E+00 0.  1.
     999902    2    1    2    0    0  0.45555718445E-02 -0.12444649316E-01  0.97845951185E-02  0.10274569665E+01  0.10273249034E+01 0.  0.
     999903    2    3    3    0    0 -0.71402494977E-02  0.12810438758E+00 -0.25962815826E-02  0.13614102356E+00  0.45452396410E-01 0.  0.
         14    1    1    2    0    0 -0.45555718445E-02  0.12444649316E-01 -0.97845951185E-02  0.16473033511E-01  0.00000000000E+00 0.  1.
     999901    1    3    3    0    0  0.11695821342E-01 -0.14054903689E+00  0.12380876701E-01  0.89131594293E+00  0.88000000000E+00 0. -1.
        -11    1    4    4    0    0 -0.23236477748E-01  0.72337406976E-01  0.10315371803E-01  0.76676608967E-01  0.51100000000E-03 0.  1.
         11    1    4    4    0    0  0.16096228250E-01  0.55766980599E-01 -0.12911653385E-01  0.59464414595E-01  0.51100000000E-03 0. -1.
</event>
<event>
 8    1  0.2877139E+004  0.1043930E+01  0.7957747E-01            NaN
         13   -1    0    0    0    0  0.00000000000E+00  0.00000000000E+00  0.74505805969E-08  0.10566000000E+00  0.10566000000E+00 0.  1.
     999900   -1    0    0    0    0 -0.00000000000E+00 -0.00000000000E+00 -0.74505805969E-08  0.93827000000E+00  0.93827000000E+00 0.  1.
     999902    2    1    2    0    0 -0.40573546973E-02 -0.85353082511E-02  0.17872116139E-02  0.10343119056E+01  0.10342671852E+01 0.  0.
     999903    2    3    3    0    0  0.65629932101E-01 -0.70605810389E-01 -0.97004415883E-01  0.14388007171E+00  0.44711853990E-01 0.  0.
         14    1    1    2    0    0  0.40573546973E-02  0.85353082511E-02 -0.17872116139E-02  0.96180943764E-02  0.00000000000E+00 0. -1.
     999901    1    3    3    0    0 -0.69687286798E-01  0.62070502138E-01  0.98791627497E-01  0.89043183391E+00  0.88000000000E+00 0. -1.
        -11    1    4    4    0    0 -0.43284514831E-02 -0.59762887378E-02 -0.20248422243E-01  0.21557162235E-01  0.51100000000E-03 0.  1.
         11    1    4    4    0    0  0.69958383584E-01 -0.64629521651E-01 -0.76755993640E-01  0.12232290948E+00  0.51100000000E-03 0. -1.
</event>
<event>
 8    1  0.2877139E+004  0.1043930E+01  0.7957747E-01            NaN
         13   -1    0    0    0    0  0.00000000000E+00  0.00000000000E+00  0.74505805969E-08  0.10566000000E+00  0.10566000000E+00 0.  1.
     999900   -1    0    0    0    0 -0.00000000000E+00 -0.00000000000E+00 -0.74505805969E-08  0.93827000000E+00  0.93827000000E+00 0. -1.
     999902    2    1    2    0    0  0.13143113920E-01 -0.34742576326E-02  0.50738004698E-02  0.10294194741E+01  0.10293172001E+01 0.  0.
     999903    2    3    3    0    0 -0.84865318462E-01 -0.59518309732E-01  0.80645280545E-01  0.13899393700E+00  0.45509359216E-01 0.  0.
         14    1    1    2    0    0 -0.13143113920E-01  0.34742576326E-02 -0.50738004698E-02  0.14510525863E-01  0.00000000000E+00 0. -1.
     999901    1    3    3    0    0  0.98008432382E-01  0.56044052099E-01 -0.75571480075E-01  0.89042553714E+00  0.88000000000E+00 0.  1.
        -11    1    4    4    0    0 -0.56486283402E-01 -0.35407226200E-01  0.76574915337E-01  0.10153004806E+00  0.51100000000E-03 0.  1.
         11    1    4    4    0    0 -0.28379035060E-01 -0.24111083532E-01  0.40703652082E-02  0.37463888933E-01  0.51100000000E-03 0. -1.
</event>
<event>
 8    1  0.2877139E+004  0.1043930E+01  0.7957747E-01            NaN
         13   -1    0    0    0    0  0.00000000000E+00  0.00000000000E+00  0.74505805969E-08  0.10566000000E+00  0.10566000000E+00 0.  1.
     999900   -1    0    0    0    0 -0.00000000000E+00 -0.00000000000E+00 -0.74505805969E-08  0.93827000000E+00  0.93827000000E+00 0. -1.
     999902    2    1    2    0    0 -0.14672065271E-01  0.69841667882E-02 -0.94459965993E-04  0.10276801690E+01  0.10275516886E+01 0.  0.
     999903    2    3    3    0    0  0.70073152311E-01 -0.10766292641E+00 -0.36303638671E-03  0.13620623218E+00  0.45281933394E-01 0.  0.
         14    1    1    2    0    0  0.14672065271E-01 -0.69841667882E-02  0.94459965993E-04  0.16249831006E-01  0.00000000000E+00 0.  1.
     999901    1    3    3    0    0 -0.84745217583E-01  0.11464709320E+00  0.26857642071E-03  0.89147393681E+00  0.88000000000E+00 0. -1.
        -11    1    4    4    0    0  0.55599328261E-01 -0.57698873426E-01 -0.16358040582E-01  0.81781977907E-01  0.51100000000E-03 0. -1.
         11    1    4    4    0    0  0.14473824050E-01 -0.49964052983E-01  0.15995004195E-01  0.54424254275E-01  0.51100000000E-03 0.  1.
</event>
<event>
 8    1  0.2877139E+004  0.1043930E+01  0.7957747E-01            NaN
         13   -1    0    0    0    0  0.00000000000E+00  0.00000000000E+00  0.74505805969E-08  0.10566000000E+00  0.10566000000E+00 0.  1.
     999900   -1    0    0    0    0 -0.00000000000E+00 -0.00000000000E+00 -0.74505805969E-08  0.93827000000E+00  0.93827000000E+00 0. -1.
     999902    2    1    2    0    0  0.14987076268E-02  0.13107759212E-01 -0.38910469613E-02  0.10301750110E+01  0.10300831780E+01 0.  0.
     999903    2    3    3    0    0 -0.19494627575E-01  0.12569607830E+00 -0.43671537070E-01  0.14186237621E+00  0.45146273711E-01 0.  0.
         14    1    1    2    0    0 -0.14987076268E-02 -0.13107759212E-01  0.38910469613E-02  0.13754989007E-01  0.00000000000E+00 0. -1.
     999901    1    3    3    0    0  0.20993335202E-01 -0.11258831909E+00  0.39780490109E-01  0.88831263478E+00  0.88000000000E+00 0.  1.
        -11    1    4    4    0    0  0.78290290140E-03  0.10391917223E+00 -0.25546869149E-01  0.10701733943E+00  0.51100000000E-03 0.  1.
         11    1    4    4    0    0 -0.20277530476E-01  0.21776906070E-01 -0.18124667921E-01  0.34845036784E-01  0.51100000000E-03 0. -1.
</event>
<event>
 8    1  0.2877139E+004  0.1043930E+01  0.7957747E-01            NaN
         13   -1    0    0    0    0  0.00000000000E+00  0.00000000000E+00  0.74505805969E-08  0.10566000000E+00  0.10566000000E+00 0. -1.
     999900   -1    0    0    0    0 -0.00000000000E+00 -0.00000000000E+00 -0.74505805969E-08  0.93827000000E+00  0.93827000000E+00 0.  1.
     999902    2    1    2    0    0  0.82778749356E-02  0.64779656714E-02 -0.83424983239E-02  0.10305104422E+01  0.10304230621E+01 0.  0.
     999903    2    3    3    0    0  0.44019037584E-01 -0.11520513817E+00 -0.47376322575E-01  0.14056221457E+00  0.47992923355E-01 0.  0.
         14    1    1    2    0    0 -0.82778749356E-02 -0.64779656714E-02  0.83424983239E-02  0.13419557779E-01  0.00000000000E+00 0. -1.
     999901    1    3    3    0    0 -0.35741162648E-01  0.12168310384E+00  0.39033824251E-01  0.88994822765E+00  0.88000000000E+00 0.  1.
        -11    1    4    4    0    0  0.40325356234E-01 -0.46480836970E-01 -0.10325799511E-01  0.62397802985E-01  0.51100000000E-03 0. -1.
         11    1    4    4    0    0  0.36936813499E-02 -0.68724301203E-01 -0.37050523064E-01  0.78164411582E-01  0.51100000000E-03 0.  1.
</event>
<event>
 8    1  0.2877139E+004  0.1043930E+01  0.7957747E-01            NaN
         13   -1    0    0    0    0  0.00000000000E+00  0.00000000000E+00  0.74505805969E-08  0.10566000000E+00  0.10566000000E+00 0.  1.
     999900   -1    0    0    0    0 -0.00000000000E+00 -0.00000000000E+00 -0.74505805969E-08  0.93827000000E+00  0.93827000000E+00 0.  1.
     999902    2    1    2    0    0 -0.41194405315E-02  0.13632088213E-01  0.45123208803E-02  0.10289913033E+01  0.10288828590E+01 0.  0.
     999903    2    3    3    0    0 -0.13687503105E-01  0.35620070568E-01  0.12710111810E+00  0.14017015572E+00  0.45131376699E-01 0.  0.
         14    1    1    2    0    0  0.41194405315E-02 -0.13632088213E-01 -0.45123208803E-02  0.14938696699E-01  0.00000000000E+00 0. -1.
     999901    1    3    3    0    0  0.95680625734E-02 -0.21987982355E-01 -0.12258879722E+00  0.88882114758E+00  0.88000000000E+00 0.  1.
        -11    1    4    4    0    0 -0.70995661576E-02  0.37189113867E-02  0.91734651322E-01  0.92085511975E-01  0.51100000000E-03 0. -1.
         11    1    4    4    0    0 -0.65879369474E-02  0.31901159182E-01  0.35366466778E-01  0.48084643741E-01  0.51100000000E-03 0.  1.
</event>
<event>
 8    1  0.2877139E+004  0.1043930E+01  0.7957747E-01            NaN
         13   -1    0    0    0    0  0.00000000000E+00  0.00000000000E+00  0.74505805969E-08  0.10566000000E+00  0.10566000000E+00 0. -1.
     999900   -1    0    0    0    0 -0.00000000000E+00 -0.00000000000E+00 -0.74505805969E-08  0.93827000000E+00  0.93827000000E+00 0.  1.
     999902    2    1    2    0    0  0.10605544686E-01  0.54106152081E-02  0.81709585480E-02  0.10294898858E+01  0.10293886088E+01 0.  0.
     999903    2    3    3    0    0 -0.52425582331E-01 -0.70542061049E-01  0.98584606746E-01  0.13936834364E+00  0.44497038802E-01 0.  0.
         14    1    1    2    0    0 -0.10605544686E-01 -0.54106152081E-02 -0.81709585480E-02  0.14440114218E-01  0.00000000000E+00 0.  1.
     999901    1    3    3    0    0  0.63031127018E-01  0.75952676257E-01 -0.90413648198E-01  0.89012154214E+00  0.88000000000E+00 0.  1.
        -11    1    4    4    0    0 -0.27258512953E-01 -0.51600343637E-01  0.89021750872E-01  0.10644602032E+00  0.51100000000E-03 0.  1.
         11    1    4    4    0    0 -0.25167069379E-01 -0.18941717412E-01  0.95628558740E-02  0.32922323325E-01  0.51100000000E-03 0. -1.
</event>
<event>
 8    1  0.2877139E+004  0.1043930E+01  0.7957747E-01            NaN
         13   -1    0    0    0    0  0.00000000000E+00  0.00000000000E+00  0.74505805969E-08  0.10566000000E+00  0.10566000000E+00 0.  1.
     999900   -1    0    0    0    0 -0.00000000000E+00 -0.00000000000E+00 -0.74505805969E-08  0.93827000000E+00  0.93827000000E+00 0.  1.
     999902    2    1    2    0    0  0.10350038963E-02  0.77334350047E-02  0.11504317535E-01  0.10300294039E+01  0.10299356030E+01 0.  0.
     999903    2    3    3    0    0 -0.45892521503E-01 -0.69087370587E-01  0.10403104123E+00  0.14061115391E+00  0.45495612533E-01 0.  0.
         14    1    1    2    0    0 -0.10350038963E-02 -0.77334350047E-02 -0.11504317535E-01  0.13900596102E-01  0.00000000000E+00 0. -1.
     999901    1    3    3    0    0  0.46927525400E-01  0.76820805591E-01 -0.92526723697E-01  0.88941824999E+00  0.88000000000E+00 0. -1.
        -11    1    4    4    0    0 -0.69452248196E-02 -0.28834260762E-01  0.67521485897E-01  0.73750002850E-01  0.51100000000E-03 0. -1.
         11    1    4    4    0    0 -0.38947296684E-01 -0.40253109824E-01  0.36509555335E-01  0.66861151061E-01  0.51100000000E-03 0.  1.
</event>
<event>
 8    1  0.2877139E+004  0.1043930E+01  0.7957747E-01            NaN
         13   -1    0    0    0    0  0.00000000000E+00  0.00000000000E+00  0.74505805969E-08  0.10566000000E+00  0.10566000000E+00 0.  1.
     999900   -1    0    0    0    0 -0.00000000000E+00 -0.00000000000E+00 -0.74505805969E-08  0.93827000000E+00  0.93827000000E+00 0. -1.
     999902    2    1    2    0    0  0.10886847281E-01  0.56548128503E-02  0.82117452903E-02  0.10291674422E+01  0.10290615584E+01 0.  0.
     999903    2    3    3    0    0 -0.11415403097E+00 -0.65991968263E-02  0.63865226052E-01  0.13850325638E+00  0.45052111424E-01 0.  0.
         14    1    1    2    0    0 -0.10886847281E-01 -0.56548128503E-02 -0.82117452903E-02  0.14762557800E-01  0.00000000000E+00 0.  1.
     999901    1    3    3    0    0  0.12504087825E+00  0.12254009677E-01 -0.55653480761E-01  0.89066418582E+00  0.88000000000E+00 0. -1.
        -11    1    4    4    0    0 -0.51485534288E-01  0.46418889000E-02  0.52545631921E-02  0.51963245942E-01  0.51100000000E-03 0. -1.
         11    1    4    4    0    0 -0.62668496679E-01 -0.11241085726E-01  0.58610662860E-01  0.86540010435E-01  0.51100000000E-03 0.  1.
</event>
<event>
 8    1  0.2877139E+004  0.1043930E+01  0.7957747E-01            NaN
         13   -1    0    0    0    0  0.00000000000E+00  0.00000000000E+00  0.74505805969E-08  0.10566000000E+00  0.10566000000E+00 0. -1.
     999900   -1    0    0    0    0 -0.00000000000E+00 -0.00000000000E+00 -0.74505805969E-08  0.93827000000E+00  0.93827000000E+00 0.  1.
     999902    2    1    2    0    0 -0.15322114540E-03 -0.64410954507E-02 -0.11305563395E-01  0.10309174310E+01  0.10308353034E+01 0.  0.
     999903    2    3    3    0    0  0.10615317314E+00 -0.80514292737E-01 -0.43981037229E-02  0.14140318100E+00  0.47164274389E-01 0.  0.
         14    1    1    2    0    0  0.15322114540E-03  0.64410954507E-02  0.11305563395E-01  0.13012568962E-01  0.00000000000E+00 0. -1.
     999901    1    3    3    0    0 -0.10630639428E+00  0.74073197287E-01 -0.69074596716E-02  0.88951425004E+00  0.88000000000E+00 0. -1.
        -11    1    4    4    0    0  0.27139307878E-01 -0.34743168017E-02 -0.13797076744E-01  0.30646914315E-01  0.51100000000E-03 0.  1.
         11    1    4    4    0    0  0.79013865258E-01 -0.77039975936E-01  0.93989730208E-02  0.11075626669E+00  0.51100000000E-03 0. -1.
</event>
<event>
 8    1  0.2877139E+004  0.1043930E+01  0.7957747E-01            NaN
         13   -1    0    0    0    0  0.00000000000E+00  0.00000000000E+00  0.74505805969E-08  0.10566000000E+00  0.10566000000E+00 0. -1.
     999900   -1    0    0    0    0 -0.00000000000E+00 -0.00000000000E+00 -0.74505805969E-08  0.93827000000E+00  0.93827000000E+00 0.  1.
     999902    2    1    2    0    0  0.50387571759E-02 -0.51964275875E-02  0.13821653662E-01  0.10283277552E+01  0.10282093863E+01 0.  0.
     999903    2    3    3    0    0  0.97408668893E-01  0.86846403005E-01 -0.57782298523E-02  0.13850291922E+00  0.46031773828E-01 0.  0.
         14    1    1    2    0    0 -0.50387571759E-02  0.51964275875E-02 -0.13821653662E-01  0.15602244822E-01  0.00000000000E+00 0.  1.
     999901    1    3    3    0    0 -0.92369911717E-01 -0.92042830592E-01  0.19599883514E-01  0.88982483596E+00  0.88000000000E+00 0.  1.
        -11    1    4    4    0    0  0.63685940386E-01  0.26001864797E-01 -0.41658373930E-02  0.68917423762E-01  0.51100000000E-03 0. -1.
         11    1    4    4    0    0  0.33722728507E-01  0.60844538208E-01 -0.16123924593E-02  0.69585495458E-01  0.51100000000E-03 0.  1.
</event>
<event>
 8    1  0.2877139E+004  0.1043930E+01  0.7957747E-01            NaN
         13   -1    0    0    0    0  0.00000000000E+00  0.00000000000E+00  0.74505805969E-08  0.10566000000E+00  0.10566000000E+00 0.  1.
     999900   -1    0    0    0    0 -0.00000000000E+00 -0.00000000000E+00 -0.74505805969E-08  0.93827000000E+00  0.93827000000E+00 0.  1.
     999902    2    1    2    0    0 -0.64128598924E-02 -0.13028994261E-01 -0.42360709482E-02  0.10288030783E+01  0.10286918635E+01 0.  0.
     999903    2    3    3    0    0  0.27992499458E-01 -0.11264947365E+00 -0.64456377287E-01  0.14047067768E+00  0.45868319973E-01 0.  0.
         14    1    1    2    0    0  0.64128598924E-02  0.13028994261E-01  0.42360709482E-02  0.15126921713E-01  0.00000000000E+00 0. -1.
     999901    1    3    3    0    0 -0.34405359351E-01  0.99620479386E-01  0.60220306339E-01  0.88833240060E+00  0.88000000000E+00 0. -1.
        -11    1    4    4    0    0  0.36793258416E-01 -0.97625086975E-01 -0.65213696438E-01  0.12303450246E+00  0.51100000000E-03 0. -1.
         11    1    4    4    0    0 -0.88007589579E-02 -0.15024386672E-01  0.75731915062E-03  0.17436175222E-01  0.51100000000E-03 0.  1.
</event>
<event>
 8    1  0.2877139E+004  0.1043930E+01  0.7957747E-01            NaN
         13   -1    0    0    0    0  0.00000000000E+00  0.00000000000E+00  0.74505805969E-08  0.10566000000E+00  0.10566000000E+00 0.  1.
     999900   -1    0    0    0    0 -0.00000000000E+00 -0.00000000000E+00 -0.74505805969E-08  0.93827000000E+00  0.93827000000E+00 0. -1.
     999902    2    1    2    0    0 -0.12156259275E-01  0.31422195808E-02 -0.59043647067E-02  0.10300552133E+01  0.10299617628E+01 0.  0.
     999903    2    3    3    0    0 -0.99301499922E-01 -0.47417442019E-01  0.74846736902E-01  0.14063331523E+00  0.45458702509E-01 0.  0.
         14    1    1    2    0    0  0.12156259275E-01 -0.31422195808E-02  0.59043647067E-02  0.13874786703E-01  0.00000000000E+00 0.  1.
     999901    1    3    3    0    0  0.87145240647E-01  0.50559661599E-01 -0.80751101609E-01  0.88942189807E+00  0.88000000000E+00 0. -1.
        -11    1    4    4    0    0 -0.70741326816E-01 -0.54238140110E-01  0.61971209457E-01  0.10856704419E+00  0.51100000000E-03 0. -1.
         11    1    4    4    0    0 -0.28560173106E-01  0.68206980917E-02  0.12875527445E-01  0.32066271038E-01  0.51100000000E-03 0.  1.
</event>
<event>
 7    1  0.2877139E+004  0.1043930E+01  0.7957747E-01            NaN
         13   -1    0    0    0    0  0.00000000000E+00  0.00000000000E+00  0.74505805969E-08  0.10566000000E+00  0.10566000000E+00 0. -1.
     999900   -1    0    0    0    0 -0.00000000000E+00 -0.00000000000E+00 -0.74505805969E-08  0.93827000000E+00  0.93827000000E+00 0.  1.
     999903    2    1    2    0    0 -0.55665587604E-01 -0.15271955102E-01 -0.72671463102E-01  0.10145134677E+00  0.40979799379E-01 0.  0.
         14    1    1    2    0    0 -0.33090779726E-02  0.39623240987E-01 -0.35828660211E-01  0.53522370238E-01  0.00000000000E+00 0.  1.
     999901    1    1    2    0    0  0.58974665577E-01 -0.24351285885E-01  0.10850012331E+00  0.88895628299E+00  0.88000000000E+00 0. -1.
        -11    1    3    3    0    0 -0.39819024451E-01  0.98877898059E-02 -0.43318361446E-01  0.59666277367E-01  0.51100000000E-03 0.  1.
         11    1    3    3    0    0 -0.15846563153E-01 -0.25159744908E-01 -0.29353101655E-01  0.41785069408E-01  0.51100000000E-03 0. -1.
</event>
<event>
 8    1  0.2877139E+004  0.1043930E+01  0.7957747E-01            NaN
         13   -1    0    0    0    0  0.00000000000E+00  0.00000000000E+00  0.74505805969E-08  0.10566000000E+00  0.10566000000E+00 0. -1.
     999900   -1    0    0    0    0 -0.00000000000E+00 -0.00000000000E+00 -0.74505805969E-08  0.93827000000E+00  0.93827000000E+00 0.  1.
     999902    2    1    2    0    0 -0.16109353871E-02  0.12032776131E-01  0.26974417564E-02  0.10314938026E+01  0.10314188314E+01 0.  0.
     999903    2    3    3    0    0  0.29949972310E-01 -0.14359821409E-01 -0.12846068827E+00  0.14082264263E+00  0.47176932213E-01 0.  0.
         14    1    1    2    0    0  0.16109353871E-02 -0.12032776131E-01 -0.26974417564E-02  0.12436197420E-01  0.00000000000E+00 0. -1.
     999901    1    3    3    0    0 -0.31560907697E-01  0.26392597540E-01  0.13115813003E+00  0.89067115995E+00  0.88000000000E+00 0.  1.
        -11    1    4    4    0    0 -0.72404850887E-03 -0.21016858355E-01 -0.82671689002E-01  0.85305931006E-01  0.51100000000E-03 0.  1.
         11    1    4    4    0    0  0.30674020819E-01  0.66570369464E-02 -0.45788999270E-01  0.55516711621E-01  0.51100000000E-03 0. -1.
</event>
<event>
 8    1  0.2877139E+004  0.1043930E+01  0.7957747E-01            NaN
         13   -1    0    0    0    0  0.00000000000E+00  0.00000000000E+00  0.74505805969E-08  0.10566000000E+00  0.10566000000E+00 0.  1.
     999900   -1    0    0    0    0 -0.00000000000E+00 -0.00000000000E+00 -0.74505805969E-08  0.93827000000E+00  0.93827000000E+00 0.  1.
     999902    2    1    2    0    0 -0.13995449172E-01  0.17170831748E-01  0.17388635893E-02  0.10217098806E+01  0.10214682307E+01 0.  0.
     999903    2    3    3    0    0  0.12248796868E+00  0.50973724857E-02 -0.10466319640E-01  0.13102337105E+00  0.45036587754E-01 0.  0.
         14    1    1    2    0    0  0.13995449172E-01 -0.17170831748E-01 -0.17388635893E-02  0.22220119420E-01  0.00000000000E+00 0. -1.
     999901    1    3    3    0    0 -0.13648341785E+00  0.12073459262E-01  0.12205183230E-01  0.89068650953E+00  0.88000000000E+00 0.  1.
        -11    1    4    4    0    0  0.60438063409E-01  0.24200688860E-01  0.89170534817E-03  0.65111359296E-01  0.51100000000E-03 0.  1.
         11    1    4    4    0    0  0.62049905270E-01 -0.19103316375E-01 -0.11358024988E-01  0.65912011752E-01  0.51100000000E-03 0. -1.
</event>
<event>
 8    1  0.2877139E+004  0.1043930E+01  0.7957747E-01            NaN
         13   -1    0    0    0    0  0.00000000000E+00  0.00000000000E+00  0.74505805969E-08  0.10566000000E+00  0.10566000000E+00 0.  1.
     999900   -1    0    0    0    0 -0.00000000000E+00 -0.00000000000E+00 -0.74505805969E-08  0.93827000000E+00  0.93827000000E+00 0.  1.
     999902    2    1    2    0    0  0.13201806330E-01 -0.22240099655E-02 -0.43404430803E-02  0.10298561463E+01  0.10297599763E+01 0.  0.
     999903    2    3    3    0    0  0.49371910811E-01 -0.49327592581E-01  0.11273605826E+00  0.14011802132E+00  0.45308322633E-01 0.  0.
         14    1    1    2    0    0 -0.13201806330E-01  0.22240099655E-02  0.43404430803E-02  0.14073853659E-01  0.00000000000E+00 0.  1.
     999901    1    3    3    0    0 -0.36170104481E-01  0.47103582616E-01 -0.11707650134E+00  0.88973812502E+00  0.88000000000E+00 0.  1.
        -11    1    4    4    0    0  0.30898582565E-02 -0.30743282955E-01  0.27526520068E-01  0.41384382308E-01  0.51100000000E-03 0.  1.
         11    1    4    4    0    0  0.46282052554E-01 -0.18584309626E-01  0.85209538189E-01  0.98733639010E-01  0.51100000000E-03 0. -1.
</event>
<event>
 8    1  0.2877139E+004  0.1043930E+01  0.7957747E-01            NaN
         13   -1    0    0    0    0  0.00000000000E+00  0.00000000000E+00  0.74505805969E-08  0.10566000000E+00  0.10566000000E+00 0.  1.
     999900   -1    0    0    0    0 -0.00000000000E+00 -0.00000000000E+00 -0.74505805969E-08  0.93827000000E+00  0.93827000000E+00 0.  1.
     999902    2    1    2    0    0  0.32572984392E-03 -0.11330430464E-01  0.72217134165E-02  0.10304898401E+01  0.10304021897E+01 0.  0.
     999903    2    3    3    0    0 -0.13179239484E+00  0.16353195900E-01  0.28329789605E-02  0.14018604751E+00  0.44804461777E-01 0.  0.
         14    1    1    2    0    0 -0.32572984392E-03  0.11330430464E-01 -0.72217134165E-02  0.13440159936E-01  0.00000000000E+00 0. -1.
     999901    1    3    3    0    0  0.13211812468E+00 -0.27683626364E-01  0.43887344559E-02  0.89030379255E+00  0.88000000000E+00 0.  1.
        -11    1    4    4    0    0 -0.42995677805E-01 -0.13265235874E-01  0.10685559875E-01  0.46249725443E-01  0.51100000000E-03 0. -1.
         11    1    4    4    0    0 -0.88796717031E-01  0.29618431774E-01 -0.78525809140E-02  0.93936322072E-01  0.51100000000E-03 0.  1.
</event>
<event>
 8    1  0.2877139E+004  0.1043930E+01  0.7957747E-01            NaN
         13   -1    0    0    0    0  0.00000000000E+00  0.00000000000E+00  0.74505805969E-08  0.10566000000E+00  0.10566000000E+00 0. -1.
     999900   -1    0    0    0    0 -0.00000000000E+00 -0.00000000000E+00 -0.74505805969E-08  0.93827000000E+00  0.93827000000E+00 0. -1.
     999902    2    1    2    0    0  0.95246916346E-02 -0.94744060174E-03  0.88798239059E-02  0.10308736350E+01  0.10307909500E+01 0.  0.
     999903    2    3    3    0    0 -0.54405212899E-02  0.56505365590E-01 -0.11932753864E+00  0.13960380473E+00  0.45030047805E-01 0.  0.
         14    1    1    2    0    0 -0.95246916346E-02  0.94744060174E-03 -0.88798239059E-02  0.13056365001E-01  0.00000000000E+00 0.  1.
     999901    1    3    3    0    0  0.14965212925E-01 -0.57452806191E-01  0.12820736254E+00  0.89126983027E+00  0.88000000000E+00 0.  1.
        -11    1    4    4    0    0  0.45133214159E-02  0.44652948334E-01 -0.44549408704E-01  0.63238965852E-01  0.51100000000E-03 0.  1.
         11    1    4    4    0    0 -0.99538427058E-02  0.11852417255E-01 -0.74778129934E-01  0.76364838878E-01  0.51100000000E-03 0. -1.
</event>
<event>
 8    1  0.2877139E+004  0.1043930E+01  0.7957747E-01            NaN
         13   -1    0    0    0    0  0.00000000000E+00  0.00000000000E+00  0.74505805969E-08  0.10566000000E+00  0.10566000000E+00 0. -1.
     999900   -1    0    0    0    0 -0.00000000000E+00 -0.00000000000E+00 -0.74505805969E-08  0.93827000000E+00  0.93827000000E+00 0. -1.
     999902    2    1    2    0    0  0.79660932263E-03 -0.12588765161E-01 -0.14048092872E-01  0.10250498382E+01  0.10248759488E+01 0.  0.
     999903    2    3    3    0    0 -0.30835585413E-01 -0.10287190616E+00  0.69484026857E-01  0.13593271642E+00  0.46002293415E-01 0.  0.
         14    1    1    2    0    0 -0.79660932263E-03  0.12588765161E-01  0.14048092872E-01  0.18880161759E-01  0.00000000000E+00 0.  1.
     999901    1    3    3    0    0  0.31632194736E-01  0.90283141001E-01 -0.83532119729E-01  0.88911712182E+00  0.88000000000E+00 0. -1.
        -11    1    4    4    0    0 -0.22037747444E-03 -0.71953739561E-01  0.33065582414E-01  0.79189538857E-01  0.51100000000E-03 0. -1.
         11    1    4    4    0    0 -0.30615207939E-01 -0.30918166601E-01  0.36418444443E-01  0.56743177561E-01  0.51100000000E-03 0.  1.
</event>
<event>
 8    1  0.2877139E+004  0.1043930E+01  0.7957747E-01            NaN
         13   -1    0    0    0    0  0.00000000000E+00  0.00000000000E+00  0.74505805969E-08  0.10566000000E+00  0.10566000000E+00 0. -1.
     999900   -1    0    0    0    0 -0.00000000000E+00 -0.00000000000E+00 -0.74505805969E-08  0.93827000000E+00  0.93827000000E+00 0.  1.
     999902    2    1    2    0    0  0.40394991096E-02  0.42438525676E-02  0.12681377164E-01  0.10299605632E+01  0.10298658246E+01 0.  0.
     999903    2    3    3    0    0  0.63555406510E-01 -0.96852813910E-01  0.66202349126E-01  0.14056347885E+00  0.44221977556E-01 0.  0.
         14    1    1    2    0    0 -0.40394991096E-02 -0.42438525676E-02 -0.12681377164E-01  0.13969436798E-01  0.00000000000E+00 0. -1.
     999901    1    3    3    0    0 -0.59515907400E-01  0.10109666648E+00 -0.53520971961E-01  0.88939708435E+00  0.88000000000E+00 0.  1.
        -11    1    4    4    0    0  0.22635151602E-01 -0.73075424273E-01  0.37353100994E-01  0.85134499445E-01  0.51100000000E-03 0.  1.
         11    1    4    4    0    0  0.40920254908E-01 -0.23777389636E-01  0.28849248132E-01  0.55428979409E-01  0.51100000000E-03 0. -1.
</event>
<event>
 8    1  0.2877139E+004  0.1043930E+01  0.7957747E-01            NaN
         13   -1    0    0    0    0  0.00000000000E+00  0.00000000000E+00  0.74505805969E-08  0.10566000000E+00  0.10566000000E+00 0. -1.
     999900   -1    0    0    0    0 -0.00000000000E+00 -0.00000000000E+00 -0.74505805969E-08  0.93827000000E+00  0.93827000000E+00 0.  1.
     999902    2    1    2    0    0 -0.33734387406E-02 -0.10352997342E-01  0.29259183532E-02  0.10326549993E+01  0.10325934446E+01 0.  0.
     999903    2    3    3    0    0  0.84141038770E-01 -0.43326702019E-01 -0.95778747948E-01  0.14221204203E+00  0.45757828040E-01 0.  0.
         14    1    1    2    0    0  0.33734387406E-02  0.10352997342E-01 -0.29259183532E-02  0.11275000714E-01  0.00000000000E+00 0.  1.
     999901    1    3    3    0    0 -0.87514477511E-01  0.32973704677E-01  0.98704666302E-01  0.89044295725E+00  0.88000000000E+00 0. -1.
        -11    1    4    4    0    0  0.39926659053E-01  0.42672849741E-02 -0.36337834490E-01  0.54157614060E-01  0.51100000000E-03 0. -1.
         11    1    4    4    0    0  0.44214379717E-01 -0.47593986993E-01 -0.59440913458E-01  0.88054427972E-01  0.51100000000E-03 0.  1.
</event>
<event>
 8    1  0.2877139E+004  0.1043930E+01  0.7957747E-01            NaN
         13   -1    0    0    0    0  0.00000000000E+00  0.00000000000E+00  0.74505805969E-08  0.10566000000E+00  0.10566000000E+00 0. -1.
     999900   -1    0    0    0    0 -0.00000000000E+00 -0.00000000000E+00 -0.74505805969E-08  0.93827000000E+00  0.93827000000E+00 0.  1.
     999902    2    1    2    0    0 -0.74576734288E-03 -0.47160132038E-02  0.13226719224E-01  0.10298678860E+01  0.10297718774E+01 0.  0.
     999903    2    3    3    0    0  0.11632896128E+00 -0.29235469902E-01  0.58381204540E-01  0.14062853496E+00  0.44507076626E-01 0.  0.
         14    1    1    2    0    0  0.74576734288E-03  0.47160132038E-02 -0.13226719224E-01  0.14062114026E-01  0.00000000000E+00 0.  1.
     999901    1    3    3    0    0 -0.11707472862E+00  0.24519456698E-01 -0.45154485316E-01  0.88923935101E+00  0.88000000000E+00 0.  1.
        -11    1    4    4    0    0  0.36738604194E-01 -0.49642481557E-04  0.39168305231E-01  0.53704234080E-01  0.51100000000E-03 0.  1.
         11    1    4    4    0    0  0.79590357087E-01 -0.29185827420E-01  0.19212899309E-01  0.86924300885E-01  0.51100000000E-03 0. -1.
</event>
<event>
 8    1  0.2877139E+004  0.1043930E+01  0.7957747E-01            NaN
         13   -1    0    0    0    0  0.00000000000E+00  0.00000000000E+00  0.74505805969E-08  0.10566000000E+00  0.10566000000E+00 0. -1.
     999900   -1    0    0    0    0 -0.00000000000E+00 -0.00000000000E+00 -0.74505805969E-08  0.93827000000E+00  0.93827000000E+00 0. -1.
     999902    2    1    2    0    0  0.10865206452E-01 -0.15947563320E-01  0.88264847866E-02  0.10227100961E+01  0.10224899297E+01 0.  0.
     999903    2    3    3    0    0 -0.10251846935E+00 -0.31134851512E-01 -0.62317907422E-01  0.13245842597E+00  0.46715067042E-01 0.  0.
         14    1    1    2    0    0 -0.10865206452E-01  0.15947563320E-01 -0.88264847866E-02  0.21219903882E-01  0.00000000000E+00 0.  1.
     999901    1    3    3    0    0  0.11338367580E+00  0.15187288193E-01  0.71144392208E-01  0.89025167015E+00  0.88000000000E+00 0. -1.
        -11    1    4    4    0    0 -0.72991865447E-01 -0.13935220400E-01 -0.64240283465E-01  0.98229720195E-01  0.51100000000E-03 0.  1.
         11    1    4    4    0    0 -0.29526603900E-01 -0.17199631112E-01  0.19223760432E-02  0.34228705774E-01  0.51100000000E-03 0. -1.
</event>
<event>
 8    1  0.2877139E+004  0.1043930E+01  0.7957747E-01            NaN
         13   -1    0    0    0    0  0.00000000000E+00  0.00000000000E+00  0.74505805969E-08  0.10566000000E+00  0.10566000000E+00 0. -1.
     999900   -1    0    0    0    0 -0.00000000000E+00 -0.00000000000E+00 -0.74505805969E-08  0.93827000000E+00  0.93827000000E+00 0.  1.
     999902    2    1    2    0    0  0.13487528634E-01  0.16175482115E-02 -0.27895268012E-02  0.10300623632E+01  0.10299690096E+01 0.  0.
     999903    2    3    3    0    0 -0.63295947848E-01 -0.44199325744E-01  0.10613190387E+00  0.13885039836E+00  0.45337563860E-01 0.  0.
         14    1    1    2    0    0 -0.13487528634E-01 -0.16175482115E-02  0.27895268012E-02  0.13867636808E-01  0.00000000000E+00 0. -1.
     999901    1    3    3    0    0  0.76783476481E-01  0.45816873955E-01 -0.10892143067E+00  0.89121196483E+00  0.88000000000E+00 0. -1.
        -11    1    4    4    0    0 -0.10899309384E-01  0.45407120013E-02  0.38915232055E-01  0.40670252242E-01  0.51100000000E-03 0.  1.
         11    1    4    4    0    0 -0.52396638464E-01 -0.48740037745E-01  0.67216671811E-01  0.98180146119E-01  0.51100000000E-03 0. -1.
</event>
<event>
 8    1  0.2877139E+004  0.1043930E+01  0.7957747E-01            NaN
         13   -1    0    0    0    0  0.00000000000E+00  0.00000000000E+00  0.74505805969E-08  0.10566000000E+00  0.10566000000E+00 0. -1.
     999900   -1    0    0    0    0 -0.00000000000E+00 -0.00000000000E+00 -0.74505805969E-08  0.93827000000E+00  0.93827000000E+00 0.  1.
     999902    2    1    2    0    0  0.12614656507E-01 -0.86903265672E-03  0.42462364347E-02  0.10305915106E+01  0.10305051899E+01 0.  0.
     999903    2    3    3    0    0  0.44266451494E-02  0.13137939941E+00 -0.19034585979E-01  0.14036755672E+00  0.45393763201E-01 0.  0.
         14    1    1    2    0    0 -0.12614656507E-01  0.86903265672E-03 -0.42462364347E-02  0.13338489435E-01  0.00000000000E+00 0. -1.
     999901    1    3    3    0    0  0.81880113577E-02 -0.13224843207E+00  0.23280822414E-01  0.89022395385E+00  0.88000000000E+00 0. -1.
        -11    1    4    4    0    0  0.56857785652E-02  0.92346841428E-01  0.79987109949E-02  0.92868227604E-01  0.51100000000E-03 0. -1.
         11    1    4    4    0    0 -0.12591334159E-02  0.39032557985E-01 -0.27033296974E-01  0.47499329112E-01  0.51100000000E-03 0.  1.
</event>
<event>
 8    1  0.2877139E+004  0.1043930E+01  0.7957747E-01            NaN
         13   -1    0    0    0    0  0.00000000000E+00  0.00000000000E+00  0.74505805969E-08  0.10566000000E+00  0.10566000000E+00 0. -1.
     999900   -1    0    0    0    0 -0.00000000000E+00 -0.00000000000E+00 -0.74505805969E-08  0.93827000000E+00  0.93827000000E+00 0.  1.
     999902    2    1    2    0    0  0.62448782164E-02  0.79990824793E-02  0.15675322368E-02  0.10336615541E+01  0.10336105492E+01 0.  0.
     999903    2    3    3    0    0 -0.60375120249E-01  0.11070533440E+00  0.51841310748E-01  0.14376591346E+00  0.45610198006E-01 0.  0.
         14    1    1    2    0    0 -0.62448782164E-02 -0.79990824793E-02 -0.15675322368E-02  0.10268445927E-01  0.00000000000E+00 0.  1.
     999901    1    3    3    0    0  0.66619998466E-01 -0.10270625192E+00 -0.50273778512E-01  0.88989564061E+00  0.88000000000E+00 0.  1.
        -11    1    4    4    0    0 -0.35656063762E-02  0.40088379558E-01  0.30905150470E-01  0.50746242925E-01  0.51100000000E-03 0.  1.
         11    1    4    4    0    0 -0.56809513873E-01  0.70616954843E-01  0.20936160279E-01  0.93019670533E-01  0.51100000000E-03 0. -1.
</event>
<event>
 8    1  0.2877139E+004  0.1043930E+01  0.7957747E-01            NaN
         13   -1    0    0    0    0  0.00000000000E+00  0.00000000000E+00  0.74505805969E-08  0.10566000000E+00  0.10566000000E+00 0.  1.
     999900   -1    0    0    0    0 -0.00000000000E+00 -0.00000000000E+00 -0.74505805969E-08  0.93827000000E+00  0.93827000000E+00 0. -1.
     999902    2    1    2    0    0  0.80646409793E-02 -0.89728395277E-02 -0.78403268287E-02  0.10295417754E+01  0.10294412301E+01 0.  0.
     999903    2    3    3    0    0  0.68978006628E-02  0.69073674012E-01  0.11100762416E+00  0.13812859662E+00  0.44023453820E-01 0.  0.
         14    1    1    2    0    0 -0.80646409793E-02  0.89728395277E-02  0.78403268287E-02  0.14388224633E-01  0.00000000000E+00 0.  1.
     999901    1    3    3    0    0  0.11668403165E-02 -0.78046513540E-01 -0.11884795099E+00  0.89141317875E+00  0.88000000000E+00 0. -1.
        -11    1    4    4    0    0 -0.98640317105E-02  0.40136148435E-01  0.88893464290E-01  0.98033252763E-01  0.51100000000E-03 0. -1.
         11    1    4    4    0    0  0.16761832373E-01  0.28937525578E-01  0.22114159871E-01  0.40095343855E-01  0.51100000000E-03 0.  1.
</event>
<event>
 8    1  0.2877139E+004  0.1043930E+01  0.7957747E-01            NaN
         13   -1    0    0    0    0  0.00000000000E+00  0.00000000000E+00  0.74505805969E-08  0.10566000000E+00  0.10566000000E+00 0.  1.
     999900   -1    0    0    0    0 -0.00000000000E+00 -0.00000000000E+00 -0.74505805969E-08  0.93827000000E+00  0.93827000000E+00 0. -1.
     999902    2    1    2    0    0  0.40631637215E-02 -0.97377376442E-02  0.85375857829E-02  0.10303571151E+01  0.10302677135E+01 0.  0.
     999903    2    3    3    0    0  0.60920977051E-01 -0.51257223724E-01  0.10794797717E+00  0.14196581359E+00  0.46506537448E-01 0.  0.
         14    1    1    2    0    0 -0.40631637215E-02  0.97377376442E-02 -0.85375857829E-02  0.13572884913E-01  0.00000000000E+00 0.  1.
     999901    1    3    3    0    0 -0.56857813330E-01  0.41519486079E-01 -0.99410391383E-01  0.88839130150E+00  0.88000000000E+00 0. -1.
        -11    1    4    4    0    0  0.17916481434E-02 -0.89554908853E-02  0.44619923138E-01  0.45547881201E-01  0.51100000000E-03 0. -1.
         11    1    4    4    0    0  0.59129328908E-01 -0.42301732838E-01  0.63328054027E-01  0.96417932389E-01  0.51100000000E-03 0.  1.
</event>
<event>
 8    1  0.2877139E+004  0.1043930E+01  0.7957747E-01            NaN
         13   -1    0    0    0    0  0.00000000000E+00  0.00000000000E+00  0.74505805969E-08  0.10566000000E+00  0.10566000000E+00 0. -1.
     999900   -1    0    0    0    0 -0.00000000000E+00 -0.00000000000E+00 -0.74505805969E-08  0.93827000000E+00  0.93827000000E+00 0. -1.
     999902    2    1    2    0    0 -0.17113360277E-02  0.74141123796E-02 -0.11593946730E-01  0.10300621475E+01  0.10299687909E+01 0.  0.
     999903    2    3    3    0    0 -0.53830331443E-02  0.71982767494E-01  0.11062185655E+00  0.13926514749E+00  0.44125846114E-01 0.  0.
         14    1    1    2    0    0  0.17113360277E-02 -0.74141123796E-02  0.11593946730E-01  0.13867852543E-01  0.00000000000E+00 0. -1.
     999901    1    3    3    0    0  0.36716971166E-02 -0.64568655114E-01 -0.12221580328E+00  0.89079699997E+00  0.88000000000E+00 0. -1.
        -11    1    4    4    0    0  0.18248859358E-01  0.22910742219E-01  0.48358277074E-01  0.56539429246E-01  0.51100000000E-03 0. -1.
         11    1    4    4    0    0 -0.23631892503E-01  0.49072025275E-01  0.62263579480E-01  0.82725718241E-01  0.51100000000E-03 0.  1.
</event>
<event>
 8    1  0.2877139E+004  0.1043930E+01  0.7957747E-01            NaN
         13   -1    0    0    0    0  0.00000000000E+00  0.00000000000E+00  0.74505805969E-08  0.10566000000E+00  0.10566000000E+00 0.  1.
     999900   -1    0    0    0    0 -0.00000000000E+00 -0.00000000000E+00 -0.74505805969E-08  0.93827000000E+00  0.93827000000E+00 0. -1.
     999902    2    1    2    0    0 -0.48324441042E-02  0.10200014842E-01  0.77506766653E-02  0.10302381847E+01  0.10301471989E+01 0.  0.
     999903    2    3    3    0    0 -0.89320603179E-01 -0.96466910821E-01  0.81893130528E-03  0.13975285004E+00  0.47393600957E-01 0.  0.
         14    1    1    2    0    0  0.48324441042E-02 -0.10200014842E-01 -0.77506766653E-02  0.13691815350E-01  0.00000000000E+00 0. -1.
     999901    1    3    3    0    0  0.84488159075E-01  0.10666692566E+00  0.69317453600E-02  0.89048533461E+00  0.88000000000E+00 0.  1.
        -11    1    4    4    0    0 -0.91379080577E-01 -0.80321281759E-01  0.80629233055E-02  0.12192996565E+00  0.51100000000E-03 0. -1.
         11    1    4    4    0    0  0.20584773984E-02 -0.16145629062E-01 -0.72439920002E-02  0.17822884393E-01  0.51100000000E-03 0.  1.
</event>
<event>
 8    1  0.2877139E+004  0.1043930E+01  0.7957747E-01            NaN
         13   -1    0    0    0    0  0.00000000000E+00  0.00000000000E+00  0.74505805969E-08  0.10566000000E+00  0.10566000000E+00 0. -1.
     999900   -1    0    0    0    0 -0.00000000000E+00 -0.00000000000E+00 -0.74505805969E-08  0.93827000000E+00  0.93827000000E+00 0.  1.
     999902    2    1    2    0    0  0.95771769000E-02 -0.87524523580E-02 -0.62172750884E-02  0.10295431223E+01  0.10294425960E+01 0.  0.
     999903    2    3    3    0    0 -0.11673524886E+00  0.45089038119E-01 -0.36538107476E-01  0.13837922726E+00  0.46407300637E-01 0.  0.
         14    1    1    2    0    0 -0.95771769000E-02  0.87524523580E-02  0.62172750884E-02  0.14386877673E-01  0.00000000000E+00 0. -1.
     999901    1    3    3    0    0  0.12631242576E+00 -0.53841490477E-01  0.30320832387E-01  0.89116389507E+00  0.88000000000E+00 0. -1.
        -11    1    4    4    0    0 -0.55986502535E-01  0.43879337767E-01 -0.30223330364E-01  0.77289039121E-01  0.51100000000E-03 0. -1.
         11    1    4    4    0    0 -0.60748746330E-01  0.12097003522E-02 -0.63147771118E-02  0.61090188136E-01  0.51100000000E-03 0.  1.
</event>
<event>
 8    1  0.2877139E+004  0.1043930E+01  0.7957747E-01            NaN
         13   -1    0    0    0    0  0.00000000000E+00  0.00000000000E+00  0.74505805969E-08  0.10566000000E+00  0.10566000000E+00 0. -1.
     999900   -1    0    0    0    0 -0.00000000000E+00 -0.00000000000E+00 -0.74505805969E-08  0.93827000000E+00  0.93827000000E+00 0. -1.
     999902    2    1    2    0    0  0.10108545624E-01  0.81859144144E-02 -0.32634312638E-02  0.10305194865E+01  0.10304322249E+01 0.  0.
     999903    2    3    3    0    0 -0.12727192371E+00 -0.11030895775E-01 -0.31547669401E-01  0.13920434733E+00  0.45417745918E-01 0.  0.
         14    1    1    2    0    0 -0.10108545624E-01 -0.81859144144E-02  0.32634312638E-02  0.13410513526E-01  0.00000000000E+00 0. -1.
     999901    1    3    3    0    0  0.13738046933E+00  0.19216810190E-01  0.28284238137E-01  0.89131513915E+00  0.88000000000E+00 0. -1.
        -11    1    4    4    0    0 -0.72002177799E-01 -0.66434050340E-02  0.55022780859E-02  0.72518857020E-01  0.51100000000E-03 0.  1.
         11    1    4    4    0    0 -0.55269745907E-01 -0.43874907413E-02 -0.37049947486E-01  0.66685490306E-01  0.51100000000E-03 0. -1.
</event>
<event>
 8    1  0.2877139E+004  0.1043930E+01  0.7957747E-01            NaN
         13   -1    0    0    0    0  0.00000000000E+00  0.00000000000E+00  0.74505805969E-08  0.10566000000E+00  0.10566000000E+00 0.  1.
     999900   -1    0    0    0    0 -0.00000000000E+00 -0.00000000000E+00 -0.74505805969E-08  0.93827000000E+00  0.93827000000E+00 0. -1.
     999902    2    1    2    0    0 -0.10918686834E-01 -0.20670994470E-02  0.78408923660E-02  0.10303296244E+01  0.10302398579E+01 0.  0.
     999903    2    3    3    0    0  0.11539343230E-01  0.13170208690E+00  0.92452569154E-02  0.13993615492E+00  0.44922784203E-01 0.  0.
         14    1    1    2    0    0  0.10918686834E-01  0.20670994470E-02 -0.78408923660E-02  0.13600375561E-01  0.00000000000E+00 0.  1.
     999901    1    3    3    0    0 -0.22458030064E-01 -0.13376918635E+00 -0.14043645494E-02  0.89039346952E+00  0.88000000000E+00 0.  1.
        -11    1    4    4    0    0 -0.85467193844E-02  0.10890939413E+00  0.70811497324E-02  0.10947468358E+00  0.51100000000E-03 0.  1.
         11    1    4    4    0    0  0.20086062614E-01  0.22792692772E-01  0.21641071830E-02  0.30461471337E-01  0.51100000000E-03 0. -1.
</event>
<event>
 8    1  0.2877139E+004  0.1043930E+01  0.7957747E-01            NaN
         13   -1    0    0    0    0  0.00000000000E+00  0.00000000000E+00  0.74505805969E-08  0.10566000000E+00  0.10566000000E+00 0.  1.
     999900   -1    0    0    0    0 -0.00000000000E+00 -0.00000000000E+00 -0.74505805969E-08  0.93827000000E+00  0.93827000000E+00 0.  1.
     999902    2    1    2    0    0  0.10942559599E-01  0.79901641117E-02  0.18985995232E-02  0.10302483695E+01  0.10301575199E+01 0.  0.
     999903    2    3    3    0    0  0.10050480931E+00 -0.58046023574E-01 -0.65828987209E-01  0.14065902566E+00  0.44507846459E-01 0.  0.
         14    1    1    2    0    0 -0.10942559599E-01 -0.79901641117E-02 -0.18985995232E-02  0.13681630504E-01  0.00000000000E+00 0.  1.
     999901    1    3    3    0    0 -0.89562249710E-01  0.66036187685E-01  0.67727586732E-01  0.88958934383E+00  0.88000000000E+00 0.  1.
        -11    1    4    4    0    0  0.96779605523E-01 -0.40196263911E-01 -0.62786294300E-01  0.12216550884E+00  0.51100000000E-03 0.  1.
         11    1    4    4    0    0  0.37252037856E-02 -0.17849759663E-01 -0.30426929091E-02  0.18493516821E-01  0.51100000000E-03 0. -1.
</event>
<event>
 8    1  0.2877139E+004  0.1043930E+01  0.7957747E-01            NaN
         13   -1    0    0    0    0  0.00000000000E+00  0.00000000000E+00  0.74505805969E-08  0.10566000000E+00  0.10566000000E+00 0.  1.
     999900   -1    0    0    0    0 -0.00000000000E+00 -0.00000000000E+00 -0.74505805969E-08  0.93827000000E+00  0.93827000000E+00 0. -1.
     999902    2    1    2    0    0  0.11940472667E-01  0.61069317928E-02  0.47809905807E-02  0.10296917636E+01  0.10295933181E+01 0.  0.
     999903    2    3    3    0    0 -0.79864816949E-01  0.12609265728E-01  0.10397665147E+00  0.13934898096E+00  0.45492987090E-01 0.  0.
         14    1    1    2    0    0 -0.11940472667E-01 -0.61069317928E-02 -0.47809905807E-02  0.14238236350E-01  0.00000000000E+00 0. -1.
     999901    1    3    3    0    0  0.91805289616E-01 -0.65023339348E-02 -0.99195660893E-01  0.89034278269E+00  0.88000000000E+00 0. -1.
        -11    1    4    4    0    0 -0.87987333642E-02  0.10312784531E-01  0.44899795299E-01  0.46904413145E-01  0.51100000000E-03 0.  1.
         11    1    4    4    0    0 -0.71066083585E-01  0.22964811966E-02  0.59076856175E-01  0.92444567815E-01  0.51100000000E-03 0. -1.
</event>
<event>
 7    1  0.2877139E+004  0.1043930E+01  0.7957747E-01            NaN
         13   -1    0    0    0    0  0.00000000000E+00  0.00000000000E+00  0.74505805969E-08  0.10566000000E+00  0.10566000000E+00 0. -1.
     999900   -1    0    0    0    0 -0.00000000000E+00 -0.00000000000E+00 -0.74505805969E-08  0.93827000000E+00  0.93827000000E+00 0.  1.
     999903    2    1    2    0    0 -0.84572474454E-01  0.28723253513E-02  0.53010971695E-01  0.10931210686E+00  0.44477184019E-01 0.  0.
         14    1    1    2    0    0 -0.21156158041E-01 -0.40127588489E-01  0.48501579897E-02  0.45621600295E-01  0.00000000000E+00 0. -1.
     999901    1    1    2    0    0  0.10572863249E+00  0.37255263138E-01 -0.57861129685E-01  0.88899629284E+00  0.88000000000E+00 0.  1.
        -11    1    3    3    0    0 -0.22789842046E-01 -0.16540945038E-01  0.47905018868E-02  0.28569035556E-01  0.51100000000E-03 0.  1.
         11    1    3    3    0    0 -0.61782632407E-01  0.19413270389E-01  0.48220469808E-01  0.80743071306E-01  0.51100000000E-03 0. -1.
</event>
<event>
 8    1  0.2877139E+004  0.1043930E+01  0.7957747E-01            NaN
         13   -1    0    0    0    0  0.00000000000E+00  0.00000000000E+00  0.74505805969E-08  0.10566000000E+00  0.10566000000E+00 0. -1.
     999900   -1    0    0    0    0 -0.00000000000E+00 -0.00000000000E+00 -0.74505805969E-08  0.93827000000E+00  0.93827000000E+00 0.  1.
     999902    2    1    2    0    0  0.85778996214E-02 -0.73404314966E-02 -0.85284684700E-02  0.10297808986E+01  0.10296836903E+01 0.  0.
     999903    2    3    3    0    0  0.97213070100E-01  0.39930077864E-01 -0.83310070236E-01  0.14091477679E+00  0.43262158980E-01 0.  0.
         14    1    1    2    0    0 -0.85778996214E-02  0.73404314966E-02  0.85284684700E-02  0.14149101417E-01  0.00000000000E+00 0.  1.
     999901    1    3    3    0    0 -0.88635170479E-01 -0.47270509361E-01  0.74781601766E-01  0.88886612179E+00  0.88000000000E+00 0. -1.
        -11    1    4    4    0    0  0.40194884176E-01  0.34998121898E-01 -0.56633870236E-01  0.77769876104E-01  0.51100000000E-03 0.  1.
         11    1    4    4    0    0  0.57018185924E-01  0.49319559660E-02 -0.26676200001E-01  0.63144900690E-01  0.51100000000E-03 0. -1.
</event>
<event>
 8    1  0.2877139E+004  0.1043930E+01  0.7957747E-01            NaN
         13   -1    0    0    0    0  0.00000000000E+00  0.00000000000E+00  0.74505805969E-08  0.10566000000E+00  0.10566000000E+00 0.  1.
     999900   -1    0    0    0    0 -0.00000000000E+00 -0.00000000000E+00 -0.74505805969E-08  0.93827000000E+00  0.93827000000E+00 0.  1.
     999902    2    1    2    0    0  0.83855381989E-03 -0.40142000503E-02  0.14090128336E-01  0.10292552363E+01  0.10291506171E+01 0.  0.
     999903    2    3    3    0    0 -0.63539886729E-01  0.11409316018E+00 -0.13435622344E-01  0.13860850544E+00  0.44466115511E-01 0.  0.
         14    1    1    2    0    0 -0.83855381989E-03  0.40142000503E-02 -0.14090128336E-01  0.14674763748E-01  0.00000000000E+00 0. -1.
     999901    1    3    3    0    0  0.64378440548E-01 -0.11810736023E+00  0.27525750679E-01  0.89064673081E+00  0.88000000000E+00 0.  1.
        -11    1    4    4    0    0 -0.10002643892E-01  0.63391089282E-01 -0.79378644315E-02  0.64666482029E-01  0.51100000000E-03 0.  1.
         11    1    4    4    0    0 -0.53537242836E-01  0.50702070897E-01 -0.54977579121E-02  0.73942023415E-01  0.51100000000E-03 0. -1.
</event>
<event>
 8    1  0.2877139E+004  0.1043930E+01  0.7957747E-01            NaN
         13   -1    0    0    0    0  0.00000000000E+00  0.00000000000E+00  0.74505805969E-08  0.10566000000E+00  0.10566000000E+00 0. -1.
     999900   -1    0    0    0    0 -0.00000000000E+00 -0.00000000000E+00 -0.74505805969E-08  0.93827000000E+00  0.93827000000E+00 0.  1.
     999902    2    1    2    0    0 -0.36523256665E-02  0.10102007616E-01  0.10930760387E-01  0.10286044800E+01  0.10284903037E+01 0.  0.
     999903    2    3    3    0    0 -0.59532505117E-01 -0.98429112457E-01  0.62368414121E-01  0.13869019722E+00  0.45964577442E-01 0.  0.
         14    1    1    2    0    0  0.36523256665E-02 -0.10102007616E-01 -0.10930760387E-01  0.15325520000E-01  0.00000000000E+00 0.  1.
     999901    1    3    3    0    0  0.55880179450E-01  0.10853112007E+00 -0.51437653735E-01  0.88991428278E+00  0.88000000000E+00 0. -1.
        -11    1    4    4    0    0 -0.36742855122E-01 -0.33859340531E-01  0.46812216772E-01  0.68469972278E-01  0.51100000000E-03 0. -1.
         11    1    4    4    0    0 -0.22789649995E-01 -0.64569771925E-01  0.15556197350E-01  0.70220224938E-01  0.51100000000E-03 0.  1.
</event>
<event>
 8    1  0.2877139E+004  0.1043930E+01  0.7957747E-01            NaN
         13   -1    0    0    0    0  0.00000000000E+00  0.00000000000E+00  0.74505805969E-08  0.10566000000E+00  0.10566000000E+00 0. -1.
     999900   -1    0    0    0    0 -0.00000000000E+00 -0.00000000000E+00 -0.74505805969E-08  0.93827000000E+00  0.93827000000E+00 0.  1.
     999902    2    1    2    0    0  0.29141397277E-02  0.13289018099E-01  0.38148349403E-02  0.10298004856E+01  0.10297035481E+01 0.  0.
     999903    2    3    3    0    0 -0.68267078964E-02  0.88027113162E-01 -0.98861399535E-01  0.14063060524E+00  0.46989511800E-01 0.  0.
         14    1    1    2    0    0 -0.29141397277E-02 -0.13289018099E-01 -0.38148349403E-02  0.14129514429E-01  0.00000000000E+00 0.  1.
     999901    1    3    3    0    0  0.97408476241E-02 -0.74738095063E-01  0.10267623447E+00  0.88916988033E+00  0.88000000000E+00 0. -1.
        -11    1    4    4    0    0 -0.12089398754E-01  0.26023657991E-01 -0.61959150412E-01  0.68283100239E-01  0.51100000000E-03 0.  1.
         11    1    4    4    0    0  0.52626908577E-02  0.62003455171E-01 -0.36902249123E-01  0.72347504998E-01  0.51100000000E-03 0. -1.
</event>
<event>
 8    1  0.2877139E+004  0.1043930E+01  0.7957747E-01            NaN
         13   -1    0    0    0    0  0.00000000000E+00  0.00000000000E+00  0.74505805969E-08  0.10566000000E+00  0.10566000000E+00 0.  1.
     999900   -1    0    0    0    0 -0.00000000000E+00 -0.00000000000E+00 -0.74505805969E-08  0.93827000000E+00  0.93827000000E+00 0. -1.
     999902    2    1    2    0    0 -0.96924210862E-02  0.14158694195E-01  0.84296874816E-02  0.10248126969E+01  0.10246343701E+01 0.  0.
     999903    2    3    3    0    0  0.11304807365E+00  0.62313531729E-02  0.58027745974E-01  0.13487559843E+00  0.44782932364E-01 0.  0.
         14    1    1    2    0    0  0.96924210862E-02 -0.14158694195E-01 -0.84296874816E-02  0.19117303127E-01  0.00000000000E+00 0. -1.
     999901    1    3    3    0    0 -0.12274049473E+00  0.79273410224E-02 -0.49598058492E-01  0.88993709845E+00  0.88000000000E+00 0. -1.
        -11    1    4    4    0    0  0.64375212715E-01  0.55034088274E-03  0.56799864491E-01  0.85854275458E-01  0.51100000000E-03 0.  1.
         11    1    4    4    0    0  0.48672860930E-01  0.56810122901E-02  0.12278814828E-02  0.49021322970E-01  0.51100000000E-03 0. -1.
</event>
<event>
 8    1  0.2877139E+004  0.1043930E+01  0.7957747E-01            NaN
         13   -1    0    0    0    0  0.00000000000E+00  0.00000000000E+00  0.74505805969E-08  0.10566000000E+00  0.10566000000E+00 0. -1.
     999900   -1    0    0    0    0 -0.00000000000E+00 -0.00000000000E+00 -0.74505805969E-08  0.93827000000E+00  0.93827000000E+00 0. -1.
     999902    2    1    2    0    0  0.48175604542E-02  0.10043349094E-01 -0.86908220464E-02  0.10298017256E+01  0.10297048052E+01 0.  0.
     999903    2    3    3    0    0 -0.10732040158E+00 -0.69974731874E-01 -0.28113197249E-01  0.13887241052E+00  0.45618667743E-01 0.  0.
         14    1    1    2    0    0 -0.48175604542E-02 -0.10043349094E-01  0.86908220464E-02  0.14128274403E-01  0.00000000000E+00 0. -1.
     999901    1    3    3    0    0  0.11213796204E+00  0.80018080968E-01  0.19422375202E-01  0.89092931508E+00  0.88000000000E+00 0. -1.
        -11    1    4    4    0    0 -0.20310982510E-01 -0.35992760678E-01 -0.31309970468E-04  0.41331306936E-01  0.51100000000E-03 0. -1.
         11    1    4    4    0    0 -0.87009419072E-01 -0.33981971196E-01 -0.28081887278E-01  0.97541103580E-01  0.51100000000E-03 0.  1.
</event>
<event>
 8    1  0.2877139E+004  0.1043930E+01  0.7957747E-01            NaN
         13   -1    0    0    0    0  0.00000000000E+00  0.00000000000E+00  0.74505805969E-08  0.10566000000E+00  0.10566000000E+00 0.  1.
     999900   -1    0    0    0    0 -0.00000000000E+00 -0.00000000000E+00 -0.74505805969E-08  0.93827000000E+00  0.93827000000E+00 0.  1.
     999902    2    1    2    0    0 -0.42999518860E-02  0.98116880002E-02 -0.86619453845E-02  0.10301536396E+01  0.10300615191E+01 0.  0.
     999903    2    3    3    0    0 -0.74956540661E-01 -0.33317060326E-01 -0.10551964972E+00  0.14097769676E+00  0.44853149378E-01 0.  0.
         14    1    1    2    0    0  0.42999518860E-02 -0.98116880002E-02  0.86619453845E-02  0.13776360386E-01  0.00000000000E+00 0. -1.
     999901    1    3    3    0    0  0.70656588775E-01  0.43128748326E-01  0.96857704334E-01  0.88917594286E+00  0.88000000000E+00 0. -1.
        -11    1    4    4    0    0 -0.66937147290E-01 -0.38298795982E-01 -0.69765283184E-01  0.10399440042E+00  0.51100000000E-03 0. -1.
         11    1    4    4    0    0 -0.80193933713E-02  0.49817356558E-02 -0.35754366535E-01  0.36983296331E-01  0.51100000000E-03 0.  1.
</event>
<event>
 8    1  0.2877139E+004  0.1043930E+01  0.7957747E-01            NaN
         13   -1    0    0    0    0  0.00000000000E+00  0.00000000000E+00  0.74505805969E-08  0.10566000000E+00  0.10566000000E+00 0.  1.
     999900   -1    0    0    0    0 -0.00000000000E+00 -0.00000000000E+00 -0.74505805969E-08  0.93827000000E+00  0.93827000000E+00 0.  1.
     999902    2    1    2    0    0  0.30651120869E-02  0.37623395088E-02 -0.12580545980E-01  0.10304459261E+01  0.10303576983E+01 0.  0.
     999903    2    3    3    0    0  0.54362106623E-01  0.88662509716E-01 -0.84957085424E-01  0.14192030242E+00  0.45906280714E-01 0.  0.
         14    1    1    2    0    0 -0.30651120869E-02 -0.37623395088E-02  0.12580545980E-01  0.13484073860E-01  0.00000000000E+00 0.  1.
     999901    1    3    3    0    0 -0.51296994536E-01 -0.84900170208E-01  0.72376539444E-01  0.88852562372E+00  0.88000000000E+00 0. -1.
        -11    1    4    4    0    0  0.48190241656E-01  0.58905327398E-01 -0.35757663479E-01  0.84089289480E-01  0.51100000000E-03 0.  1.
         11    1    4    4    0    0  0.61718649662E-02  0.29757182318E-01 -0.49199421945E-01  0.57831012938E-01  0.51100000000E-03 0. -1.
</event>
<event>
 8    1  0.2877139E+004  0.1043930E+01  0.7957747E-01            NaN
         13   -1    0    0    0    0  0.00000000000E+00  0.00000000000E+00  0.74505805969E-08  0.10566000000E+00  0.10566000000E+00 0.  1.
     999900   -1    0    0    0    0 -0.00000000000E+00 -0.00000000000E+00 -0.74505805969E-08  0.93827000000E+00  0.93827000000E+00 0.  1.
     999902    2    1    2    0    0  0.14963776104E-02  0.12639023051E-01 -0.46482531912E-02  0.10303804499E+01  0.10302913575E+01 0.  0.
     999903    2    3    3    0    0 -0.85405153277E-01  0.25183846456E-01 -0.99698810246E-01  0.14091777107E+00  0.44606043438E-01 0.  0.
         14    1    1    2    0    0 -0.14963776104E-02 -0.12639023051E-01  0.46482531912E-02  0.13549550080E-01  0.00000000000E+00 0.  1.
     999901    1    3    3    0    0  0.86901530888E-01 -0.12544823405E-01  0.95050557055E-01  0.88946267885E+00  0.88000000000E+00 0. -1.
        -11    1    4    4    0    0 -0.49867044435E-01  0.36849745388E-01 -0.66180802795E-01  0.90690603898E-01  0.51100000000E-03 0. -1.
         11    1    4    4    0    0 -0.35538108842E-01 -0.11665898932E-01 -0.33518007451E-01  0.50227167175E-01  0.51100000000E-03 0.  1.
</event>
<event>
 8    1  0.2877139E+004  0.1043930E+01  0.7957747E-01            NaN
         13   -1    0    0    0    0  0.00000000000E+00  0.00000000000E+00  0.74505805969E-08  0.10566000000E+00  0.10566000000E+00 0.  1.
     999900   -1    0    0    0    0 -0.00000000000E+00 -0.00000000000E+00 -0.74505805969E-08  0.93827000000E+00  0.93827000000E+00 0. -1.
     999902    2    1    2    0    0 -0.11561473699E-01  0.82607782911E-03 -0.65905483761E-02  0.10305963806E+01  0.10305101233E+01 0.  0.
     999903    2    3    3    0    0 -0.33478739030E-01  0.54386267192E-01 -0.11812091545E+00  0.14167114010E+00  0.45160483215E-01 0.  0.
         14    1    1    2    0    0  0.11561473699E-01 -0.82607782911E-03  0.65905483761E-02  0.13333619410E-01  0.00000000000E+00 0.  1.
     999901    1    3    3    0    0  0.21917265331E-01 -0.53560189363E-01  0.11153036707E+00  0.88892524049E+00  0.88000000000E+00 0.  1.
        -11    1    4    4    0    0  0.10900283394E-01  0.56340572028E-02 -0.19362643094E-01  0.22928843128E-01  0.51100000000E-03 0. -1.
         11    1    4    4    0    0 -0.44379022424E-01  0.48752209989E-01 -0.98758272355E-01  0.11874229697E+00  0.51100000000E-03 0.  1.
</event>
<event>
 8    1  0.2877139E+004  0.1043930E+01  0.7957747E-01            NaN
         13   -1    0    0    0    0  0.00000000000E+00  0.00000000000E+00  0.74505805969E-08  0.10566000000E+00  0.10566000000E+00 0. -1.
     999900   -1    0    0    0    0 -0.00000000000E+00 -0.00000000000E+00 -0.74505805969E-08  0.93827000000E+00  0.93827000000E+00 0.  1.
     999902    2    1    2    0    0 -0.93397051461E-02  0.10675597493E-01 -0.32786552077E-02  0.10293715642E+01  0.10292686088E+01 0.  0.
     999903    2    3    3    0    0  0.10353489616E+00 -0.65241741593E-01  0.43766384865E-01  0.13767803285E+00  0.45428897369E-01 0.  0.
         14    1    1    2    0    0  0.93397051461E-02 -0.10675597493E-01  0.32786552077E-02  0.14558435837E-01  0.00000000000E+00 0.  1.
     999901    1    3    3    0    0 -0.11287460130E+00  0.75917339086E-01 -0.47045040073E-01  0.89169353132E+00  0.88000000000E+00 0.  1.
        -11    1    4    4    0    0  0.62362759328E-02  0.68754517645E-02  0.15859410556E-02  0.94307637288E-02  0.51100000000E-03 0.  1.
         11    1    4    4    0    0  0.97298620226E-01 -0.72117193358E-01  0.42180443810E-01  0.12824726912E+00  0.51100000000E-03 0. -1.
</event>
<event>
 8    1  0.2877139E+004  0.1043930E+01  0.7957747E-01            NaN
         13   -1    0    0    0    0  0.00000000000E+00  0.00000000000E+00  0.74505805969E-08  0.10566000000E+00  0.10566000000E+00 0.  1.
     999900   -1    0    0    0    0 -0.00000000000E+00 -0.00000000000E+00 -0.74505805969E-08  0.93827000000E+00  0.93827000000E+00 0. -1.
     999902    2    1    2    0    0 -0.59927849233E-02 -0.52199161305E-02 -0.11430969269E-01  0.10300077856E+01  0.10299136907E+01 0.  0.
     999903    2    3    3    0    0  0.21432218738E-02  0.12828601444E+00  0.27039776064E-01  0.13907006255E+00  0.46340456466E-01 0.  0.
         14    1    1    2    0    0  0.59927849233E-02  0.52199161305E-02  0.11430969269E-01  0.13922214406E-01  0.00000000000E+00 0. -1.
     999901    1    3    3    0    0 -0.81360067971E-02 -0.13350593057E+00 -0.38470745333E-01  0.89093772305E+00  0.88000000000E+00 0. -1.
        -11    1    4    4    0    0  0.16649224750E-01  0.28745611319E-01 -0.47780839620E-02  0.33564833713E-01  0.51100000000E-03 0. -1.
         11    1    4    4    0    0 -0.14506002876E-01  0.99540403123E-01  0.31817860026E-01  0.10550522883E+00  0.51100000000E-03 0.  1.
</event>
<event>
 8    1  0.2877139E+004  0.1043930E+01  0.7957747E-01            NaN
         13   -1    0    0    0    0  0.00000000000E+00  0.00000000000E+00  0.74505805969E-08  0.10566000000E+00  0.10566000000E+00 0. -1.
     999900   -1    0    0    0    0 -0.00000000000E+00 -0.00000000000E+00 -0.74505805969E-08  0.93827000000E+00  0.93827000000E+00 0.  1.
     999902    2    1    2    0    0  0.90357026884E-02  0.14581185945E-02 -0.10823134935E-01  0.10297557176E+01  0.10296581605E+01 0.  0.
     999903    2    3    3    0    0 -0.11701886273E+00 -0.39655460904E-01 -0.45212428980E-01  0.13915889327E+00  0.45332814049E-01 0.  0.
         14    1    1    2    0    0 -0.90357026884E-02 -0.14581185945E-02  0.10823134935E-01  0.14174282442E-01  0.00000000000E+00 0. -1.
     999901    1    3    3    0    0  0.12605456541E+00  0.41113579499E-01  0.34389294045E-01  0.89059682428E+00  0.88000000000E+00 0. -1.
        -11    1    4    4    0    0 -0.10938057542E+00 -0.22676726204E-01 -0.45275208652E-01  0.12053401939E+00  0.51100000000E-03 0. -1.
         11    1    4    4    0    0 -0.76382873087E-02 -0.16978734700E-01  0.62779671917E-04  0.18624873887E-01  0.51100000000E-03 0.  1.
</event>
<event>
 8    1  0.2877139E+004  0.1043930E+01  0.7957747E-01            NaN
         13   -1    0    0    0    0  0.00000000000E+00  0.00000000000E+00  0.74505805969E-08  0.10566000000E+00  0.10566000000E+00 0. -1.
     999900   -1    0    0    0    0 -0.00000000000E+00 -0.00000000000E+00 -0.74505805969E-08  0.93827000000E+00  0.93827000000E+00 0. -1.
     999902    2    1    2    0    0  0.75120500586E-02 -0.11915684219E-01 -0.42280751988E-02  0.10292231633E+01  0.10291180830E+01 0.  0.
     999903    2    3    3    0    0 -0.53220118980E-02  0.11810007533E-01  0.13004349602E+00  0.13862983497E+00  0.46250623756E-01 0.  0.
         14    1    1    2    0    0 -0.75120500586E-02  0.11915684219E-01  0.42280751988E-02  0.14706836722E-01  0.00000000000E+00 0.  1.
     999901    1    3    3    0    0  0.12834061957E-01 -0.23725691752E-01 -0.13427157122E+00  0.89059332831E+00  0.88000000000E+00 0. -1.
        -11    1    4    4    0    0  0.26626040335E-02 -0.14894702978E-01  0.79306009481E-01  0.80738131623E-01  0.51100000000E-03 0.  1.
         11    1    4    4    0    0 -0.79846159315E-02  0.26704710511E-01  0.50737486536E-01  0.57891703344E-01  0.51100000000E-03 0. -1.
</event>
<event>
 8    1  0.2877139E+004  0.1043930E+01  0.7957747E-01            NaN
         13   -1    0    0    0    0  0.00000000000E+00  0.00000000000E+00  0.74505805969E-08  0.10566000000E+00  0.10566000000E+00 0.  1.
     999900   -1    0    0    0    0 -0.00000000000E+00 -0.00000000000E+00 -0.74505805969E-08  0.93827000000E+00  0.93827000000E+00 0. -1.
     999902    2    1    2    0    0  0.10513340870E-01  0.70332941993E-02 -0.26167282234E-02  0.10310131571E+01  0.10309322409E+01 0.  0.
     999903    2    3    3    0    0  0.29236351277E-01 -0.10747625581E+00  0.72481160053E-01  0.14022548265E+00  0.44763351333E-01 0.  0.
         14    1    1    2    0    0 -0.10513340870E-01 -0.70332941993E-02  0.26167282234E-02  0.12916842886E-01  0.00000000000E+00 0.  1.
     999901    1    3    3    0    0 -0.18723010406E-01  0.11450955000E+00 -0.75097888277E-01  0.89078767447E+00  0.88000000000E+00 0. -1.
        -11    1    4    4    0    0 -0.10508490325E-01 -0.28017432733E-01  0.97902549766E-02  0.31488333067E-01  0.51100000000E-03 0.  1.
         11    1    4    4    0    0  0.39744841602E-01 -0.79458823073E-01  0.62690905077E-01  0.10873714958E+00  0.51100000000E-03 0. -1.
</event>
<event>
 8    1  0.2877139E+004  0.1043930E+01  0.7957747E-01            NaN
         13   -1    0    0    0    0  0.00000000000E+00  0.00000000000E+00  0.74505805969E-08  0.10566000000E+00  0.10566000000E+00 0. -1.
     999900   -1    0    0    0    0 -0.00000000000E+00 -0.00000000000E+00 -0.74505805969E-08  0.93827000000E+00  0.93827000000E+00 0. -1.
     999902    2    1    2    0    0 -0.11807846100E-01 -0.10635211918E-01 -0.42106280888E-02  0.10274903421E+01  0.10273588179E+01 0.  0.
     999903    2    3    3    0    0  0.99518410846E-01 -0.41973261586E-01 -0.71739627646E-01  0.13735789433E+00  0.45331536200E-01 0.  0.
         14    1    1    2    0    0  0.11807846100E-01  0.10635211918E-01  0.42106280888E-02  0.16439657872E-01  0.00000000000E+00 0. -1.
     999901    1    3    3    0    0 -0.11132625695E+00  0.31338049668E-01  0.67528999557E-01  0.89013244780E+00  0.88000000000E+00 0.  1.
        -11    1    4    4    0    0  0.67403744169E-01 -0.11072278523E-01 -0.60839462409E-01  0.91474375575E-01  0.51100000000E-03 0. -1.
         11    1    4    4    0    0  0.32114666677E-01 -0.30900983063E-01 -0.10900165237E-01  0.45883518754E-01  0.51100000000E-03 0.  1.
</event>
<event>
 8    1  0.2877139E+004  0.1043930E+01  0.7957747E-01            NaN
         13   -1    0    0    0    0  0.00000000000E+00  0.00000000000E+00  0.74505805969E-08  0.10566000000E+00  0.10566000000E+00 0. -1.
     999900   -1    0    0    0    0 -0.00000000000E+00 -0.00000000000E+00 -0.74505805969E-08  0.93827000000E+00  0.93827000000E+00 0. -1.
     999902    2    1    2    0    0  0.12162682333E-01  0.83836745080E-02  0.26492496188E-02  0.10289221566E+01  0.10288126987E+01 0.  0.
     999903    2    3    3    0    0 -0.30278354315E-01 -0.88534931831E-01  0.91693230323E-01  0.13812291528E+00  0.43761608107E-01 0.  0.
         14    1    1    2    0    0 -0.12162682333E-01 -0.83836745080E-02 -0.26492496188E-02  0.15007843394E-01  0.00000000000E+00 0. -1.
     999901    1    3    3    0    0  0.42441036648E-01  0.96918606339E-01 -0.89043980704E-01  0.89079924133E+00  0.88000000000E+00 0.  1.
        -11    1    4    4    0    0 -0.40222943826E-02 -0.54466283157E-01  0.73126755403E-01  0.91271782769E-01  0.51100000000E-03 0. -1.
         11    1    4    4    0    0 -0.26256059932E-01 -0.34068648674E-01  0.18566474920E-01  0.46851132512E-01  0.51100000000E-03 0.  1.
</event>
<event>
 8    1  0.2877139E+004  0.1043930E+01  0.7957747E-01            NaN
         13   -1    0    0    0    0  0.00000000000E+00  0.00000000000E+00  0.74505805969E-08  0.10566000000E+00  0.10566000000E+00 0.  1.
     999900   -1    0    0    0    0 -0.00000000000E+00 -0.00000000000E+00 -0.74505805969E-08  0.93827000000E+00  0.93827000000E+00 0. -1.
     999902    2    1    2    0    0  0.12456425567E-01 -0.73446934388E-02  0.73946572379E-02  0.10276884479E+01  0.10275600994E+01 0.  0.
     999903    2    3    3    0    0  0.31655736477E-01  0.12202710894E+00  0.30648612662E-01  0.13771854770E+00  0.46199133686E-01 0.  0.
         14    1    1    2    0    0 -0.12456425567E-01  0.73446934388E-02 -0.73946572379E-02  0.16241552120E-01  0.00000000000E+00 0.  1.
     999901    1    3    3    0    0 -0.19199310910E-01 -0.12937180238E+00 -0.23253955425E-01  0.88996990018E+00  0.88000000000E+00 0. -1.
        -11    1    4    4    0    0  0.31520234198E-01  0.34672572141E-01  0.89571472663E-02  0.47709580075E-01  0.51100000000E-03 0.  1.
         11    1    4    4    0    0  0.13550227833E-03  0.87354536799E-01  0.21691465396E-01  0.90008967621E-01  0.51100000000E-03 0. -1.
</event>
<event>
 8    1  0.2877139E+004  0.1043930E+01  0.7957747E-01            NaN
         13   -1    0    0    0    0  0.00000000000E+00  0.00000000000E+00  0.74505805969E-08  0.10566000000E+00  0.10566000000E+00 0. -1.
     999900   -1    0    0    0    0 -0.00000000000E+00 -0.00000000000E+00 -0.74505805969E-08  0.93827000000E+00  0.93827000000E+00 0.  1.
     999902    2    1    2    0    0  0.10318313309E-01 -0.55395727003E-02  0.93492746687E-02  0.10289445607E+01  0.10288354317E+01 0.  0.
     999903    2    3    3    0    0  0.11710809990E+00 -0.62261829730E-01  0.12733213703E-01  0.14066930828E+00  0.45109611582E-01 0.  0.
         14    1    1    2    0    0 -0.10318313309E-01  0.55395727003E-02 -0.93492746687E-02  0.14985439336E-01  0.00000000000E+00 0.  1.
     999901    1    3    3    0    0 -0.10678978659E+00  0.56722257030E-01 -0.33839390338E-02  0.88827525239E+00  0.88000000000E+00 0.  1.
        -11    1    4    4    0    0  0.94396105853E-01 -0.67300030666E-01  0.46131968757E-02  0.11602353914E+00  0.51100000000E-03 0. -1.
         11    1    4    4    0    0  0.22711994043E-01  0.50382009365E-02  0.81200168268E-02  0.24645769137E-01  0.51100000000E-03 0.  1.
</event>
<event>
 8    1  0.2877139E+004  0.1043930E+01  0.7957747E-01            NaN
         13   -1    0    0    0    0  0.00000000000E+00  0.00000000000E+00  0.74505805969E-08  0.10566000000E+00  0.10566000000E+00 0. -1.
     999900   -1    0    0    0    0 -0.00000000000E+00 -0.00000000000E+00 -0.74505805969E-08  0.93827000000E+00  0.93827000000E+00 0. -1.
     999902    2    1    2    0    0  0.61724459157E-04 -0.11386992541E-01  0.85379917363E-02  0.10296974770E+01  0.10295991110E+01 0.  0.
     999903    2    3    3    0    0 -0.27545596283E-01 -0.10016443999E+00 -0.83144291598E-01  0.14006314736E+00  0.43738279699E-01 0.  0.
         14    1    1    2    0    0 -0.61724459157E-04  0.11386992541E-01 -0.85379917363E-02  0.14232523034E-01  0.00000000000E+00 0.  1.
     999901    1    3    3    0    0  0.27607320743E-01  0.88777447445E-01  0.91682283335E-01  0.88963432960E+00  0.88000000000E+00 0.  1.
        -11    1    4    4    0    0 -0.38882483816E-01 -0.80272846090E-01 -0.59963552605E-01  0.10747774713E+00  0.51100000000E-03 0. -1.
         11    1    4    4    0    0  0.11336887533E-01 -0.19891593896E-01 -0.23180738993E-01  0.32585400226E-01  0.51100000000E-03 0.  1.
</event>
<event>
 8    1  0.2877139E+004  0.1043930E+01  0.7957747E-01            NaN
         13   -1    0    0    0    0  0.00000000000E+00  0.00000000000E+00  0.74505805969E-08  0.10566000000E+00  0.10566000000E+00 0.  1.
     999900   -1    0    0    0    0 -0.00000000000E+00 -0.00000000000E+00 -0.74505805969E-08  0.93827000000E+00  0.93827000000E+00 0. -1.
     999902    2    1    2    0    0 -0.42766021326E-02  0.44474873725E-02  0.12547876183E-01  0.10299472011E+01  0.10298522798E+01 0.  0.
     999903    2    3    3    0    0 -0.60826560503E-01  0.11838659720E+00 -0.15017710855E-01  0.14037433718E+00  0.42001976622E-01 0.  0.
         14    1    1    2    0    0  0.42766021326E-02 -0.44474873725E-02 -0.12547876183E-01  0.13982798948E-01  0.00000000000E+00 0. -1.
     999901    1    3    3    0    0  0.56549958371E-01 -0.11393910983E+00  0.27565587038E-01  0.88957286387E+00  0.88000000000E+00 0. -1.
        -11    1    4    4    0    0 -0.12278185255E-01  0.68742903154E-01 -0.29493402403E-02  0.69894923250E-01  0.51100000000E-03 0.  1.
         11    1    4    4    0    0 -0.48548375248E-01  0.49643694050E-01 -0.12068370615E-01  0.70479413934E-01  0.51100000000E-03 0. -1.
</event>
<event>
 8    1  0.2877139E+004  0.1043930E+01  0.7957747E-01            NaN
         13   -1    0    0    0    0  0.00000000000E+00  0.00000000000E+00  0.74505805969E-08  0.10566000000E+00  0.10566000000E+00 0.  1.
     999900   -1    0    0    0    0 -0.00000000000E+00 -0.00000000000E+00 -0.74505805969E-08  0.93827000000E+00  0.93827000000E+00 0. -1.
     999902    2    1    2    0    0 -0.67581176684E-02 -0.33014486306E-02  0.11242474146E-01  0.10304035466E+01  0.10303147596E+01 0.  0.
     999903    2    3    3    0    0  0.74876390283E-01  0.81800850280E-01  0.73482801211E-01  0.14035834969E+00  0.44753673890E-01 0.  0.
         14    1    1    2    0    0  0.67581176684E-02  0.33014486306E-02 -0.11242474146E-01  0.13526453431E-01  0.00000000000E+00 0. -1.
     999901    1    3    3    0    0 -0.81634507951E-01 -0.85102298910E-01 -0.62240327065E-01  0.89004519688E+00  0.88000000000E+00 0. -1.
        -11    1    4    4    0    0  0.35848046344E-01  0.27482191975E-01  0.54583385294E-01  0.70851678692E-01  0.51100000000E-03 0. -1.
         11    1    4    4    0    0  0.39028343939E-01  0.54318658305E-01  0.18899415918E-01  0.69506671001E-01  0.51100000000E-03 0.  1.
</event>
<event>
 8    1  0.2877139E+004  0.1043930E+01  0.7957747E-01            NaN
         13   -1    0    0    0    0  0.00000000000E+00  0.00000000000E+00  0.74505805969E-08  0.10566000000E+00  0.10566000000E+00 0.  1.
     999900   -1    0    0    0    0 -0.00000000000E+00 -0.00000000000E+00 -0.74505805969E-08  0.93827000000E+00  0.93827000000E+00 0. -1.
     999902    2    1    2    0    0 -0.14136124443E-01 -0.29172078779E-03  0.84308445082E-03  0.10297657525E+01  0.10296683345E+01 0.  0.
     999903    2    3    3    0    0 -0.49374935417E-01 -0.10242169988E+00  0.69246054220E-01  0.14052378730E+00  0.44986997228E-01 0.  0.
         14    1    1    2    0    0  0.14136124443E-01  0.29172078779E-03 -0.84308445082E-03  0.14164247480E-01  0.00000000000E+00 0.  1.
     999901    1    3    3    0    0  0.35238810974E-01  0.10212997909E+00 -0.68402969770E-01  0.88924196522E+00  0.88000000000E+00 0. -1.
        -11    1    4    4    0    0 -0.10772627238E-01 -0.42462574564E-01  0.42168675203E-02  0.44013211981E-01  0.51100000000E-03 0.  1.
         11    1    4    4    0    0 -0.38602308179E-01 -0.59959125316E-01  0.65029186700E-01  0.96510575324E-01  0.51100000000E-03 0. -1.
</event>
<event>
 8    1  0.2877139E+004  0.1043930E+01  0.7957747E-01            NaN
         13   -1    0    0    0    0  0.00000000000E+00  0.00000000000E+00  0.74505805969E-08  0.10566000000E+00  0.10566000000E+00 0. -1.
     999900   -1    0    0    0    0 -0.00000000000E+00 -0.00000000000E+00 -0.74505805969E-08  0.93827000000E+00  0.93827000000E+00 0. -1.
     999902    2    1    2    0    0  0.52097634785E-02 -0.10343740557E-01 -0.85024473217E-02  0.10295624597E+01  0.10294622053E+01 0.  0.
     999903    2    3    3    0    0 -0.65170496413E-01  0.11279093800E+00  0.94466008845E-02  0.13802575356E+00  0.44641696634E-01 0.  0.
         14    1    1    2    0    0 -0.52097634785E-02  0.10343740557E-01  0.85024473217E-02  0.14367540314E-01  0.00000000000E+00 0. -1.
     999901    1    3    3    0    0  0.70380259891E-01 -0.12313467856E+00 -0.17949048206E-01  0.89153670613E+00  0.88000000000E+00 0.  1.
        -11    1    4    4    0    0 -0.56891927730E-02  0.47239314743E-01  0.13355764115E-01  0.49422235157E-01  0.51100000000E-03 0.  1.
         11    1    4    4    0    0 -0.59481303640E-01  0.65551623259E-01 -0.39091632302E-02  0.88603518400E-01  0.51100000000E-03 0. -1.
</event>
<event>
 8    1  0.2877139E+004  0.1043930E+01  0.7957747E-01            NaN
         13   -1    0    0    0    0  0.00000000000E+00  0.00000000000E+00  0.74505805969E-08  0.10566000000E+00  0.10566000000E+00 0. -1.
     999900   -1    0    0    0    0 -0.00000000000E+00 -0.00000000000E+00 -0.74505805969E-08  0.93827000000E+00  0.93827000000E+00 0.  1.
     999902    2    1    2    0    0 -0.11387489772E-01 -0.72223541624E-02 -0.20264791674E-02  0.10302938737E+01  0.10302036314E+01 0.  0.
     999903    2    3    3    0    0  0.11205234092E+00  0.67058212060E-02 -0.68684360668E-01  0.13907299252E+00  0.44978447109E-01 0.  0.
         14    1    1    2    0    0  0.11387489772E-01  0.72223541624E-02  0.20264791674E-02  0.13636126311E-01  0.00000000000E+00 0. -1.
     999901    1    3    3    0    0 -0.12343983069E+00 -0.13928175368E-01  0.66657881501E-01  0.89122088117E+00  0.88000000000E+00 0. -1.
        -11    1    4    4    0    0  0.96809933907E-01  0.97471158900E-02 -0.74419692932E-01  0.12249784238E+00  0.51100000000E-03 0. -1.
         11    1    4    4    0    0  0.15242407011E-01 -0.30412946840E-02  0.57353322640E-02  0.16575150135E-01  0.51100000000E-03 0.  1.
</event>
<event>
 8    1  0.2877139E+004  0.1043930E+01  0.7957747E-01            NaN
         13   -1    0    0    0    0  0.00000000000E+00  0.00000000000E+00  0.74505805969E-08  0.10566000000E+00  0.10566000000E+00 0.  1.
     999900   -1    0    0    0    0 -0.00000000000E+00 -0.00000000000E+00 -0.74505805969E-08  0.93827000000E+00  0.93827000000E+00 0. -1.
     999902    2    1    2    0    0  0.80713612942E-02 -0.10949244606E-01 -0.12712504613E-01  0.10253117132E+01  0.10251426577E+01 0.  0.
     999903    2    3    3    0    0 -0.56035622194E-01 -0.62518080328E-01  0.95498676001E-01  0.13487434325E+00  0.44973214558E-01 0.  0.
         14    1    1    2    0    0 -0.80713612942E-02  0.10949244606E-01  0.12712504613E-01  0.18618286820E-01  0.00000000000E+00 0.  1.
     999901    1    3    3    0    0  0.64106983488E-01  0.51568835722E-01 -0.10821118061E+00  0.89043736993E+00  0.88000000000E+00 0. -1.
        -11    1    4    4    0    0 -0.30289858295E-01 -0.14218631142E-01  0.13067864814E-01  0.35925968308E-01  0.51100000000E-03 0. -1.
         11    1    4    4    0    0 -0.25745763899E-01 -0.48299449186E-01  0.82430811187E-01  0.98948374946E-01  0.51100000000E-03 0.  1.
</event>
<event>
 8    1  0.2877139E+004  0.1043930E+01  0.7957747E-01            NaN
         13   -1    0    0    0    0  0.00000000000E+00  0.00000000000E+00  0.74505805969E-08  0.10566000000E+00  0.10566000000E+00 0. -1.
     999900   -1    0    0    0    0 -0.00000000000E+00 -0.00000000000E+00 -0.74505805969E-08  0.93827000000E+00  0.93827000000E+00 0.  1.
     999902    2    1    2    0    0  0.10457926326E-01 -0.10507512626E-02 -0.14408296345E-01  0.10260954463E+01  0.10259404435E+01 0.  0.
     999903    2    3    3    0    0  0.27746823690E-01 -0.94129953474E-01 -0.85895059314E-01  0.13813542406E+00  0.45531305716E-01 0.  0.
         14    1    1    2    0    0 -0.10457926326E-01  0.10507512626E-02  0.14408296345E-01  0.17834553676E-01  0.00000000000E+00 0. -1.
     999901    1    3    3    0    0 -0.17288897364E-01  0.93079202211E-01  0.71486762969E-01  0.88796002226E+00  0.88000000000E+00 0.  1.
        -11    1    4    4    0    0  0.34374407330E-01 -0.37722399236E-01 -0.46186977703E-01  0.68833693158E-01  0.51100000000E-03 0.  1.
         11    1    4    4    0    0 -0.66275836400E-02 -0.56407554238E-01 -0.39708081612E-01  0.69301730904E-01  0.51100000000E-03 0. -1.
</event>
<event>
 8    1  0.2877139E+004  0.1043930E+01  0.7957747E-01            NaN
         13   -1    0    0    0    0  0.00000000000E+00  0.00000000000E+00  0.74505805969E-08  0.10566000000E+00  0.10566000000E+00 0.  1.
     999900   -1    0    0    0    0 -0.00000000000E+00 -0.00000000000E+00 -0.74505805969E-08  0.93827000000E+00  0.93827000000E+00 0. -1.
     999902    2    1    2    0    0  0.12899640469E-03  0.66172792382E-02  0.12387967189E-01  0.10298848316E+01  0.10297890559E+01 0.  0.
     999903    2    3    3    0    0  0.60528563269E-01 -0.11529099866E+00  0.37757371783E-01  0.13906872117E+00  0.30963991008E-01 0.  0.
         14    1    1    2    0    0 -0.12899640469E-03 -0.66172792382E-02 -0.12387967189E-01  0.14045168410E-01  0.00000000000E+00 0. -1.
     999901    1    3    3    0    0 -0.60399566865E-01  0.12190827790E+00 -0.25369404595E-01  0.89081611042E+00  0.88000000000E+00 0. -1.
        -11    1    4    4    0    0  0.27865121858E-01 -0.79049268307E-01  0.14677673210E-01  0.85093754459E-01  0.51100000000E-03 0.  1.
         11    1    4    4    0    0  0.32663441412E-01 -0.36241730356E-01  0.23079698573E-01  0.53974966709E-01  0.51100000000E-03 0. -1.
</event>
<event>
 7    1  0.2877139E+004  0.1043930E+01  0.7957747E-01            NaN
         13   -1    0    0    0    0  0.00000000000E+00  0.00000000000E+00  0.74505805969E-08  0.10566000000E+00  0.10566000000E+00 0. -1.
     999900   -1    0    0    0    0 -0.00000000000E+00 -0.00000000000E+00 -0.74505805969E-08  0.93827000000E+00  0.93827000000E+00 0. -1.
     999903    2    1    2    0    0  0.95058855826E-01  0.42132352610E-01  0.27149684997E-01  0.11673122095E+00  0.45582357796E-01 0.  0.
         14    1    1    2    0    0  0.35438289484E-01  0.29399114326E-02 -0.67861645847E-02  0.36201760600E-01  0.00000000000E+00 0.  1.
     999901    1    1    2    0    0 -0.13049714531E+00 -0.45072264043E-01 -0.20363520412E-01  0.89099701845E+00  0.88000000000E+00 0. -1.
        -11    1    3    3    0    0  0.79627037412E-01  0.28491009658E-01  0.38815869433E-01  0.93054476299E-01  0.51100000000E-03 0. -1.
         11    1    3    3    0    0  0.15431818413E-01  0.13641342952E-01 -0.11666184436E-01  0.23676744653E-01  0.51100000000E-03 0.  1.
</event>
<event>
 8    1  0.2877139E+004  0.1043930E+01  0.7957747E-01            NaN
         13   -1    0    0    0    0  0.00000000000E+00  0.00000000000E+00  0.74505805969E-08  0.10566000000E+00  0.10566000000E+00 0. -1.
     999900   -1    0    0    0    0 -0.00000000000E+00 -0.00000000000E+00 -0.74505805969E-08  0.93827000000E+00  0.93827000000E+00 0. -1.
     999902    2    1    2    0    0  0.96949186193E-02  0.98957855250E-02  0.29987069688E-02  0.10297557183E+01  0.10296581613E+01 0.  0.
     999903    2    3    3    0    0 -0.31357936793E-01  0.63666563447E-01 -0.11167780264E+00  0.13974036149E+00  0.44929784408E-01 0.  0.
         14    1    1    2    0    0 -0.96949186193E-02 -0.98957855250E-02 -0.29987069688E-02  0.14174281699E-01  0.00000000000E+00 0.  1.
     999901    1    3    3    0    0  0.41052855412E-01 -0.53770777922E-01  0.11467650961E+00  0.89001535681E+00  0.88000000000E+00 0.  1.
        -11    1    4    4    0    0 -0.30272198055E-01  0.33986538142E-01 -0.34714593028E-01  0.57243819231E-01  0.51100000000E-03 0. -1.
         11    1    4    4    0    0 -0.10857387380E-02  0.29680025304E-01 -0.76963209612E-01  0.82496542264E-01  0.51100000000E-03 0.  1.
</event>
<event>
 8    1  0.2877139E+004  0.1043930E+01  0.7957747E-01            NaN
         13   -1    0    0    0    0  0.00000000000E+00  0.00000000000E+00  0.74505805969E-08  0.10566000000E+00  0.10566000000E+00 0.  1.
     999900   -1    0    0    0    0 -0.00000000000E+00 -0.00000000000E+00 -0.74505805969E-08  0.93827000000E+00  0.93827000000E+00 0. -1.
     999902    2    1    2    0    0 -0.10946707989E-01  0.41409400305E-02  0.74977011284E-02  0.10300305999E+01  0.10299368153E+01 0.  0.
     999903    2    3    3    0    0  0.86245493487E-01 -0.29560426266E-01 -0.94050178900E-01  0.13823797939E+00  0.44183694340E-01 0.  0.
         14    1    1    2    0    0  0.10946707989E-01 -0.41409400305E-02 -0.74977011284E-02  0.13899400071E-01  0.00000000000E+00 0. -1.
     999901    1    3    3    0    0 -0.97192201476E-01  0.33701366296E-01  0.10154788003E+00  0.89179262054E+00  0.88000000000E+00 0.  1.
        -11    1    4    4    0    0  0.32820162334E-01 -0.34168004079E-01 -0.38771016079E-01  0.61221469822E-01  0.51100000000E-03 0. -1.
         11    1    4    4    0    0  0.53425331153E-01  0.46075778128E-02 -0.55279162821E-01  0.77016509563E-01  0.51100000000E-03 0.  1.
</event>
<event>
 8    1  0.2877139E+004  0.1043930E+01  0.7957747E-01            NaN
         13   -1    0    0    0    0  0.00000000000E+00  0.00000000000E+00  0.74505805969E-08  0.10566000000E+00  0.10566000000E+00 0. -1.
     999900   -1    0    0    0    0 -0.00000000000E+00 -0.00000000000E+00 -0.74505805969E-08  0.93827000000E+00  0.93827000000E+00 0. -1.
     999902    2    1    2    0    0  0.20563516292E-02  0.33537501739E-02 -0.15228445242E-01  0.10282016254E+01  0.10280813201E+01 0.  0.
     999903    2    3    3    0    0  0.50027861026E-01  0.49959772616E-02 -0.12308707209E+00  0.14031793597E+00  0.44843607904E-01 0.  0.
         14    1    1    2    0    0 -0.20563516292E-02 -0.33537501739E-02  0.15228445242E-01  0.15728374574E-01  0.00000000000E+00 0. -1.
     999901    1    3    3    0    0 -0.47971509397E-01 -0.16422270877E-02  0.10785862685E+00  0.88788368946E+00  0.88000000000E+00 0.  1.
        -11    1    4    4    0    0  0.30349915070E-01 -0.18422626615E-01 -0.79469772786E-01  0.87041463819E-01  0.51100000000E-03 0.  1.
         11    1    4    4    0    0  0.19677945956E-01  0.23418603877E-01 -0.43617299306E-01  0.53276472146E-01  0.51100000000E-03 0. -1.
</event>
<event>
 8    1  0.2877139E+004  0.1043930E+01  0.7957747E-01            NaN
         13   -1    0    0    0    0  0.00000000000E+00  0.00000000000E+00  0.74505805969E-08  0.10566000000E+00  0.10566000000E+00 0. -1.
     999900   -1    0    0    0    0 -0.00000000000E+00 -0.00000000000E+00 -0.74505805969E-08  0.93827000000E+00  0.93827000000E+00 0. -1.
     999902    2    1    2    0    0 -0.16018953026E-01  0.28901108306E-02  0.26544055388E-02  0.10274374118E+01  0.10273050325E+01 0.  0.
     999903    2    3    3    0    0 -0.15027205624E-01  0.12564903769E+00  0.33118956290E-01  0.13839364092E+00  0.45193329171E-01 0.  0.
         14    1    1    2    0    0  0.16018953026E-01 -0.28901108306E-02 -0.26544055388E-02  0.16492588196E-01  0.00000000000E+00 0. -1.
     999901    1    3    3    0    0 -0.99174740152E-03 -0.12275892686E+00 -0.30464550751E-01  0.88904377088E+00  0.88000000000E+00 0.  1.
        -11    1    4    4    0    0 -0.14008340068E-01  0.25226749793E-01  0.24030279034E-01  0.37554466153E-01  0.51100000000E-03 0.  1.
         11    1    4    4    0    0 -0.10188655560E-02  0.10042228790E+00  0.90886772556E-02  0.10083917477E+00  0.51100000000E-03 0. -1.
</event>
<event>
 8    1  0.2877139E+004  0.1043930E+01  0.7957747E-01            NaN
         13   -1    0    0    0    0  0.00000000000E+00  0.00000000000E+00  0.74505805969E-08  0.10566000000E+00  0.10566000000E+00 0. -1.
     999900   -1    0    0    0    0 -0.00000000000E+00 -0.00000000000E+00 -0.74505805969E-08  0.93827000000E+00  0.93827000000E+00 0. -1.
     999902    2    1    2    0    0 -0.13726765858E-01  0.32014269952E-02 -0.42407501130E-02  0.10292107202E+01  0.10291054608E+01 0.  0.
     999903    2    3    3    0    0  0.11087308406E+00  0.54705278004E-01 -0.42357603164E-01  0.13812673778E+00  0.44713766727E-01 0.  0.
         14    1    1    2    0    0  0.13726765858E-01 -0.32014269952E-02  0.42407501130E-02  0.14719279780E-01  0.00000000000E+00 0.  1.
     999901    1    3    3    0    0 -0.12459984992E+00 -0.51503851008E-01  0.38116853051E-01  0.89108398244E+00  0.88000000000E+00 0. -1.
        -11    1    4    4    0    0  0.50023151143E-02 -0.71999540977E-02 -0.19159820667E-02  0.89885818565E-02  0.51100000000E-03 0.  1.
         11    1    4    4    0    0  0.10587076894E+00  0.61905232101E-01 -0.40441621097E-01  0.12913815593E+00  0.51100000000E-03 0. -1.
</event>
<event>
 8    1  0.2877139E+004  0.1043930E+01  0.7957747E-01            NaN
         13   -1    0    0    0    0  0.00000000000E+00  0.00000000000E+00  0.74505805969E-08  0.10566000000E+00  0.10566000000E+00 0.  1.
     999900   -1    0    0    0    0 -0.00000000000E+00 -0.00000000000E+00 -0.74505805969E-08  0.93827000000E+00  0.93827000000E+00 0.  1.
     999902    2    1    2    0    0 -0.13585505614E-01 -0.90985184836E-03 -0.42473786790E-03  0.10303074380E+01  0.10302173764E+01 0.  0.
     999903    2    3    3    0    0  0.31235361049E-02  0.51737631884E-01 -0.12228636040E+00  0.14019440885E+00  0.44877380752E-01 0.  0.
         14    1    1    2    0    0  0.13585505614E-01  0.90985184836E-03  0.42473786790E-03  0.13622562000E-01  0.00000000000E+00 0.  1.
     999901    1    3    3    0    0 -0.16709041719E-01 -0.52647483732E-01  0.12186162253E+00  0.89011302915E+00  0.88000000000E+00 0. -1.
        -11    1    4    4    0    0  0.15545001696E-01  0.64776140538E-03 -0.34797183556E-01  0.38120490251E-01  0.51100000000E-03 0. -1.
         11    1    4    4    0    0 -0.12421465591E-01  0.51089870479E-01 -0.87489176840E-01  0.10207391860E+00  0.51100000000E-03 0.  1.
</event>
<event>
 8    1  0.2877139E+004  0.1043930E+01  0.7957747E-01            NaN
         13   -1    0    0    0    0  0.00000000000E+00  0.00000000000E+00  0.74505805969E-08  0.10566000000E+00  0.10566000000E+00 0.  1.
     999900   -1    0    0    0    0 -0.00000000000E+00 -0.00000000000E+00 -0.74505805969E-08  0.93827000000E+00  0.93827000000E+00 0. -1.
     999902    2    1    2    0    0 -0.31003071457E-02  0.64374016223E-02  0.11221152804E-01  0.10306271314E+01  0.10305412741E+01 0.  0.
     999903    2    3    3    0    0  0.25992562613E-02 -0.11892166580E+00  0.59147678395E-01  0.14043370705E+00  0.45541843254E-01 0.  0.
         14    1    1    2    0    0  0.31003071457E-02 -0.64374016223E-02 -0.11221152804E-01  0.13302868649E-01  0.00000000000E+00 0. -1.
     999901    1    3    3    0    0 -0.56995634070E-02  0.12535906742E+00 -0.47926525590E-01  0.89019342430E+00  0.88000000000E+00 0. -1.
        -11    1    4    4    0    0 -0.10540807617E-01 -0.72336821843E-01  0.55702061957E-01  0.91905958713E-01  0.51100000000E-03 0. -1.
         11    1    4    4    0    0  0.13140063878E-01 -0.46584843958E-01  0.34456164375E-02  0.48527748340E-01  0.51100000000E-03 0.  1.
</event>
<event>
 8    1  0.2877139E+004  0.1043930E+01  0.7957747E-01            NaN
         13   -1    0    0    0    0  0.00000000000E+00  0.00000000000E+00  0.74505805969E-08  0.10566000000E+00  0.10566000000E+00 0. -1.
     999900   -1    0    0    0    0 -0.00000000000E+00 -0.00000000000E+00 -0.74505805969E-08  0.93827000000E+00  0.93827000000E+00 0. -1.
     999902    2    1    2    0    0 -0.19713751629E-02 -0.46826721955E-02 -0.12419359469E-01  0.10305115713E+01  0.10304242060E+01 0.  0.
     999903    2    3    3    0    0 -0.55504259041E-01  0.11065009161E-01  0.11882157890E+00  0.13903081267E+00  0.44808950654E-01 0.  0.
         14    1    1    2    0    0  0.19713751629E-02  0.46826721955E-02  0.12419359469E-01  0.13418428692E-01  0.00000000000E+00 0. -1.
     999901    1    3    3    0    0  0.53532883878E-01 -0.15747681357E-01 -0.13124093837E+00  0.89148075864E+00  0.88000000000E+00 0. -1.
        -11    1    4    4    0    0 -0.24988694247E-01  0.67180142285E-02  0.99124667770E-01  0.10244768146E+00  0.51100000000E-03 0.  1.
         11    1    4    4    0    0 -0.30515564794E-01  0.43469949325E-02  0.19696911131E-01  0.36583131205E-01  0.51100000000E-03 0. -1.
</event>
<event>
 8    1  0.2877139E+004  0.1043930E+01  0.7957747E-01            NaN
         13   -1    0    0    0    0  0.00000000000E+00  0.00000000000E+00  0.74505805969E-08  0.10566000000E+00  0.10566000000E+00 0. -1.
     999900   -1    0    0    0    0 -0.00000000000E+00 -0.00000000000E+00 -0.74505805969E-08  0.93827000000E+00  0.93827000000E+00 0.  1.
     999902    2    1    2    0    0 -0.10440196790E-01  0.66083835568E-02  0.94639309971E-03  0.10315379016E+01  0.10314634644E+01 0.  0.
     999903    2    3    3    0    0 -0.23177548111E-01 -0.96214585344E-01 -0.89622461878E-01  0.14084293670E+00  0.44834160810E-01 0.  0.
         14    1    1    2    0    0  0.10440196790E-01 -0.66083835568E-02 -0.94639309971E-03  0.12392098375E-01  0.00000000000E+00 0.  1.
     999901    1    3    3    0    0  0.12737351321E-01  0.10282296890E+00  0.90568854978E-01  0.89069496493E+00  0.88000000000E+00 0.  1.
        -11    1    4    4    0    0  0.80961012464E-02 -0.16324616232E-01 -0.22114839293E-02  0.18362781180E-01  0.51100000000E-03 0. -1.
         11    1    4    4    0    0 -0.31273649358E-01 -0.79889969112E-01 -0.87410977949E-01  0.12248015552E+00  0.51100000000E-03 0.  1.
</event>
<event>
 8    1  0.2877139E+004  0.1043930E+01  0.7957747E-01            NaN
         13   -1    0    0    0    0  0.00000000000E+00  0.00000000000E+00  0.74505805969E-08  0.10566000000E+00  0.10566000000E+00 0. -1.
     999900   -1    0    0    0    0 -0.00000000000E+00 -0.00000000000E+00 -0.74505805969E-08  0.93827000000E+00  0.93827000000E+00 0. -1.
     999902    2    1    2    0    0 -0.16135844356E-02  0.78236191754E-02 -0.13779559819E-01  0.10280023843E+01  0.10278789877E+01 0.  0.
     999903    2    3    3    0    0  0.36941416242E-01  0.44545467998E-01 -0.11911942211E+00  0.14012206085E+00  0.45779780020E-01 0.  0.
         14    1    1    2    0    0  0.16135844356E-02 -0.78236191754E-02  0.13779559819E-01  0.15927615658E-01  0.00000000000E+00 0. -1.
     999901    1    3    3    0    0 -0.38555000678E-01 -0.36721848822E-01  0.10533986229E+00  0.88788032349E+00  0.88000000000E+00 0.  1.
        -11    1    4    4    0    0  0.93202089189E-02  0.23791607556E-01 -0.13313343879E-01  0.28816889677E-01  0.51100000000E-03 0.  1.
         11    1    4    4    0    0  0.27621207323E-01  0.20753860441E-01 -0.10580607823E+00  0.11130517117E+00  0.51100000000E-03 0. -1.
</event>
<event>
 8    1  0.2877139E+004  0.1043930E+01  0.7957747E-01            NaN
         13   -1    0    0    0    0  0.00000000000E+00  0.00000000000E+00  0.74505805969E-08  0.10566000000E+00  0.10566000000E+00 0.  1.
     999900   -1    0    0    0    0 -0.00000000000E+00 -0.00000000000E+00 -0.74505805969E-08  0.93827000000E+00  0.93827000000E+00 0.  1.
     999902    2    1    2    0    0  0.41778414292E-02 -0.49144871972E-02  0.13871484178E-01  0.10286321369E+01  0.10285183753E+01 0.  0.
     999903    2    3    3    0    0  0.13091590867E+00  0.50259833123E-02 -0.12403286413E-01  0.13910882957E+00  0.45090900391E-01 0.  0.
         14    1    1    2    0    0 -0.41778414292E-02  0.49144871972E-02 -0.13871484178E-01  0.15297863143E-01  0.00000000000E+00 0. -1.
     999901    1    3    3    0    0 -0.12673806724E+00 -0.99404705095E-02  0.26274770592E-01  0.88952330729E+00  0.88000000000E+00 0. -1.
        -11    1    4    4    0    0  0.71357310099E-01  0.57595918463E-02 -0.29050788561E-01  0.77260908873E-01  0.51100000000E-03 0. -1.
         11    1    4    4    0    0  0.59558598573E-01 -0.73360853409E-03  0.16647502148E-01  0.61847920695E-01  0.51100000000E-03 0.  1.
</event>
<event>
 7    1  0.2877139E+004  0.1043930E+01  0.7957747E-01            NaN
         13   -1    0    0    0    0  0.00000000000E+00  0.00000000000E+00  0.74505805969E-08  0.10566000000E+00  0.10566000000E+00 0.  1.
     999900   -1    0    0    0    0 -0.00000000000E+00 -0.00000000000E+00 -0.74505805969E-08  0.93827000000E+00  0.93827000000E+00 0. -1.
     999903    2    1    2    0    0  0.72685479685E-01 -0.50128245054E-01 -0.56045857314E-01  0.11404316446E+00  0.45482802553E-01 0.  0.
         14    1    1    2    0    0  0.15845034799E-01  0.14199002105E-01 -0.34040855011E-01  0.40142952040E-01  0.00000000000E+00 0.  1.
     999901    1    1    2    0    0 -0.88530514485E-01  0.35929242949E-01  0.90086712325E-01  0.88974388350E+00  0.88000000000E+00 0.  1.
        -11    1    3    3    0    0  0.66123831685E-01 -0.21029440617E-01 -0.36846746397E-01  0.78565528894E-01  0.51100000000E-03 0.  1.
         11    1    3    3    0    0  0.65616479999E-02 -0.29098804437E-01 -0.19199110916E-01  0.35477635563E-01  0.51100000000E-03 0. -1.
</event>
<event>
 8    1  0.2877139E+004  0.1043930E+01  0.7957747E-01            NaN
         13   -1    0    0    0    0  0.00000000000E+00  0.00000000000E+00  0.74505805969E-08  0.10566000000E+00  0.10566000000E+00 0. -1.
     999900   -1    0    0    0    0 -0.00000000000E+00 -0.00000000000E+00 -0.74505805969E-08  0.93827000000E+00  0.93827000000E+00 0. -1.
     999902    2    1    2    0    0  0.11842073259E-01  0.11502938818E-02 -0.76902993417E-02  0.10297631874E+01  0.10296657339E+01 0.  0.
     999903    2    3    3    0    0 -0.26165701200E-01  0.70466764472E-01 -0.10951881370E+00  0.14037102961E+00  0.45381125880E-01 0.  0.
         14    1    1    2    0    0 -0.11842073259E-01 -0.11502938818E-02  0.76902993417E-02  0.14166812594E-01  0.00000000000E+00 0. -1.
     999901    1    3    3    0    0  0.38007774459E-01 -0.69316470590E-01  0.10182851435E+00  0.88939215780E+00  0.88000000000E+00 0.  1.
        -11    1    4    4    0    0 -0.37774630392E-01  0.62691855453E-01 -0.85232841140E-01  0.11234807418E+00  0.51100000000E-03 0.  1.
         11    1    4    4    0    0  0.11608929193E-01  0.77749090189E-02 -0.24285972555E-01  0.28022955433E-01  0.51100000000E-03 0. -1.
</event>
<event>
 8    1  0.2877139E+004  0.1043930E+01  0.7957747E-01            NaN
         13   -1    0    0    0    0  0.00000000000E+00  0.00000000000E+00  0.74505805969E-08  0.10566000000E+00  0.10566000000E+00 0.  1.
     999900   -1    0    0    0    0 -0.00000000000E+00 -0.00000000000E+00 -0.74505805969E-08  0.93827000000E+00  0.93827000000E+00 0.  1.
     999902    2    1    2    0    0 -0.85125352867E-02  0.72638417806E-02 -0.95386343817E-02  0.10292258441E+01  0.10291208024E+01 0.  0.
     999903    2    3    3    0    0 -0.29550607170E-01  0.12400296240E+00 -0.39234623215E-01  0.14077073861E+00  0.45023017673E-01 0.  0.
         14    1    1    2    0    0  0.85125352867E-02 -0.72638417806E-02  0.95386343817E-02  0.14704155885E-01  0.00000000000E+00 0.  1.
     999901    1    3    3    0    0  0.21038071883E-01 -0.11673912062E+00  0.29695988833E-01  0.88845510551E+00  0.88000000000E+00 0. -1.
        -11    1    4    4    0    0 -0.38574334072E-01  0.75517384472E-01 -0.33258522336E-01  0.91089214705E-01  0.51100000000E-03 0. -1.
         11    1    4    4    0    0  0.90237269028E-02  0.48485577930E-01 -0.59761008791E-02  0.49681523901E-01  0.51100000000E-03 0.  1.
</event>
<event>
 8    1  0.2877139E+004  0.1043930E+01  0.7957747E-01            NaN
         13   -1    0    0    0    0  0.00000000000E+00  0.00000000000E+00  0.74505805969E-08  0.10566000000E+00  0.10566000000E+00 0.  1.
     999900   -1    0    0    0    0 -0.00000000000E+00 -0.00000000000E+00 -0.74505805969E-08  0.93827000000E+00  0.93827000000E+00 0.  1.
     999902    2    1    2    0    0  0.22804669438E-01 -0.34960819874E-02  0.78311292015E-02  0.10195660487E+01  0.10192749019E+01 0.  0.
     999903    2    3    3    0    0  0.23408909789E-01 -0.11510898586E+00  0.40763549308E-01  0.13190488042E+00  0.44036062970E-01 0.  0.
         14    1    1    2    0    0 -0.22804669438E-01  0.34960819874E-02 -0.78311292015E-02  0.24363951281E-01  0.00000000000E+00 0. -1.
     999901    1    3    3    0    0 -0.60424035106E-03  0.11161290387E+00 -0.32932420107E-01  0.88766116830E+00  0.88000000000E+00 0.  1.
        -11    1    4    4    0    0  0.28556693170E-01 -0.85870574026E-01  0.46375446204E-01  0.10168669205E+00  0.51100000000E-03 0.  1.
         11    1    4    4    0    0 -0.51477833807E-02 -0.29238411836E-01 -0.56118968959E-02  0.30218188367E-01  0.51100000000E-03 0. -1.
</event>
<event>
 8    1  0.2877139E+004  0.1043930E+01  0.7957747E-01            NaN
         13   -1    0    0    0    0  0.00000000000E+00  0.00000000000E+00  0.74505805969E-08  0.10566000000E+00  0.10566000000E+00 0. -1.
     999900   -1    0    0    0    0 -0.00000000000E+00 -0.00000000000E+00 -0.74505805969E-08  0.93827000000E+00  0.93827000000E+00 0.  1.
     999902    2    1    2    0    0 -0.65424351856E-02  0.31261413097E-02  0.12161842527E-01  0.10297706698E+01  0.10296733199E+01 0.  0.
     999903    2    3    3    0    0 -0.38597423025E-01  0.39228877410E-01  0.12265236023E+00  0.14154824029E+00  0.44312943628E-01 0.  0.
         14    1    1    2    0    0  0.65424351856E-02 -0.31261413097E-02 -0.12161842527E-01  0.14159330186E-01  0.00000000000E+00 0.  1.
     999901    1    3    3    0    0  0.32054987839E-01 -0.36102736100E-01 -0.11049051770E+00  0.88822242952E+00  0.88000000000E+00 0.  1.
        -11    1    4    4    0    0 -0.19180140830E-01  0.45474672737E-01  0.75888508119E-01  0.90527070252E-01  0.51100000000E-03 0.  1.
         11    1    4    4    0    0 -0.19417282194E-01 -0.62457953271E-02  0.46763852113E-01  0.51021170043E-01  0.51100000000E-03 0. -1.
</event>
<event>
 8    1  0.2877139E+004  0.1043930E+01  0.7957747E-01            NaN
         13   -1    0    0    0    0  0.00000000000E+00  0.00000000000E+00  0.74505805969E-08  0.10566000000E+00  0.10566000000E+00 0.  1.
     999900   -1    0    0    0    0 -0.00000000000E+00 -0.00000000000E+00 -0.74505805969E-08  0.93827000000E+00  0.93827000000E+00 0. -1.
     999902    2    1    2    0    0 -0.88991710241E-02  0.61791426332E-02 -0.92872592417E-02  0.10296600935E+01  0.10295612064E+01 0.  0.
     999903    2    3    3    0    0  0.90230146153E-01 -0.86423758214E-01 -0.39972958331E-01  0.13873723995E+00  0.45162363672E-01 0.  0.
         14    1    1    2    0    0  0.88991710241E-02 -0.61791426332E-02  0.92872592417E-02  0.14269906546E-01  0.00000000000E+00 0.  1.
     999901    1    3    3    0    0 -0.99129317177E-01  0.92602900847E-01  0.30685699089E-01  0.89092285351E+00  0.88000000000E+00 0. -1.
        -11    1    4    4    0    0  0.19532108619E-01  0.72933826833E-03 -0.12477372568E-01  0.23194420635E-01  0.51100000000E-03 0. -1.
         11    1    4    4    0    0  0.70698037534E-01 -0.87153096482E-01 -0.27495585763E-01  0.11554281931E+00  0.51100000000E-03 0.  1.
</event>
<event>
 8    1  0.2877139E+004  0.1043930E+01  0.7957747E-01            NaN
         13   -1    0    0    0    0  0.00000000000E+00  0.00000000000E+00  0.74505805969E-08  0.10566000000E+00  0.10566000000E+00 0. -1.
     999900   -1    0    0    0    0 -0.00000000000E+00 -0.00000000000E+00 -0.74505805969E-08  0.93827000000E+00  0.93827000000E+00 0. -1.
     999902    2    1    2    0    0 -0.49620244402E-02 -0.33749858531E-02 -0.99628725651E-02  0.10322993919E+01  0.10322338705E+01 0.  0.
     999903    2    3    3    0    0 -0.96107082501E-02 -0.12330480184E+00 -0.56230116295E-01  0.14294826386E+00  0.44451549956E-01 0.  0.
         14    1    1    2    0    0  0.49620244402E-02  0.33749858531E-02  0.99628725651E-02  0.11630608144E-01  0.00000000000E+00 0. -1.
     999901    1    3    3    0    0  0.46486838099E-02  0.11992981598E+00  0.46267243730E-01  0.88935112799E+00  0.88000000000E+00 0.  1.
        -11    1    4    4    0    0  0.16555366550E-01 -0.61981723571E-01 -0.34363262465E-01  0.72779867729E-01  0.51100000000E-03 0.  1.
         11    1    4    4    0    0 -0.26166074800E-01 -0.61323078265E-01 -0.21866853830E-01  0.70168396132E-01  0.51100000000E-03 0. -1.
</event>
<event>
 8    1  0.2877139E+004  0.1043930E+01  0.7957747E-01            NaN
         13   -1    0    0    0    0  0.00000000000E+00  0.00000000000E+00  0.74505805969E-08  0.10566000000E+00  0.10566000000E+00 0.  1.
     999900   -1    0    0    0    0 -0.00000000000E+00 -0.00000000000E+00 -0.74505805969E-08  0.93827000000E+00  0.93827000000E+00 0.  1.
     999902    2    1    2    0    0  0.11524532554E-01  0.64677365985E-02 -0.18513682105E-02  0.10305855618E+01  0.10304991636E+01 0.  0.
     999903    2    3    3    0    0 -0.78107219719E-01 -0.53814118629E-01  0.89701495467E-01  0.13926649436E+00  0.48498464171E-01 0.  0.
         14    1    1    2    0    0 -0.11524532554E-01 -0.64677365985E-02  0.18513682105E-02  0.13344438226E-01  0.00000000000E+00 0. -1.
     999901    1    3    3    0    0  0.89631752273E-01  0.60281855228E-01 -0.91552863677E-01  0.89131906741E+00  0.88000000000E+00 0.  1.
        -11    1    4    4    0    0 -0.69590648107E-01 -0.39094953324E-01  0.92330925203E-01  0.12205136029E+00  0.51100000000E-03 0.  1.
         11    1    4    4    0    0 -0.85165716117E-02 -0.14719165305E-01 -0.26294297366E-02  0.17215134069E-01  0.51100000000E-03 0. -1.
</event>
<event>
 8    1  0.2877139E+004  0.1043930E+01  0.7957747E-01            NaN
         13   -1    0    0    0    0  0.00000000000E+00  0.00000000000E+00  0.74505805969E-08  0.10566000000E+00  0.10566000000E+00 0.  1.
     999900   -1    0    0    0    0 -0.00000000000E+00 -0.00000000000E+00 -0.74505805969E-08  0.93827000000E+00  0.93827000000E+00 0. -1.
     999902    2    1    2    0    0 -0.12750301125E-01 -0.69965977738E-02 -0.37746383998E-02  0.10289043401E+01  0.10287946203E+01 0.  0.
     999903    2    3    3    0    0 -0.61054826948E-01  0.10361545816E+00 -0.53586469658E-01  0.13926982380E+00  0.45395143206E-01 0.  0.
         14    1    1    2    0    0  0.12750301125E-01  0.69965977738E-02  0.37746383998E-02  0.15025659860E-01  0.00000000000E+00 0.  1.
     999901    1    3    3    0    0  0.48304525823E-01 -0.11061205594E+00  0.49811831258E-01  0.88963451634E+00  0.88000000000E+00 0.  1.
        -11    1    4    4    0    0 -0.52726298555E-01  0.96915439686E-01 -0.61170479029E-01  0.12615369053E+00  0.51100000000E-03 0.  1.
         11    1    4    4    0    0 -0.83285283928E-02  0.67000184750E-02  0.75840093706E-02  0.13116133267E-01  0.51100000000E-03 0. -1.
</event>
<event>
 8    1  0.2877139E+004  0.1043930E+01  0.7957747E-01            NaN
         13   -1    0    0    0    0  0.00000000000E+00  0.00000000000E+00  0.74505805969E-08  0.10566000000E+00  0.10566000000E+00 0.  1.
     999900   -1    0    0    0    0 -0.00000000000E+00 -0.00000000000E+00 -0.74505805969E-08  0.93827000000E+00  0.93827000000E+00 0.  1.
     999902    2    1    2    0    0  0.42999657195E-02  0.14204438933E-01  0.29461115661E-03  0.10290860589E+01  0.10289789960E+01 0.  0.
     999903    2    3    3    0    0  0.91121920858E-01 -0.75865901190E-01  0.55801828793E-01  0.13850660191E+00  0.44848581384E-01 0.  0.
         14    1    1    2    0    0 -0.42999657195E-02 -0.14204438933E-01 -0.29461115661E-03  0.14843941065E-01  0.00000000000E+00 0. -1.
     999901    1    3    3    0    0 -0.86821955138E-01  0.90070340123E-01 -0.55507217636E-01  0.89057945702E+00  0.88000000000E+00 0.  1.
        -11    1    4    4    0    0  0.43385769977E-02 -0.24563969062E-01  0.18307897496E-01  0.30945953825E-01  0.51100000000E-03 0.  1.
         11    1    4    4    0    0  0.86783343860E-01 -0.51301932128E-01  0.37493931297E-01  0.10756064809E+00  0.51100000000E-03 0. -1.
</event>
<event>
 7    1  0.2877139E+004  0.1043930E+01  0.7957747E-01            NaN
         13   -1    0    0    0    0  0.00000000000E+00  0.00000000000E+00  0.74505805969E-08  0.10566000000E+00  0.10566000000E+00 0. -1.
     999900   -1    0    0    0    0 -0.00000000000E+00 -0.00000000000E+00 -0.74505805969E-08  0.93827000000E+00  0.93827000000E+00 0. -1.
     999903    2    1    2    0    0  0.39669885032E-01  0.91591331822E-03  0.75522678619E-01  0.96249986193E-01  0.44562834074E-01 0.  0.
         14    1    1    2    0    0  0.27288689044E-01  0.22573812892E-01  0.44314484903E-01  0.56727622464E-01  0.00000000000E+00 0. -1.
     999901    1    1    2    0    0 -0.66958574076E-01 -0.23489726210E-01 -0.11983716352E+00  0.89095239134E+00  0.88000000000E+00 0. -1.
        -11    1    3    3    0    0  0.39327097376E-01  0.17015728792E-01  0.61074086376E-01  0.74608717735E-01  0.51100000000E-03 0. -1.
         11    1    3    3    0    0  0.34278765626E-03 -0.16099815474E-01  0.14448592243E-01  0.21641268458E-01  0.51100000000E-03 0.  1.
</event>
<event>
 8    1  0.2877139E+004  0.1043930E+01  0.7957747E-01            NaN
         13   -1    0    0    0    0  0.00000000000E+00  0.00000000000E+00  0.74505805969E-08  0.10566000000E+00  0.10566000000E+00 0.  1.
     999900   -1    0    0    0    0 -0.00000000000E+00 -0.00000000000E+00 -0.74505805969E-08  0.93827000000E+00  0.93827000000E+00 0.  1.
     999902    2    1    2    0    0  0.11285739504E-01 -0.75190423357E-02 -0.27677965287E-02  0.10300893132E+01  0.10299963245E+01 0.  0.
     999903    2    3    3    0    0 -0.98924551304E-01  0.86890765193E-01  0.61754895317E-02  0.13815910161E+00  0.41397207161E-01 0.  0.
         14    1    1    2    0    0 -0.11285739504E-01  0.75190423357E-02  0.27677965287E-02  0.13840686812E-01  0.00000000000E+00 0.  1.
     999901    1    3    3    0    0  0.11021029081E+00 -0.94409807528E-01 -0.89432860604E-02  0.89193021158E+00  0.88000000000E+00 0. -1.
        -11    1    4    4    0    0 -0.21105766503E-01  0.92797876269E-03 -0.48471368943E-02  0.21681106553E-01  0.51100000000E-03 0. -1.
         11    1    4    4    0    0 -0.77818784801E-01  0.85962786430E-01  0.11022626426E-01  0.11647799506E+00  0.51100000000E-03 0.  1.
</event>
<event>
 8    1  0.2877139E+004  0.1043930E+01  0.7957747E-01            NaN
         13   -1    0    0    0    0  0.00000000000E+00  0.00000000000E+00  0.74505805969E-08  0.10566000000E+00  0.10566000000E+00 0. -1.
     999900   -1    0    0    0    0 -0.00000000000E+00 -0.00000000000E+00 -0.74505805969E-08  0.93827000000E+00  0.93827000000E+00 0.  1.
     999902    2    1    2    0    0  0.52679790978E-02  0.73561070117E-02  0.95329930250E-02  0.10307868698E+01  0.10307030752E+01 0.  0.
     999903    2    3    3    0    0 -0.86415906881E-01  0.95989383008E-01  0.35385164809E-01  0.14121948772E+00  0.44823690288E-01 0.  0.
         14    1    1    2    0    0 -0.52679790978E-02 -0.73561070117E-02 -0.95329930250E-02  0.13143130151E-01  0.00000000000E+00 0.  1.
     999901    1    3    3    0    0  0.91683885979E-01 -0.88633275997E-01 -0.25852171784E-01  0.88956738213E+00  0.88000000000E+00 0.  1.
        -11    1    4    4    0    0 -0.22869584554E-01  0.46647155087E-02  0.15953144838E-01  0.28276163454E-01  0.51100000000E-03 0.  1.
         11    1    4    4    0    0 -0.63546322327E-01  0.91324667500E-01  0.19432019971E-01  0.11294332427E+00  0.51100000000E-03 0. -1.
</event>
<event>
 8    1  0.2877139E+004  0.1043930E+01  0.7957747E-01            NaN
         13   -1    0    0    0    0  0.00000000000E+00  0.00000000000E+00  0.74505805969E-08  0.10566000000E+00  0.10566000000E+00 0.  1.
     999900   -1    0    0    0    0 -0.00000000000E+00 -0.00000000000E+00 -0.74505805969E-08  0.93827000000E+00  0.93827000000E+00 0. -1.
     999902    2    1    2    0    0  0.68943526107E-03 -0.44476918861E-03 -0.25925106929E-01  0.10179919139E+01  0.10176614135E+01 0.  0.
     999903    2    3    3    0    0  0.10289024785E-01  0.39039335408E-01  0.11115010228E+00  0.12645349095E+00  0.44790695442E-01 0.  0.
         14    1    1    2    0    0 -0.68943526107E-03  0.44476918861E-03  0.25925106929E-01  0.25938086087E-01  0.00000000000E+00 0.  1.
     999901    1    3    3    0    0 -0.95995895236E-02 -0.39484104597E-01 -0.13707520920E+00  0.89153842296E+00  0.88000000000E+00 0. -1.
        -11    1    4    4    0    0  0.22656422318E-01  0.12915773264E-01  0.27290862335E-01  0.37751595453E-01  0.51100000000E-03 0. -1.
         11    1    4    4    0    0 -0.12367397534E-01  0.26123562145E-01  0.83859239940E-01  0.88701895500E-01  0.51100000000E-03 0.  1.
</event>
<event>
 7    1  0.2877139E+004  0.1043930E+01  0.7957747E-01            NaN
         13   -1    0    0    0    0  0.00000000000E+00  0.00000000000E+00  0.74505805969E-08  0.10566000000E+00  0.10566000000E+00 0. -1.
     999900   -1    0    0    0    0 -0.00000000000E+00 -0.00000000000E+00 -0.74505805969E-08  0.93827000000E+00  0.93827000000E+00 0. -1.
     999903    2    1    2    0    0  0.46689034936E-01 -0.82142003563E-02 -0.10091721497E+00  0.12042765211E+00  0.45510394913E-01 0.  0.
         14    1    1    2    0    0 -0.16061146313E-01  0.17672496672E-01 -0.24288778535E-01  0.34062036378E-01  0.00000000000E+00 0.  1.
     999901    1    1    2    0    0 -0.30627888623E-01 -0.94582963154E-02  0.12520599350E+00  0.88944031151E+00  0.88000000000E+00 0.  1.
        -11    1    3    3    0    0  0.22684346949E-01  0.16476791823E-01 -0.64354816984E-01  0.70198773888E-01  0.51100000000E-03 0.  1.
         11    1    3    3    0    0  0.24004687987E-01 -0.24690992180E-01 -0.36562397985E-01  0.50228878224E-01  0.51100000000E-03 0. -1.
</event>
<event>
 8    1  0.2877139E+004  0.1043930E+01  0.7957747E-01            NaN
         13   -1    0    0    0    0  0.00000000000E+00  0.00000000000E+00  0.74505805969E-08  0.10566000000E+00  0.10566000000E+00 0. -1.
     999900   -1    0    0    0    0 -0.00000000000E+00 -0.00000000000E+00 -0.74505805969E-08  0.93827000000E+00  0.93827000000E+00 0. -1.
     999902    2    1    2    0    0  0.97534998847E-03  0.30580325609E-02 -0.13191961765E-01  0.10303531548E+01  0.10302637006E+01 0.  0.
     999903    2    3    3    0    0  0.10749143942E+00 -0.70222262298E-01  0.31753726409E-01  0.13977143826E+00  0.45190487284E-01 0.  0.
         14    1    1    2    0    0 -0.97534998847E-03 -0.30580325609E-02  0.13191961765E-01  0.13576845214E-01  0.00000000000E+00 0. -1.
     999901    1    3    3    0    0 -0.10651608944E+00  0.73280294859E-01 -0.44945688174E-01  0.89058171653E+00  0.88000000000E+00 0. -1.
        -11    1    4    4    0    0  0.26927657779E-01 -0.42857628145E-01  0.66042904823E-02  0.51046574983E-01  0.51100000000E-03 0.  1.
         11    1    4    4    0    0  0.80563781646E-01 -0.27364634153E-01  0.25149435926E-01  0.88724863278E-01  0.51100000000E-03 0. -1.
</event>
<event>
 8    1  0.2877139E+004  0.1043930E+01  0.7957747E-01            NaN
         13   -1    0    0    0    0  0.00000000000E+00  0.00000000000E+00  0.74505805969E-08  0.10566000000E+00  0.10566000000E+00 0.  1.
     999900   -1    0    0    0    0 -0.00000000000E+00 -0.00000000000E+00 -0.74505805969E-08  0.93827000000E+00  0.93827000000E+00 0. -1.
     999902    2    1    2    0    0  0.13360562961E-01  0.77247058443E-02 -0.14345227122E-02  0.10284305297E+01  0.10283137269E+01 0.  0.
     999903    2    3    3    0    0 -0.23387685649E-01  0.90890137221E-01 -0.92543256799E-01  0.13906686724E+00  0.44354687460E-01 0.  0.
         14    1    1    2    0    0 -0.13360562961E-01 -0.77247058443E-02  0.14345227122E-02  0.15499470263E-01  0.00000000000E+00 0. -1.
     999901    1    3    3    0    0  0.36748248610E-01 -0.83165431376E-01  0.91108734087E-01  0.88936366250E+00  0.88000000000E+00 0.  1.
        -11    1    4    4    0    0 -0.14315895265E-01  0.73072138647E-02 -0.30833817999E-01  0.34775360316E-01  0.51100000000E-03 0. -1.
         11    1    4    4    0    0 -0.90717903835E-02  0.83582923356E-01 -0.61709438800E-01  0.10429150692E+00  0.51100000000E-03 0.  1.
</event>
<event>
 8    1  0.2877139E+004  0.1043930E+01  0.7957747E-01            NaN
         13   -1    0    0    0    0  0.00000000000E+00  0.00000000000E+00  0.74505805969E-08  0.10566000000E+00  0.10566000000E+00 0.  1.
     999900   -1    0    0    0    0 -0.00000000000E+00 -0.00000000000E+00 -0.74505805969E-08  0.93827000000E+00  0.93827000000E+00 0. -1.
     999902    2    1    2    0    0 -0.91854759483E-02 -0.92269845322E-02 -0.13937758922E-02  0.10308360005E+01  0.10307528351E+01 0.  0.
     999903    2    3    3    0    0  0.67157598430E-02 -0.13245783994E+00  0.20686511310E-01  0.14183305780E+00  0.45809428533E-01 0.  0.
         14    1    1    2    0    0  0.91854759483E-02  0.92269845322E-02  0.13937758922E-02  0.13093999511E-01  0.00000000000E+00 0. -1.
     999901    1    3    3    0    0 -0.15901235791E-01  0.12323085541E+00 -0.22080287202E-01  0.88900294269E+00  0.88000000000E+00 0. -1.
        -11    1    4    4    0    0  0.12794323221E-01 -0.28043999095E-01 -0.10700614523E-01  0.32633186545E-01  0.51100000000E-03 0.  1.
         11    1    4    4    0    0 -0.60785633783E-02 -0.10441384085E+00  0.31387125833E-01  0.10919987126E+00  0.51100000000E-03 0. -1.
</event>
<event>
 8    1  0.2877139E+004  0.1043930E+01  0.7957747E-01            NaN
         13   -1    0    0    0    0  0.00000000000E+00  0.00000000000E+00  0.74505805969E-08  0.10566000000E+00  0.10566000000E+00 0. -1.
     999900   -1    0    0    0    0 -0.00000000000E+00 -0.00000000000E+00 -0.74505805969E-08  0.93827000000E+00  0.93827000000E+00 0.  1.
     999902    2    1    2    0    0 -0.13681499836E-01  0.70087465760E-03  0.57771544373E-02  0.10290622437E+01  0.10289548344E+01 0.  0.
     999903    2    3    3    0    0  0.45427844342E-02 -0.10793505824E+00  0.77275956171E-01  0.13931735383E+00  0.42037340409E-01 0.  0.
         14    1    1    2    0    0  0.13681499836E-01 -0.70087465760E-03 -0.57771544373E-02  0.14867756268E-01  0.00000000000E+00 0.  1.
     999901    1    3    3    0    0 -0.18224284270E-01  0.10863593290E+00 -0.71498801734E-01  0.88974488990E+00  0.88000000000E+00 0.  1.
        -11    1    4    4    0    0 -0.20042260644E-02 -0.90369678283E-02  0.26248417317E-01  0.27837461132E-01  0.51100000000E-03 0.  1.
         11    1    4    4    0    0  0.65470104986E-02 -0.98898090413E-01  0.51027538854E-01  0.11147989270E+00  0.51100000000E-03 0. -1.
</event>
<event>
 8    1  0.2877139E+004  0.1043930E+01  0.7957747E-01            NaN
         13   -1    0    0    0    0  0.00000000000E+00  0.00000000000E+00  0.74505805969E-08  0.10566000000E+00  0.10566000000E+00 0. -1.
     999900   -1    0    0    0    0 -0.00000000000E+00 -0.00000000000E+00 -0.74505805969E-08  0.93827000000E+00  0.93827000000E+00 0.  1.
     999902    2    1    2    0    0  0.12224238052E-01  0.22110206564E-02 -0.52588311794E-02  0.10304401552E+01  0.10303518513E+01 0.  0.
     999903    2    3    3    0    0 -0.62114944409E-01 -0.72416608480E-01  0.90794575088E-01  0.13896842037E+00  0.44341126424E-01 0.  0.
         14    1    1    2    0    0 -0.12224238052E-01 -0.22110206564E-02  0.52588311794E-02  0.13489844835E-01  0.00000000000E+00 0.  1.
     999901    1    3    3    0    0  0.74339182461E-01  0.74627629137E-01 -0.96053406267E-01  0.89147173479E+00  0.88000000000E+00 0.  1.
        -11    1    4    4    0    0 -0.39363450479E-01 -0.65231036094E-01  0.85504449157E-01  0.11452441334E+00  0.51100000000E-03 0. -1.
         11    1    4    4    0    0 -0.22751493930E-01 -0.71855723857E-02  0.52901259310E-02  0.24444007034E-01  0.51100000000E-03 0.  1.
</event>
<event>
 8    1  0.2877139E+004  0.1043930E+01  0.7957747E-01            NaN
         13   -1    0    0    0    0  0.00000000000E+00  0.00000000000E+00  0.74505805969E-08  0.10566000000E+00  0.10566000000E+00 0.  1.
     999900   -1    0    0    0    0 -0.00000000000E+00 -0.00000000000E+00 -0.74505805969E-08  0.93827000000E+00  0.93827000000E+00 0. -1.
     999902    2    1    2    0    0  0.87157599165E-03 -0.13964893440E-01 -0.14819924032E-02  0.10298596697E+01  0.10297635481E+01 0.  0.
     999903    2    3    3    0    0  0.87446401280E-02  0.11904073964E+00  0.53387963688E-01  0.13814043380E+00  0.44557135904E-01 0.  0.
         14    1    1    2    0    0 -0.87157599165E-03  0.13964893440E-01  0.14819924032E-02  0.14070330308E-01  0.00000000000E+00 0.  1.
     999901    1    3    3    0    0 -0.78730641364E-02 -0.13300563308E+00 -0.54869956091E-01  0.89171923589E+00  0.88000000000E+00 0. -1.
        -11    1    4    4    0    0  0.37971699915E-02  0.11177318065E+00  0.34075439323E-01  0.11691475142E+00  0.51100000000E-03 0. -1.
         11    1    4    4    0    0  0.49474701365E-02  0.72675589864E-02  0.19312524365E-01  0.21225682385E-01  0.51100000000E-03 0.  1.
</event>
<event>
 8    1  0.2877139E+004  0.1043930E+01  0.7957747E-01            NaN
         13   -1    0    0    0    0  0.00000000000E+00  0.00000000000E+00  0.74505805969E-08  0.10566000000E+00  0.10566000000E+00 0.  1.
     999900   -1    0    0    0    0 -0.00000000000E+00 -0.00000000000E+00 -0.74505805969E-08  0.93827000000E+00  0.93827000000E+00 0. -1.
     999902    2    1    2    0    0  0.11365337005E-01  0.39669922942E-03 -0.73817012370E-02  0.10303720588E+01  0.10302828553E+01 0.  0.
     999903    2    3    3    0    0 -0.10380880934E-01  0.11609730401E+00  0.63588686610E-01  0.13970022034E+00  0.43431368974E-01 0.  0.
         14    1    1    2    0    0 -0.11365337005E-01 -0.39669922942E-03  0.73817012370E-02  0.13557941166E-01  0.00000000000E+00 0.  1.
     999901    1    3    3    0    0  0.21746217939E-01 -0.11570060478E+00 -0.70970387847E-01  0.89067183850E+00  0.88000000000E+00 0. -1.
        -11    1    4    4    0    0 -0.39673912199E-02  0.46698121136E-01  0.50292916073E-01  0.68746587107E-01  0.51100000000E-03 0. -1.
         11    1    4    4    0    0 -0.64134897143E-02  0.69399182870E-01  0.13295770537E-01  0.70953633230E-01  0.51100000000E-03 0.  1.
</event>
<event>
 8    1  0.2877139E+004  0.1043930E+01  0.7957747E-01            NaN
         13   -1    0    0    0    0  0.00000000000E+00  0.00000000000E+00  0.74505805969E-08  0.10566000000E+00  0.10566000000E+00 0. -1.
     999900   -1    0    0    0    0 -0.00000000000E+00 -0.00000000000E+00 -0.74505805969E-08  0.93827000000E+00  0.93827000000E+00 0.  1.
     999902    2    1    2    0    0  0.98546712216E-02 -0.63142841376E-02  0.64542255051E-02  0.10305643068E+01  0.10304776313E+01 0.  0.
     999903    2    3    3    0    0  0.21284822928E-01  0.57047362163E-01 -0.11718815057E+00  0.13959136454E+00  0.45224343037E-01 0.  0.
         14    1    1    2    0    0 -0.98546712216E-02  0.63142841376E-02 -0.64542255051E-02  0.13365693245E-01  0.00000000000E+00 0.  1.
     999901    1    3    3    0    0 -0.11430151707E-01 -0.63361646301E-01  0.12364237608E+00  0.89097294221E+00  0.88000000000E+00 0. -1.
        -11    1    4    4    0    0  0.16395122127E-01  0.26269414263E-01 -0.98490705907E-01  0.10324515692E+00  0.51100000000E-03 0. -1.
         11    1    4    4    0    0  0.48897008016E-02  0.30777947900E-01 -0.18697444667E-01  0.36346207628E-01  0.51100000000E-03 0.  1.
</event>
<event>
 8    1  0.2877139E+004  0.1043930E+01  0.7957747E-01            NaN
         13   -1    0    0    0    0  0.00000000000E+00  0.00000000000E+00  0.74505805969E-08  0.10566000000E+00  0.10566000000E+00 0.  1.
     999900   -1    0    0    0    0 -0.00000000000E+00 -0.00000000000E+00 -0.74505805969E-08  0.93827000000E+00  0.93827000000E+00 0. -1.
     999902    2    1    2    0    0 -0.11549482306E-01 -0.90465502192E-02 -0.70617197642E-03  0.10292422741E+01  0.10291374687E+01 0.  0.
     999903    2    3    3    0    0 -0.61654197853E-01  0.58250944567E-01  0.10114556453E+00  0.13940340582E+00  0.44815975648E-01 0.  0.
         14    1    1    2    0    0  0.11549482306E-01  0.90465502192E-02  0.70617197642E-03  0.14687725871E-01  0.00000000000E+00 0.  1.
     999901    1    3    3    0    0  0.50104715547E-01 -0.67297494787E-01 -0.10185173651E+00  0.88983886831E+00  0.88000000000E+00 0. -1.
        -11    1    4    4    0    0 -0.23575073734E-01  0.38385547317E-01  0.23845908508E-01  0.50971784528E-01  0.51100000000E-03 0. -1.
         11    1    4    4    0    0 -0.38079124119E-01  0.19865397251E-01  0.77299656025E-01  0.88431621291E-01  0.51100000000E-03 0.  1.
</event>
<event>
 8    1  0.2877139E+004  0.1043930E+01  0.7957747E-01            NaN
         13   -1    0    0    0    0  0.00000000000E+00  0.00000000000E+00  0.74505805969E-08  0.10566000000E+00  0.10566000000E+00 0. -1.
     999900   -1    0    0    0    0 -0.00000000000E+00 -0.00000000000E+00 -0.74505805969E-08  0.93827000000E+00  0.93827000000E+00 0.  1.
     999902    2    1    2    0    0  0.10934328899E-01  0.72895235319E-02 -0.16169977059E-02  0.10306894795E+01  0.10306044303E+01 0.  0.
     999903    2    3    3    0    0  0.33660403393E-01  0.12397068590E+00 -0.39925997794E-01  0.14187085480E+00  0.45072169040E-01 0.  0.
         14    1    1    2    0    0 -0.10934328899E-01 -0.72895235319E-02  0.16169977059E-02  0.13240520510E-01  0.00000000000E+00 0. -1.
     999901    1    3    3    0    0 -0.22726074494E-01 -0.11668116237E+00  0.38309000088E-01  0.88881862469E+00  0.88000000000E+00 0.  1.
        -11    1    4    4    0    0  0.15472119251E-01  0.66723236259E-01  0.21528583672E-02  0.68529356126E-01  0.51100000000E-03 0.  1.
         11    1    4    4    0    0  0.18188284142E-01  0.57247449641E-01 -0.42078856161E-01  0.73341498671E-01  0.51100000000E-03 0. -1.
</event>
<event>
 8    1  0.2877139E+004  0.1043930E+01  0.7957747E-01            NaN
         13   -1    0    0    0    0  0.00000000000E+00  0.00000000000E+00  0.74505805969E-08  0.10566000000E+00  0.10566000000E+00 0.  1.
     999900   -1    0    0    0    0 -0.00000000000E+00 -0.00000000000E+00 -0.74505805969E-08  0.93827000000E+00  0.93827000000E+00 0.  1.
     999902    2    1    2    0    0  0.50458699263E-02  0.49191683043E-02 -0.12027818275E-01  0.10299898625E+01  0.10298955236E+01 0.  0.
     999903    2    3    3    0    0 -0.80428778681E-01  0.88265777907E-01  0.55358966261E-01  0.13937571959E+00  0.45840376037E-01 0.  0.
         14    1    1    2    0    0 -0.50458699263E-02 -0.49191683043E-02  0.12027818275E-01  0.13940137466E-01  0.00000000000E+00 0. -1.
     999901    1    3    3    0    0  0.85474648608E-01 -0.83346609603E-01 -0.67386784536E-01  0.89061414295E+00  0.88000000000E+00 0. -1.
        -11    1    4    4    0    0 -0.61262883503E-01  0.33375831902E-01  0.29848794658E-01  0.75883454809E-01  0.51100000000E-03 0. -1.
         11    1    4    4    0    0 -0.19165895179E-01  0.54889946005E-01  0.25510171603E-01  0.63492264778E-01  0.51100000000E-03 0.  1.
</event>
<event>
 8    1  0.2877139E+004  0.1043930E+01  0.7957747E-01            NaN
         13   -1    0    0    0    0  0.00000000000E+00  0.00000000000E+00  0.74505805969E-08  0.10566000000E+00  0.10566000000E+00 0.  1.
     999900   -1    0    0    0    0 -0.00000000000E+00 -0.00000000000E+00 -0.74505805969E-08  0.93827000000E+00  0.93827000000E+00 0.  1.
     999902    2    1    2    0    0  0.54786677133E-02  0.61348144917E-02 -0.11565408912E-01  0.10297380857E+01  0.10296402841E+01 0.  0.
     999903    2    3    3    0    0 -0.97263375259E-01 -0.40779821059E-01  0.77031990445E-01  0.13810676636E+00  0.44904269171E-01 0.  0.
         14    1    1    2    0    0 -0.54786677133E-02 -0.61348144917E-02  0.11565408912E-01  0.14191914320E-01  0.00000000000E+00 0.  1.
     999901    1    3    3    0    0  0.10274204297E+00  0.46914635551E-01 -0.88597399357E-01  0.89163131932E+00  0.88000000000E+00 0.  1.
        -11    1    4    4    0    0 -0.74013334623E-01 -0.12304925194E-01  0.65436120817E-01  0.99556676896E-01  0.51100000000E-03 0. -1.
         11    1    4    4    0    0 -0.23250040636E-01 -0.28474895865E-01  0.11595869627E-01  0.38550089462E-01  0.51100000000E-03 0.  1.
</event>
<event>
 8    1  0.2877139E+004  0.1043930E+01  0.7957747E-01            NaN
         13   -1    0    0    0    0  0.00000000000E+00  0.00000000000E+00  0.74505805969E-08  0.10566000000E+00  0.10566000000E+00 0. -1.
     999900   -1    0    0    0    0 -0.00000000000E+00 -0.00000000000E+00 -0.74505805969E-08  0.93827000000E+00  0.93827000000E+00 0. -1.
     999902    2    1    2    0    0  0.35603249344E-02 -0.63117344300E-02 -0.10219136566E-01  0.10314022445E+01  0.10313261586E+01 0.  0.
     999903    2    3    3    0    0  0.10919706931E+00  0.72319433215E-01 -0.29728413608E-01  0.14138955125E+00  0.44194188106E-01 0.  0.
         14    1    1    2    0    0 -0.35603249344E-02  0.63117344300E-02  0.10219136566E-01  0.12527755477E-01  0.00000000000E+00 0. -1.
     999901    1    3    3    0    0 -0.10563674437E+00 -0.78631167645E-01  0.19509277043E-01  0.89001269327E+00  0.88000000000E+00 0.  1.
        -11    1    4    4    0    0  0.78934641001E-01  0.31156626519E-01 -0.30818320346E-01  0.90285341645E-01  0.51100000000E-03 0.  1.
         11    1    4    4    0    0  0.30262428307E-01  0.41162806696E-01  0.10899067377E-02  0.51104209609E-01  0.51100000000E-03 0. -1.
</event>
<event>
 8    1  0.2877139E+004  0.1043930E+01  0.7957747E-01            NaN
         13   -1    0    0    0    0  0.00000000000E+00  0.00000000000E+00  0.74505805969E-08  0.10566000000E+00  0.10566000000E+00 0.  1.
     999900   -1    0    0    0    0 -0.00000000000E+00 -0.00000000000E+00 -0.74505805969E-08  0.93827000000E+00  0.93827000000E+00 0. -1.
     999902    2    1    2    0    0 -0.11887265681E-01  0.62586991625E-02  0.98007287446E-03  0.10304600726E+01  0.10303720310E+01 0.  0.
     999903    2    3    3    0    0  0.33237839304E-01 -0.15035843070E-01  0.12745600116E+00  0.14001866913E+00  0.45048473156E-01 0.  0.
         14    1    1    2    0    0  0.11887265681E-01 -0.62586991625E-02 -0.98007287446E-03  0.13469927373E-01  0.00000000000E+00 0.  1.
     999901    1    3    3    0    0 -0.45125104985E-01  0.21294542233E-01 -0.12647592829E+00  0.89044140350E+00  0.88000000000E+00 0. -1.
        -11    1    4    4    0    0  0.42997149256E-01 -0.13891010787E-01  0.11806377480E+00  0.12641610287E+00  0.51100000000E-03 0.  1.
         11    1    4    4    0    0 -0.97593099517E-02 -0.11448322828E-02  0.93922263675E-02  0.13602566259E-01  0.51100000000E-03 0. -1.
</event>
<event>
 8    1  0.2877139E+004  0.1043930E+01  0.7957747E-01            NaN
         13   -1    0    0    0    0  0.00000000000E+00  0.00000000000E+00  0.74505805969E-08  0.10566000000E+00  0.10566000000E+00 0. -1.
     999900   -1    0    0    0    0 -0.00000000000E+00 -0.00000000000E+00 -0.74505805969E-08  0.93827000000E+00  0.93827000000E+00 0.  1.
     999902    2    1    2    0    0 -0.13067822257E-01  0.22289630278E-02  0.98284348174E-02  0.10274274431E+01  0.10272949023E+01 0.  0.
     999903    2    3    3    0    0  0.35782789490E-01 -0.38421882998E-01 -0.11727125543E+00  0.13602786665E+00  0.44658527048E-01 0.  0.
         14    1    1    2    0    0  0.13067822257E-01 -0.22289630278E-02 -0.98284348174E-02  0.16502556944E-01  0.00000000000E+00 0.  1.
     999901    1    3    3    0    0 -0.48850611747E-01  0.40650846026E-01  0.12709969025E+00  0.89139957640E+00  0.88000000000E+00 0. -1.
        -11    1    4    4    0    0  0.71014602000E-02 -0.37165359916E-01 -0.83670613916E-01  0.91829883310E-01  0.51100000000E-03 0. -1.
         11    1    4    4    0    0  0.28681329290E-01 -0.12565230820E-02 -0.33600641518E-01  0.44197983342E-01  0.51100000000E-03 0.  1.
</event>
<event>
 8    1  0.2877139E+004  0.1043930E+01  0.7957747E-01            NaN
         13   -1    0    0    0    0  0.00000000000E+00  0.00000000000E+00  0.74505805969E-08  0.10566000000E+00  0.10566000000E+00 0. -1.
     999900   -1    0    0    0    0 -0.00000000000E+00 -0.00000000000E+00 -0.74505805969E-08  0.93827000000E+00  0.93827000000E+00 0. -1.
     999902    2    1    2    0    0 -0.95258749666E-02 -0.73808165215E-02  0.65243876088E-02  0.10302264829E+01  0.10301353405E+01 0.  0.
     999903    2    3    3    0    0 -0.30399999361E-01 -0.12936494207E+00  0.18517240196E-01  0.14148597836E+00  0.44899283834E-01 0.  0.
         14    1    1    2    0    0  0.95258749666E-02  0.73808165215E-02 -0.65243876088E-02  0.13703517069E-01  0.00000000000E+00 0.  1.
     999901    1    3    3    0    0  0.20874124395E-01  0.12198412555E+00 -0.11992852587E-01  0.88874050457E+00  0.88000000000E+00 0. -1.
        -11    1    4    4    0    0 -0.33095468386E-01 -0.95244509676E-01 -0.33137896927E-02  0.10088641620E+00  0.51100000000E-03 0. -1.
         11    1    4    4    0    0  0.26954690247E-02 -0.34120432397E-01  0.21831029889E-01  0.40599562155E-01  0.51100000000E-03 0.  1.
</event>
<event>
 8    1  0.2877139E+004  0.1043930E+01  0.7957747E-01            NaN
         13   -1    0    0    0    0  0.00000000000E+00  0.00000000000E+00  0.74505805969E-08  0.10566000000E+00  0.10566000000E+00 0. -1.
     999900   -1    0    0    0    0 -0.00000000000E+00 -0.00000000000E+00 -0.74505805969E-08  0.93827000000E+00  0.93827000000E+00 0.  1.
     999902    2    1    2    0    0 -0.13404980836E-01  0.31139747509E-02  0.29860146913E-02  0.10298478612E+01  0.10297515771E+01 0.  0.
     999903    2    3    3    0    0  0.69732538696E-01  0.31360784919E-01 -0.10673716146E+00  0.13869753446E+00  0.44699649254E-01 0.  0.
         14    1    1    2    0    0  0.13404980836E-01 -0.31139747509E-02 -0.29860146913E-02  0.14082138819E-01  0.00000000000E+00 0.  1.
     999901    1    3    3    0    0 -0.83137519532E-01 -0.28246810168E-01  0.10972317615E+00  0.89115032673E+00  0.88000000000E+00 0.  1.
        -11    1    4    4    0    0  0.35830382087E-01  0.11123870183E-01 -0.86587467801E-01  0.94367406818E-01  0.51100000000E-03 0. -1.
         11    1    4    4    0    0  0.33902156609E-01  0.20236914735E-01 -0.20149693660E-01  0.44330127637E-01  0.51100000000E-03 0.  1.
</event>
<event>
 8    1  0.2877139E+004  0.1043930E+01  0.7957747E-01            NaN
         13   -1    0    0    0    0  0.00000000000E+00  0.00000000000E+00  0.74505805969E-08  0.10566000000E+00  0.10566000000E+00 0.  1.
     999900   -1    0    0    0    0 -0.00000000000E+00 -0.00000000000E+00 -0.74505805969E-08  0.93827000000E+00  0.93827000000E+00 0.  1.
     999902    2    1    2    0    0  0.41090055678E-02 -0.65110454577E-02 -0.11785995291E-01  0.10298520980E+01  0.10297558722E+01 0.  0.
     999903    2    3    3    0    0  0.14064391424E-01 -0.41728926213E-01 -0.12635278366E+00  0.14167139689E+00  0.46547270246E-01 0.  0.
         14    1    1    2    0    0 -0.41090055678E-02  0.65110454577E-02  0.11785995291E-01  0.14077902000E-01  0.00000000000E+00 0.  1.
     999901    1    3    3    0    0 -0.99553858561E-02  0.35217880755E-01  0.11456678837E+00  0.88818070111E+00  0.88000000000E+00 0. -1.
        -11    1    4    4    0    0  0.22283386321E-01 -0.29560962277E-01 -0.41743489497E-01  0.55795876488E-01  0.51100000000E-03 0. -1.
         11    1    4    4    0    0 -0.82189948973E-02 -0.12167963936E-01 -0.84609294166E-01  0.85875520399E-01  0.51100000000E-03 0.  1.
</event>
<event>
 8    1  0.2877139E+004  0.1043930E+01  0.7957747E-01            NaN
         13   -1    0    0    0    0  0.00000000000E+00  0.00000000000E+00  0.74505805969E-08  0.10566000000E+00  0.10566000000E+00 0.  1.
     999900   -1    0    0    0    0 -0.00000000000E+00 -0.00000000000E+00 -0.74505805969E-08  0.93827000000E+00  0.93827000000E+00 0.  1.
     999902    2    1    2    0    0 -0.10043597477E-01 -0.52531579224E-02 -0.80334664819E-02  0.10300373364E+01  0.10299436432E+01 0.  0.
     999903    2    3    3    0    0 -0.11792746438E-01 -0.67983403419E-01 -0.11475447443E+00  0.14137119168E+00  0.45347683796E-01 0.  0.
         14    1    1    2    0    0  0.10043597477E-01  0.52531579224E-02  0.80334664819E-02  0.13892663609E-01  0.00000000000E+00 0.  1.
     999901    1    3    3    0    0  0.17491489611E-02  0.62730245497E-01  0.10672100795E+00  0.88866614471E+00  0.88000000000E+00 0. -1.
        -11    1    4    4    0    0 -0.14036309639E-01 -0.66273069005E-01 -0.73275595174E-01  0.99793344632E-01  0.51100000000E-03 0. -1.
         11    1    4    4    0    0  0.22435632011E-02 -0.17103344136E-02 -0.41478879256E-01  0.41577847046E-01  0.51100000000E-03 0.  1.
</event>
<event>
 8    1  0.2877139E+004  0.1043930E+01  0.7957747E-01            NaN
         13   -1    0    0    0    0  0.00000000000E+00  0.00000000000E+00  0.74505805969E-08  0.10566000000E+00  0.10566000000E+00 0. -1.
     999900   -1    0    0    0    0 -0.00000000000E+00 -0.00000000000E+00 -0.74505805969E-08  0.93827000000E+00  0.93827000000E+00 0.  1.
     999902    2    1    2    0    0  0.86833101524E-02  0.10217006840E-01  0.43095855970E-02  0.10298459796E+01  0.10297496696E+01 0.  0.
     999903    2    3    3    0    0 -0.95062829736E-01 -0.47850384300E-01 -0.76059885341E-01  0.13822143115E+00  0.44648146610E-01 0.  0.
         14    1    1    2    0    0 -0.86833101524E-02 -0.10217006840E-01 -0.43095855970E-02  0.14084020448E-01  0.00000000000E+00 0. -1.
     999901    1    3    3    0    0  0.10374613989E+00  0.58067391141E-01  0.80369470938E-01  0.89162454840E+00  0.88000000000E+00 0. -1.
        -11    1    4    4    0    0 -0.73429035844E-01 -0.50844754101E-01 -0.74520905953E-01  0.11632127436E+00  0.51100000000E-03 0. -1.
         11    1    4    4    0    0 -0.21633793892E-01  0.29943698004E-02 -0.15389793876E-02  0.21900156785E-01  0.51100000000E-03 0.  1.
</event>
<event>
 8    1  0.2877139E+004  0.1043930E+01  0.7957747E-01            NaN
         13   -1    0    0    0    0  0.00000000000E+00  0.00000000000E+00  0.74505805969E-08  0.10566000000E+00  0.10566000000E+00 0. -1.
     999900   -1    0    0    0    0 -0.00000000000E+00 -0.00000000000E+00 -0.74505805969E-08  0.93827000000E+00  0.93827000000E+00 0. -1.
     999902    2    1    2    0    0 -0.13009529959E-01 -0.26390803489E-02 -0.41005617081E-02  0.10300365763E+01  0.10299428729E+01 0.  0.
     999903    2    3    3    0    0  0.93394280969E-01  0.18973483102E-01 -0.90881772974E-01  0.13912701162E+00  0.44881442974E-01 0.  0.
         14    1    1    2    0    0  0.13009529959E-01  0.26390803489E-02  0.41005617081E-02  0.13893423666E-01  0.00000000000E+00 0. -1.
     999901    1    3    3    0    0 -0.10640381093E+00 -0.21612563451E-01  0.86781211266E-01  0.89090956472E+00  0.88000000000E+00 0.  1.
        -11    1    4    4    0    0  0.67091757023E-01 -0.17648432120E-02 -0.78816929447E-01  0.10352192048E+00  0.51100000000E-03 0. -1.
         11    1    4    4    0    0  0.26302523946E-01  0.20738326314E-01 -0.12064843527E-01  0.35605091133E-01  0.51100000000E-03 0.  1.
</event>
<event>
 7    1  0.2877139E+004  0.1043930E+01  0.7957747E-01            NaN
         13   -1    0    0    0    0  0.00000000000E+00  0.00000000000E+00  0.74505805969E-08  0.10566000000E+00  0.10566000000E+00 0.  1.
     999900   -1    0    0    0    0 -0.00000000000E+00 -0.00000000000E+00 -0.74505805969E-08  0.93827000000E+00  0.93827000000E+00 0.  1.
     999903    2    1    2    0    0 -0.18780949128E-01 -0.20920642292E-01 -0.55065039751E-01  0.77136641253E-01  0.46124890210E-01 0.  0.
         14    1    1    2    0    0 -0.60654772437E-01 -0.46714327628E-02 -0.47132798662E-01  0.76956639825E-01  0.00000000000E+00 0.  1.
     999901    1    1    2    0    0  0.79435721565E-01  0.25592075054E-01  0.10219783841E+00  0.88983671892E+00  0.88000000000E+00 0.  1.
        -11    1    3    3    0    0  0.49555661430E-02 -0.22788571251E-01 -0.46144408753E-01  0.51705359448E-01  0.51100000000E-03 0. -1.
         11    1    3    3    0    0 -0.23736515271E-01  0.18679289599E-02 -0.89206309979E-02  0.25431281805E-01  0.51100000000E-03 0.  1.
</event>
<event>
 8    1  0.2877139E+004  0.1043930E+01  0.7957747E-01            NaN
         13   -1    0    0    0    0  0.00000000000E+00  0.00000000000E+00  0.74505805969E-08  0.10566000000E+00  0.10566000000E+00 0.  1.
     999900   -1    0    0    0    0 -0.00000000000E+00 -0.00000000000E+00 -0.74505805969E-08  0.93827000000E+00  0.93827000000E+00 0. -1.
     999902    2    1    2    0    0 -0.13367591456E-01  0.12417009584E-02  0.34181463698E-02  0.10300765511E+01  0.10299833897E+01 0.  0.
     999903    2    3    3    0    0 -0.13296808895E+00 -0.48329972380E-02 -0.19909720335E-01  0.14165921090E+00  0.44351601179E-01 0.  0.
         14    1    1    2    0    0  0.13367591456E-01 -0.12417009584E-02 -0.34181463698E-02  0.13853448928E-01  0.00000000000E+00 0. -1.
     999901    1    3    3    0    0  0.11960049749E+00  0.60746981964E-02  0.23327866705E-01  0.88841734017E+00  0.88000000000E+00 0.  1.
        -11    1    4    4    0    0 -0.11173052611E+00  0.93959997063E-02 -0.53902499414E-02  0.11225556196E+00  0.51100000000E-03 0. -1.
         11    1    4    4    0    0 -0.21237562840E-01 -0.14228996944E-01 -0.14519470394E-01  0.29403648939E-01  0.51100000000E-03 0.  1.
</event>
<event>
 8    1  0.2877139E+004  0.1043930E+01  0.7957747E-01            NaN
         13   -1    0    0    0    0  0.00000000000E+00  0.00000000000E+00  0.74505805969E-08  0.10566000000E+00  0.10566000000E+00 0.  1.
     999900   -1    0    0    0    0 -0.00000000000E+00 -0.00000000000E+00 -0.74505805969E-08  0.93827000000E+00  0.93827000000E+00 0. -1.
     999902    2    1    2    0    0 -0.86862447976E-02 -0.11418190345E-01  0.10279380528E-02  0.10295465868E+01  0.10294461092E+01 0.  0.
     999903    2    3    3    0    0 -0.11783712685E+00  0.56400710014E-01  0.18789035890E-01  0.14003617374E+00  0.46802494920E-01 0.  0.
         14    1    1    2    0    0  0.86862447976E-02  0.11418190345E-01 -0.10279380528E-02  0.14383413228E-01  0.00000000000E+00 0. -1.
     999901    1    3    3    0    0  0.10915088205E+00 -0.67818900359E-01 -0.17761097837E-01  0.88951041303E+00  0.88000000000E+00 0.  1.
        -11    1    4    4    0    0 -0.54123810717E-01  0.41664898896E-01  0.28328845934E-01  0.73946841173E-01  0.51100000000E-03 0.  1.
         11    1    4    4    0    0 -0.63713316136E-01  0.14735811118E-01 -0.95398100436E-02  0.66089332566E-01  0.51100000000E-03 0. -1.
</event>
<event>
 8    1  0.2877139E+004  0.1043930E+01  0.7957747E-01            NaN
         13   -1    0    0    0    0  0.00000000000E+00  0.00000000000E+00  0.74505805969E-08  0.10566000000E+00  0.10566000000E+00 0.  1.
     999900   -1    0    0    0    0 -0.00000000000E+00 -0.00000000000E+00 -0.74505805969E-08  0.93827000000E+00  0.93827000000E+00 0.  1.
     999902    2    1    2    0    0 -0.10733161974E-01  0.64340962929E-02 -0.56000894575E-02  0.10302201728E+01  0.10301289458E+01 0.  0.
     999903    2    3    3    0    0  0.87494520843E-01  0.55984524906E-01 -0.82550875692E-01  0.14003741279E+00  0.44791424358E-01 0.  0.
         14    1    1    2    0    0  0.10733161974E-01 -0.64340962929E-02  0.56000894575E-02  0.13709827242E-01  0.00000000000E+00 0. -1.
     999901    1    3    3    0    0 -0.98227682817E-01 -0.49550428613E-01  0.76950786235E-01  0.89018275997E+00  0.88000000000E+00 0. -1.
        -11    1    4    4    0    0  0.34520064611E-01  0.37264836858E-02 -0.10062984645E-01  0.36153095613E-01  0.51100000000E-03 0.  1.
         11    1    4    4    0    0  0.52974456232E-01  0.52258041220E-01 -0.72487891048E-01  0.10388431717E+00  0.51100000000E-03 0. -1.
</event>
<event>
 8    1  0.2877139E+004  0.1043930E+01  0.7957747E-01            NaN
         13   -1    0    0    0    0  0.00000000000E+00  0.00000000000E+00  0.74505805969E-08  0.10566000000E+00  0.10566000000E+00 0.  1.
     999900   -1    0    0    0    0 -0.00000000000E+00 -0.00000000000E+00 -0.74505805969E-08  0.93827000000E+00  0.93827000000E+00 0.  1.
     999902    2    1    2    0    0  0.27904128129E-02  0.65164306519E-02  0.11783749998E-01  0.10301783806E+01  0.10300865929E+01 0.  0.
     999903    2    3    3    0    0 -0.11582234650E+00 -0.18758426100E-01  0.63202082277E-01  0.14037410440E+00  0.44087316573E-01 0.  0.
         14    1    1    2    0    0 -0.27904128129E-02 -0.65164306519E-02 -0.11783749998E-01  0.13751619400E-01  0.00000000000E+00 0. -1.
     999901    1    3    3    0    0  0.11861275931E+00  0.25274856752E-01 -0.51418332279E-01  0.88980427620E+00  0.88000000000E+00 0. -1.
        -11    1    4    4    0    0 -0.10472633910E+00 -0.28235120372E-01  0.63655370490E-01  0.12576603452E+00  0.51100000000E-03 0.  1.
         11    1    4    4    0    0 -0.11096007395E-01  0.94766942721E-02 -0.45328821266E-03  0.14608069881E-01  0.51100000000E-03 0. -1.
</event>
<event>
 8    1  0.2877139E+004  0.1043930E+01  0.7957747E-01            NaN
         13   -1    0    0    0    0  0.00000000000E+00  0.00000000000E+00  0.74505805969E-08  0.10566000000E+00  0.10566000000E+00 0.  1.
     999900   -1    0    0    0    0 -0.00000000000E+00 -0.00000000000E+00 -0.74505805969E-08  0.93827000000E+00  0.93827000000E+00 0.  1.
     999902    2    1    2    0    0  0.20887468275E-02  0.11180742848E-01 -0.76993666316E-02  0.10301949310E+01  0.10301033656E+01 0.  0.
     999903    2    3    3    0    0  0.31163983629E-02  0.88479405935E-01 -0.10118191593E+00  0.14187340902E+00  0.45298640862E-01 0.  0.
         14    1    1    2    0    0 -0.20887468275E-02 -0.11180742848E-01  0.76993666316E-02  0.13735069001E-01  0.00000000000E+00 0.  1.
     999901    1    3    3    0    0 -0.10276515355E-02 -0.77298663087E-01  0.93482549295E-01  0.88832152198E+00  0.88000000000E+00 0. -1.
        -11    1    4    4    0    0 -0.18209262675E-01  0.34785551455E-01 -0.56644759546E-01  0.68923883685E-01  0.51100000000E-03 0.  1.
         11    1    4    4    0    0  0.21325661038E-01  0.53693854480E-01 -0.44537156381E-01  0.72949525339E-01  0.51100000000E-03 0. -1.
</event>
<event>
 8    1  0.2877139E+004  0.1043930E+01  0.7957747E-01            NaN
         13   -1    0    0    0    0  0.00000000000E+00  0.00000000000E+00  0.74505805969E-08  0.10566000000E+00  0.10566000000E+00 0. -1.
     999900   -1    0    0    0    0 -0.00000000000E+00 -0.00000000000E+00 -0.74505805969E-08  0.93827000000E+00  0.93827000000E+00 0.  1.
     999902    2    1    2    0    0 -0.99797801128E-02  0.77896455748E-02 -0.25040260188E-02  0.10310247787E+01  0.10309440090E+01 0.  0.
     999903    2    3    3    0    0  0.18935506949E-03  0.34047657680E-01 -0.12982652650E+00  0.14141592445E+00  0.44545009350E-01 0.  0.
         14    1    1    2    0    0  0.99797801128E-02 -0.77896455748E-02  0.25040260188E-02  0.12905221253E-01  0.00000000000E+00 0. -1.
     999901    1    3    3    0    0 -0.10169135182E-01 -0.26258012105E-01  0.12732250048E+00  0.88960885429E+00  0.88000000000E+00 0. -1.
        -11    1    4    4    0    0  0.24868107561E-02  0.44821408022E-01 -0.10808601698E+00  0.11703841691E+00  0.51100000000E-03 0.  1.
         11    1    4    4    0    0 -0.22974556866E-02 -0.10773750342E-01 -0.21740509516E-01  0.24377507544E-01  0.51100000000E-03 0. -1.
</event>
<event>
 8    1  0.2877139E+004  0.1043930E+01  0.7957747E-01            NaN
         13   -1    0    0    0    0  0.00000000000E+00  0.00000000000E+00  0.74505805969E-08  0.10566000000E+00  0.10566000000E+00 0. -1.
     999900   -1    0    0    0    0 -0.00000000000E+00 -0.00000000000E+00 -0.74505805969E-08  0.93827000000E+00  0.93827000000E+00 0. -1.
     999902    2    1    2    0    0  0.55886774347E-02 -0.29258861706E-02  0.12450127741E-01  0.10299729299E+01  0.10298783600E+01 0.  0.
     999903    2    3    3    0    0 -0.38995593734E-01 -0.12656416109E+00 -0.55287072242E-02  0.14003056166E+00  0.45153608846E-01 0.  0.
         14    1    1    2    0    0 -0.55886774347E-02  0.29258861706E-02 -0.12450127741E-01  0.13957070112E-01  0.00000000000E+00 0.  1.
     999901    1    3    3    0    0  0.44584271168E-01  0.12363827492E+00  0.17978834965E-01  0.88994236823E+00  0.88000000000E+00 0. -1.
        -11    1    4    4    0    0 -0.26075865922E-01 -0.63239973986E-01  0.18847282076E-01  0.70955804949E-01  0.51100000000E-03 0.  1.
         11    1    4    4    0    0 -0.12919727812E-01 -0.63324187105E-01 -0.24375989301E-01  0.69074756711E-01  0.51100000000E-03 0. -1.
</event>
<event>
 8    1  0.2877139E+004  0.1043930E+01  0.7957747E-01            NaN
         13   -1    0    0    0    0  0.00000000000E+00  0.00000000000E+00  0.74505805969E-08  0.10566000000E+00  0.10566000000E+00 0. -1.
     999900   -1    0    0    0    0 -0.00000000000E+00 -0.00000000000E+00 -0.74505805969E-08  0.93827000000E+00  0.93827000000E+00 0. -1.
     999902    2    1    2    0    0  0.83361655222E-02  0.44325223796E-02  0.81839145040E-03  0.10344532561E+01  0.10344098464E+01 0.  0.
     999903    2    3    3    0    0 -0.67311048239E-01  0.11799902463E+00  0.14215709392E-01  0.14383586378E+00  0.45079067057E-01 0.  0.
         14    1    1    2    0    0 -0.83361655222E-02 -0.44325223796E-02 -0.81839145040E-03  0.94767438936E-02  0.00000000000E+00 0.  1.
     999901    1    3    3    0    0  0.75647213761E-01 -0.11356650225E+00 -0.13397317942E-01  0.89061739233E+00  0.88000000000E+00 0.  1.
        -11    1    4    4    0    0 -0.41822623112E-01  0.83739147093E-01 -0.10991761341E-01  0.94246785082E-01  0.51100000000E-03 0. -1.
         11    1    4    4    0    0 -0.25488425127E-01  0.34259877540E-01  0.25207470733E-01  0.49589078699E-01  0.51100000000E-03 0.  1.
</event>
<event>
 8    1  0.2877139E+004  0.1043930E+01  0.7957747E-01            NaN
         13   -1    0    0    0    0  0.00000000000E+00  0.00000000000E+00  0.74505805969E-08  0.10566000000E+00  0.10566000000E+00 0. -1.
     999900   -1    0    0    0    0 -0.00000000000E+00 -0.00000000000E+00 -0.74505805969E-08  0.93827000000E+00  0.93827000000E+00 0. -1.
     999902    2    1    2    0    0 -0.39254790992E-02 -0.96508382293E-02 -0.22336914014E-02  0.10332746050E+01  0.10332196630E+01 0.  0.
     999903    2    3    3    0    0  0.47993774919E-01 -0.12636311072E+00  0.21163899902E-01  0.14374393621E+00  0.44083674485E-01 0.  0.
         14    1    1    2    0    0  0.39254790992E-02  0.96508382293E-02  0.22336914014E-02  0.10655394970E-01  0.00000000000E+00 0.  1.
     999901    1    3    3    0    0 -0.51919254018E-01  0.11671227249E+00 -0.23397591304E-01  0.88953066882E+00  0.88000000000E+00 0. -1.
        -11    1    4    4    0    0  0.18806658105E-01 -0.10078460229E+00  0.83246845259E-02  0.10286295709E+00  0.51100000000E-03 0. -1.
         11    1    4    4    0    0  0.29187116814E-01 -0.25578508435E-01  0.12839215377E-01  0.40880979124E-01  0.51100000000E-03 0.  1.
</event>
<event>
 8    1  0.2877139E+004  0.1043930E+01  0.7957747E-01            NaN
         13   -1    0    0    0    0  0.00000000000E+00  0.00000000000E+00  0.74505805969E-08  0.10566000000E+00  0.10566000000E+00 0. -1.
     999900   -1    0    0    0    0 -0.00000000000E+00 -0.00000000000E+00 -0.74505805969E-08  0.93827000000E+00  0.93827000000E+00 0.  1.
     999902    2    1    2    0    0 -0.97590124330E-02  0.44331720235E-02 -0.88816944360E-02  0.10300096611E+01  0.10299155918E+01 0.  0.
     999903    2    3    3    0    0 -0.96276986525E-01 -0.66337374522E-01 -0.64730836217E-01  0.14118293071E+00  0.45526183375E-01 0.  0.
         14    1    1    2    0    0  0.97590124330E-02 -0.44331720235E-02  0.88816944360E-02  0.13920338858E-01  0.00000000000E+00 0.  1.
     999901    1    3    3    0    0  0.86517974092E-01  0.70770546546E-01  0.55849141781E-01  0.88882673044E+00  0.88000000000E+00 0. -1.
        -11    1    4    4    0    0 -0.85059920371E-01 -0.66991270111E-01 -0.42590960815E-01  0.11634978035E+00  0.51100000000E-03 0. -1.
         11    1    4    4    0    0 -0.11217066154E-01  0.65389558833E-03 -0.22139875403E-01  0.24833150352E-01  0.51100000000E-03 0.  1.
</event>
<event>
 8    1  0.2877139E+004  0.1043930E+01  0.7957747E-01            NaN
         13   -1    0    0    0    0  0.00000000000E+00  0.00000000000E+00  0.74505805969E-08  0.10566000000E+00  0.10566000000E+00 0. -1.
     999900   -1    0    0    0    0 -0.00000000000E+00 -0.00000000000E+00 -0.74505805969E-08  0.93827000000E+00  0.93827000000E+00 0. -1.
     999902    2    1    2    0    0 -0.11252499590E-01 -0.44179789474E-02  0.78695528504E-02  0.10295054672E+01  0.10294044102E+01 0.  0.
     999903    2    3    3    0    0  0.30228507963E-01 -0.57987916413E-01 -0.11374003024E+00  0.13856253810E+00  0.44569286979E-01 0.  0.
         14    1    1    2    0    0  0.11252499590E-01  0.44179789474E-02 -0.78695528504E-02  0.14424532820E-01  0.00000000000E+00 0.  1.
     999901    1    3    3    0    0 -0.41481007554E-01  0.53569937466E-01  0.12160958309E+00  0.89094292908E+00  0.88000000000E+00 0.  1.
        -11    1    4    4    0    0  0.38550762631E-02  0.13593981267E-02 -0.40360940560E-01  0.40570632484E-01  0.51100000000E-03 0. -1.
         11    1    4    4    0    0  0.26373431700E-01 -0.59347314540E-01 -0.73379089676E-01  0.97991905612E-01  0.51100000000E-03 0.  1.
</event>
<event>
 8    1  0.2877139E+004  0.1043930E+01  0.7957747E-01            NaN
         13   -1    0    0    0    0  0.00000000000E+00  0.00000000000E+00  0.74505805969E-08  0.10566000000E+00  0.10566000000E+00 0. -1.
     999900   -1    0    0    0    0 -0.00000000000E+00 -0.00000000000E+00 -0.74505805969E-08  0.93827000000E+00  0.93827000000E+00 0. -1.
     999902    2    1    2    0    0  0.12978219762E-01  0.14474716847E-02  0.62080382184E-02  0.10294707780E+01  0.10293692310E+01 0.  0.
     999903    2    3    3    0    0  0.12126003508E-01  0.19190643031E-01 -0.12946411665E+00  0.13889653628E+00  0.44899549541E-01 0.  0.
         14    1    1    2    0    0 -0.12978219762E-01 -0.14474716847E-02 -0.62080382184E-02  0.14459222005E-01  0.00000000000E+00 0. -1.
     999901    1    3    3    0    0  0.85221625381E-03 -0.17743171346E-01  0.13567215487E+00  0.89057424172E+00  0.88000000000E+00 0.  1.
        -11    1    4    4    0    0  0.27762321660E-01  0.11749630350E-01 -0.10253641142E+00  0.10687739287E+00  0.51100000000E-03 0. -1.
         11    1    4    4    0    0 -0.15636318152E-01  0.74410126805E-02 -0.26927705228E-01  0.32019143413E-01  0.51100000000E-03 0.  1.
</event>
<event>
 8    1  0.2877139E+004  0.1043930E+01  0.7957747E-01            NaN
         13   -1    0    0    0    0  0.00000000000E+00  0.00000000000E+00  0.74505805969E-08  0.10566000000E+00  0.10566000000E+00 0.  1.
     999900   -1    0    0    0    0 -0.00000000000E+00 -0.00000000000E+00 -0.74505805969E-08  0.93827000000E+00  0.93827000000E+00 0. -1.
     999902    2    1    2    0    0 -0.43853134991E-02  0.11265256295E-01 -0.71949434345E-02  0.10298621578E+01  0.10297660704E+01 0.  0.
     999903    2    3    3    0    0 -0.18469901645E-01  0.74419640880E-01  0.10815994031E+00  0.13997811976E+00  0.44898564644E-01 0.  0.
         14    1    1    2    0    0  0.43853134991E-02 -0.11265256295E-01  0.71949434345E-02  0.14067842226E-01  0.00000000000E+00 0.  1.
     999901    1    3    3    0    0  0.14084588146E-01 -0.63154384585E-01 -0.11535488374E+00  0.88988403802E+00  0.88000000000E+00 0. -1.
        -11    1    4    4    0    0  0.73550250610E-02  0.83686770965E-02  0.40321250153E-01  0.41835337753E-01  0.51100000000E-03 0. -1.
         11    1    4    4    0    0 -0.25824926706E-01  0.66050963784E-01  0.67838690157E-01  0.98142782003E-01  0.51100000000E-03 0.  1.
</event>
<event>
 8    1  0.2877139E+004  0.1043930E+01  0.7957747E-01            NaN
         13   -1    0    0    0    0  0.00000000000E+00  0.00000000000E+00  0.74505805969E-08  0.10566000000E+00  0.10566000000E+00 0.  1.
     999900   -1    0    0    0    0 -0.00000000000E+00 -0.00000000000E+00 -0.74505805969E-08  0.93827000000E+00  0.93827000000E+00 0.  1.
     999902    2    1    2    0    0 -0.77949466693E-03  0.12447924073E-01 -0.42027169983E-02  0.10307686454E+01  0.10306846167E+01 0.  0.
     999903    2    3    3    0    0  0.13101321694E+00 -0.12355702331E-01 -0.20030110454E-01  0.14046810897E+00  0.44865999610E-01 0.  0.
         14    1    1    2    0    0  0.77949466693E-03 -0.12447924073E-01  0.42027169983E-02  0.13161354635E-01  0.00000000000E+00 0. -1.
     999901    1    3    3    0    0 -0.13179271161E+00  0.24803626405E-01  0.15827393455E-01  0.89030053639E+00  0.88000000000E+00 0.  1.
        -11    1    4    4    0    0  0.58919698783E-01  0.16241137116E-01 -0.13804853639E-01  0.62658922305E-01  0.51100000000E-03 0. -1.
         11    1    4    4    0    0  0.72093518156E-01 -0.28596839448E-01 -0.62252568145E-02  0.77809186668E-01  0.51100000000E-03 0.  1.
</event>
<event>
 7    1  0.2877139E+004  0.1043930E+01  0.7957747E-01            NaN
         13   -1    0    0    0    0  0.00000000000E+00  0.00000000000E+00  0.74505805969E-08  0.10566000000E+00  0.10566000000E+00 0.  1.
     999900   -1    0    0    0    0 -0.00000000000E+00 -0.00000000000E+00 -0.74505805969E-08  0.93827000000E+00  0.93827000000E+00 0. -1.
     999903    2    1    2    0    0  0.61520325144E-01 -0.75174247216E-01 -0.55436074537E-01  0.12031962243E+00  0.44359162873E-01 0.  0.
         14    1    1    2    0    0  0.10566924324E-01  0.24470451884E-01 -0.23709734108E-01  0.35673721372E-01  0.00000000000E+00 0. -1.
     999901    1    1    2    0    0 -0.72087249468E-01  0.50703795332E-01  0.79145808645E-01  0.88793665620E+00  0.88000000000E+00 0.  1.
        -11    1    3    3    0    0  0.32895426501E-01 -0.46302012286E-01 -0.55848401129E-01  0.79657331465E-01  0.51100000000E-03 0. -1.
         11    1    3    3    0    0  0.28624898643E-01 -0.28872234930E-01  0.41232659148E-03  0.40662290963E-01  0.51100000000E-03 0.  1.
</event>
<event>
 8    1  0.2877139E+004  0.1043930E+01  0.7957747E-01            NaN
         13   -1    0    0    0    0  0.00000000000E+00  0.00000000000E+00  0.74505805969E-08  0.10566000000E+00  0.10566000000E+00 0. -1.
     999900   -1    0    0    0    0 -0.00000000000E+00 -0.00000000000E+00 -0.74505805969E-08  0.93827000000E+00  0.93827000000E+00 0.  1.
     999902    2    1    2    0    0  0.14243916334E-01  0.70433214001E-04  0.32010607707E-02  0.10293306540E+01  0.10292271151E+01 0.  0.
     999903    2    3    3    0    0 -0.81642601119E-01  0.97310798127E-01 -0.31086447420E-01  0.13813732705E+00  0.44504473498E-01 0.  0.
         14    1    1    2    0    0 -0.14243916334E-01 -0.70433214001E-04 -0.32010607707E-02  0.14599345993E-01  0.00000000000E+00 0. -1.
     999901    1    3    3    0    0  0.95886517453E-01 -0.97240364913E-01  0.34287508191E-01  0.89119332696E+00  0.88000000000E+00 0. -1.
        -11    1    4    4    0    0 -0.27444957592E-01  0.64743494392E-02 -0.12425971991E-02  0.28230268626E-01  0.51100000000E-03 0. -1.
         11    1    4    4    0    0 -0.54197643527E-01  0.90836448688E-01 -0.29843850221E-01  0.10990705842E+00  0.51100000000E-03 0.  1.
</event>
<event>
 8    1  0.2877139E+004  0.1043930E+01  0.7957747E-01            NaN
         13   -1    0    0    0    0  0.00000000000E+00  0.00000000000E+00  0.74505805969E-08  0.10566000000E+00  0.10566000000E+00 0.  1.
     999900   -1    0    0    0    0 -0.00000000000E+00 -0.00000000000E+00 -0.74505805969E-08  0.93827000000E+00  0.93827000000E+00 0. -1.
     999902    2    1    2    0    0 -0.47708704678E-03  0.13149474441E-02 -0.13894707132E-01  0.10299650587E+01  0.10298703814E+01 0.  0.
     999903    2    3    3    0    0 -0.71255610809E-01  0.90428758966E-01  0.63403559343E-01  0.13927662114E+00  0.46078664677E-01 0.  0.
         14    1    1    2    0    0  0.47708704678E-03 -0.13149474441E-02  0.13894707132E-01  0.13964941286E-01  0.00000000000E+00 0.  1.
     999901    1    3    3    0    0  0.70778523763E-01 -0.89113811522E-01 -0.77298266475E-01  0.89068843758E+00  0.88000000000E+00 0.  1.
        -11    1    4    4    0    0 -0.44128861443E-01  0.85144609905E-01  0.44059824084E-01  0.10553904598E+00  0.51100000000E-03 0. -1.
         11    1    4    4    0    0 -0.27126749367E-01  0.52841490617E-02  0.19343735259E-01  0.33737575154E-01  0.51100000000E-03 0.  1.
</event>
<event>
 8    1  0.2877139E+004  0.1043930E+01  0.7957747E-01            NaN
         13   -1    0    0    0    0  0.00000000000E+00  0.00000000000E+00  0.74505805969E-08  0.10566000000E+00  0.10566000000E+00 0.  1.
     999900   -1    0    0    0    0 -0.00000000000E+00 -0.00000000000E+00 -0.74505805969E-08  0.93827000000E+00  0.93827000000E+00 0. -1.
     999902    2    1    2    0    0 -0.64349456158E-02 -0.11899955869E-01 -0.88032961184E-03  0.10303729924E+01  0.10302838012E+01 0.  0.
     999903    2    3    3    0    0 -0.40262219878E-01 -0.30509914303E-01  0.12323805956E+00  0.14082479834E+00  0.45739515534E-01 0.  0.
         14    1    1    2    0    0  0.64349456158E-02  0.11899955869E-01  0.88032961184E-03  0.13557007597E-01  0.00000000000E+00 0. -1.
     999901    1    3    3    0    0  0.33827274262E-01  0.18609958434E-01 -0.12411838917E+00  0.88954819407E+00  0.88000000000E+00 0. -1.
        -11    1    4    4    0    0 -0.27476036042E-01 -0.39422942561E-01  0.66917685921E-01  0.82385306741E-01  0.51100000000E-03 0.  1.
         11    1    4    4    0    0 -0.12786183836E-01  0.89130282575E-02  0.56320373641E-01  0.58439491595E-01  0.51100000000E-03 0. -1.
</event>
<event>
 8    1  0.2877139E+004  0.1043930E+01  0.7957747E-01            NaN
         13   -1    0    0    0    0  0.00000000000E+00  0.00000000000E+00  0.74505805969E-08  0.10566000000E+00  0.10566000000E+00 0.  1.
     999900   -1    0    0    0    0 -0.00000000000E+00 -0.00000000000E+00 -0.74505805969E-08  0.93827000000E+00  0.93827000000E+00 0. -1.
     999902    2    1    2    0    0  0.19002309726E-03 -0.16836848741E-02 -0.13899186908E-01  0.10299279180E+01  0.10298327330E+01 0.  0.
     999903    2    3    3    0    0  0.89935612202E-01 -0.89005244943E-01 -0.37201959324E-01  0.14075844888E+00  0.49179336968E-01 0.  0.
         14    1    1    2    0    0 -0.19002309726E-03  0.16836848741E-02  0.13899186908E-01  0.14002081996E-01  0.00000000000E+00 0.  1.
     999901    1    3    3    0    0 -0.89745589104E-01  0.87321560069E-01  0.23302772417E-01  0.88916946912E+00  0.88000000000E+00 0.  1.
        -11    1    4    4    0    0  0.75973655192E-01 -0.42270577388E-01 -0.25297702971E-01  0.90548511266E-01  0.51100000000E-03 0. -1.
         11    1    4    4    0    0  0.13961957010E-01 -0.46734667555E-01 -0.11904256353E-01  0.50209937615E-01  0.51100000000E-03 0.  1.
</event>
<event>
 8    1  0.2877139E+004  0.1043930E+01  0.7957747E-01            NaN
         13   -1    0    0    0    0  0.00000000000E+00  0.00000000000E+00  0.74505805969E-08  0.10566000000E+00  0.10566000000E+00 0. -1.
     999900   -1    0    0    0    0 -0.00000000000E+00 -0.00000000000E+00 -0.74505805969E-08  0.93827000000E+00  0.93827000000E+00 0.  1.
     999902    2    1    2    0    0 -0.70504083857E-02 -0.10755662726E-01 -0.49581988151E-02  0.10301468119E+01  0.10300545994E+01 0.  0.
     999903    2    3    3    0    0 -0.78122519298E-02 -0.50685560505E-01  0.12214728658E+00  0.14011828338E+00  0.45641169933E-01 0.  0.
         14    1    1    2    0    0  0.70504083857E-02  0.10755662726E-01  0.49581988151E-02  0.13783188114E-01  0.00000000000E+00 0. -1.
     999901    1    3    3    0    0  0.76184354407E-03  0.39929897778E-01 -0.12710548540E+00  0.89002852851E+00  0.88000000000E+00 0.  1.
        -11    1    4    4    0    0 -0.19458976390E-01 -0.53137931579E-01  0.97238137306E-01  0.11250692424E+00  0.51100000000E-03 0. -1.
         11    1    4    4    0    0  0.11646724460E-01  0.24523710745E-02  0.24909149278E-01  0.27611359135E-01  0.51100000000E-03 0.  1.
</event>
<event>
 8    1  0.2877139E+004  0.1043930E+01  0.7957747E-01            NaN
         13   -1    0    0    0    0  0.00000000000E+00  0.00000000000E+00  0.74505805969E-08  0.10566000000E+00  0.10566000000E+00 0.  1.
     999900   -1    0    0    0    0 -0.00000000000E+00 -0.00000000000E+00 -0.74505805969E-08  0.93827000000E+00  0.93827000000E+00 0. -1.
     999902    2    1    2    0    0  0.44098171570E-02 -0.10321315421E-01 -0.74578791307E-02  0.10304542440E+01  0.10303661257E+01 0.  0.
     999903    2    3    3    0    0 -0.69867587573E-01  0.10896990931E+00  0.25812917620E-01  0.13868382785E+00  0.42555569110E-01 0.  0.
         14    1    1    2    0    0 -0.44098171570E-02  0.10321315421E-01  0.74578791307E-02  0.13475756027E-01  0.00000000000E+00 0.  1.
     999901    1    3    3    0    0  0.74277404730E-01 -0.11929122474E+00 -0.33270796751E-01  0.89177041612E+00  0.88000000000E+00 0. -1.
        -11    1    4    4    0    0 -0.30931943856E-01  0.72787905715E-01  0.31697419457E-01  0.85204764481E-01  0.51100000000E-03 0. -1.
         11    1    4    4    0    0 -0.38935643716E-01  0.36182003600E-01 -0.58845018372E-02  0.53479063371E-01  0.51100000000E-03 0.  1.
</event>
<event>
 8    1  0.2877139E+004  0.1043930E+01  0.7957747E-01            NaN
         13   -1    0    0    0    0  0.00000000000E+00  0.00000000000E+00  0.74505805969E-08  0.10566000000E+00  0.10566000000E+00 0.  1.
     999900   -1    0    0    0    0 -0.00000000000E+00 -0.00000000000E+00 -0.74505805969E-08  0.93827000000E+00  0.93827000000E+00 0.  1.
     999902    2    1    2    0    0  0.39972039045E-02  0.97627671843E-02 -0.27753880990E-02  0.10330216527E+01  0.10329640569E+01 0.  0.
     999903    2    3    3    0    0 -0.39153955514E-01  0.17623202092E-02  0.12915967440E+00  0.14210477080E+00  0.44445544058E-01 0.  0.
         14    1    1    2    0    0 -0.39972039045E-02 -0.97627671843E-02  0.27753880990E-02  0.10908347320E-01  0.00000000000E+00 0.  1.
     999901    1    3    3    0    0  0.43151159419E-01  0.80004469751E-02 -0.13193506250E+00  0.89091688188E+00  0.88000000000E+00 0.  1.
        -11    1    4    4    0    0 -0.47368863650E-01  0.51815171402E-02  0.88863635100E-01  0.10083483588E+00  0.51100000000E-03 0. -1.
         11    1    4    4    0    0  0.82149081363E-02 -0.34191969310E-02  0.40296039301E-01  0.41269934912E-01  0.51100000000E-03 0.  1.
</event>
<event>
 8    1  0.2877139E+004  0.1043930E+01  0.7957747E-01            NaN
         13   -1    0    0    0    0  0.00000000000E+00  0.00000000000E+00  0.74505805969E-08  0.10566000000E+00  0.10566000000E+00 0.  1.
     999900   -1    0    0    0    0 -0.00000000000E+00 -0.00000000000E+00 -0.74505805969E-08  0.93827000000E+00  0.93827000000E+00 0. -1.
     999902    2    1    2    0    0  0.84658996708E-02 -0.85780346538E-02 -0.18861923842E-02  0.10317311534E+01  0.10316590334E+01 0.  0.
     999903    2    3    3    0    0  0.12369924186E+00  0.44743709675E-01 -0.30200137193E-01  0.14216743394E+00  0.44676940317E-01 0.  0.
         14    1    1    2    0    0 -0.84658996708E-02  0.85780346538E-02  0.18861923842E-02  0.12198846563E-01  0.00000000000E+00 0. -1.
     999901    1    3    3    0    0 -0.11523334219E+00 -0.53321744329E-01  0.28313944809E-01  0.88956371949E+00  0.88000000000E+00 0. -1.
        -11    1    4    4    0    0  0.82721045726E-01  0.16068564946E-01 -0.36347934438E-01  0.91773654413E-01  0.51100000000E-03 0. -1.
         11    1    4    4    0    0  0.40978196130E-01  0.28675144729E-01  0.61477972447E-02  0.50393779530E-01  0.51100000000E-03 0.  1.
</event>
<event>
 8    1  0.2877139E+004  0.1043930E+01  0.7957747E-01            NaN
         13   -1    0    0    0    0  0.00000000000E+00  0.00000000000E+00  0.74505805969E-08  0.10566000000E+00  0.10566000000E+00 0.  1.
     999900   -1    0    0    0    0 -0.00000000000E+00 -0.00000000000E+00 -0.74505805969E-08  0.93827000000E+00  0.93827000000E+00 0. -1.
     999902    2    1    2    0    0  0.13221474190E-02  0.70580173269E-02  0.11740609241E-01  0.10301675297E+01  0.10300755961E+01 0.  0.
     999903    2    3    3    0    0  0.73494820468E-01 -0.96907275768E-01  0.53162002308E-01  0.14014876100E+00  0.44977416418E-01 0.  0.
         14    1    1    2    0    0 -0.13221474190E-02 -0.70580173269E-02 -0.11740609241E-01  0.13762470263E-01  0.00000000000E+00 0.  1.
     999901    1    3    3    0    0 -0.72172673049E-01  0.10396529309E+00 -0.41421393067E-01  0.89001876874E+00  0.88000000000E+00 0. -1.
        -11    1    4    4    0    0  0.69238621399E-01 -0.86605517690E-01  0.30676555442E-01  0.11504701023E+00  0.51100000000E-03 0. -1.
         11    1    4    4    0    0  0.42561990697E-02 -0.10301758078E-01  0.22485446866E-01  0.25101750771E-01  0.51100000000E-03 0.  1.
</event>
<event>
 8    1  0.2877139E+004  0.1043930E+01  0.7957747E-01            NaN
         13   -1    0    0    0    0  0.00000000000E+00  0.00000000000E+00  0.74505805969E-08  0.10566000000E+00  0.10566000000E+00 0. -1.
     999900   -1    0    0    0    0 -0.00000000000E+00 -0.00000000000E+00 -0.74505805969E-08  0.93827000000E+00  0.93827000000E+00 0.  1.
     999902    2    1    2    0    0 -0.55501497681E-02  0.12949533744E-01 -0.33134929184E-02  0.10294567895E+01  0.10293550445E+01 0.  0.
     999903    2    3    3    0    0  0.96901354863E-01  0.80164228305E-01  0.41545406641E-01  0.13983527064E+00  0.44852045966E-01 0.  0.
         14    1    1    2    0    0  0.55501497681E-02 -0.12949533744E-01  0.33134929184E-02  0.14473210492E-01  0.00000000000E+00 0.  1.
     999901    1    3    3    0    0 -0.10245150463E+00 -0.67214694561E-01 -0.44858899560E-01  0.88962151887E+00  0.88000000000E+00 0. -1.
        -11    1    4    4    0    0  0.84428912524E-01  0.43935869282E-01  0.28407486494E-01  0.99326976645E-01  0.51100000000E-03 0.  1.
         11    1    4    4    0    0  0.12472442339E-01  0.36228359023E-01  0.13137920148E-01  0.40508293993E-01  0.51100000000E-03 0. -1.
</event>
<event>
 8    1  0.2877139E+004  0.1043930E+01  0.7957747E-01            NaN
         13   -1    0    0    0    0  0.00000000000E+00  0.00000000000E+00  0.74505805969E-08  0.10566000000E+00  0.10566000000E+00 0.  1.
     999900   -1    0    0    0    0 -0.00000000000E+00 -0.00000000000E+00 -0.74505805969E-08  0.93827000000E+00  0.93827000000E+00 0. -1.
     999902    2    1    2    0    0 -0.58746531589E-02  0.92599448915E-02 -0.79785077782E-02  0.10303684840E+01  0.10302792331E+01 0.  0.
     999903    2    3    3    0    0 -0.38693708676E-01  0.12041019485E+00  0.43732363350E-01  0.14126473155E+00  0.45248057001E-01 0.  0.
         14    1    1    2    0    0  0.58746531589E-02 -0.92599448915E-02  0.79785077782E-02  0.13561515973E-01  0.00000000000E+00 0. -1.
     999901    1    3    3    0    0  0.32819055517E-01 -0.11115024996E+00 -0.51710871129E-01  0.88910375247E+00  0.88000000000E+00 0. -1.
        -11    1    4    4    0    0 -0.28207897030E-01  0.40362355889E-01  0.34232477507E-01  0.59974401748E-01  0.51100000000E-03 0.  1.
         11    1    4    4    0    0 -0.10485811646E-01  0.80047838958E-01  0.94998858430E-02  0.81290329805E-01  0.51100000000E-03 0. -1.
</event>
<event>
 8    1  0.2877139E+004  0.1043930E+01  0.7957747E-01            NaN
         13   -1    0    0    0    0  0.00000000000E+00  0.00000000000E+00  0.74505805969E-08  0.10566000000E+00  0.10566000000E+00 0. -1.
     999900   -1    0    0    0    0 -0.00000000000E+00 -0.00000000000E+00 -0.74505805969E-08  0.93827000000E+00  0.93827000000E+00 0. -1.
     999902    2    1    2    0    0  0.90714881940E-02  0.84041642220E-02  0.12783349748E-01  0.10261441656E+01  0.10259900159E+01 0.  0.
     999903    2    3    3    0    0  0.52911512553E-02  0.94538028536E-01  0.90424583781E-01  0.13852854229E+00  0.45256121757E-01 0.  0.
         14    1    1    2    0    0 -0.90714881940E-02 -0.84041642220E-02 -0.12783349748E-01  0.17785834394E-01  0.00000000000E+00 0.  1.
     999901    1    3    3    0    0  0.37803369387E-02 -0.86133864314E-01 -0.77641234033E-01  0.88761562331E+00  0.88000000000E+00 0. -1.
        -11    1    4    4    0    0  0.96107431532E-02  0.61442596318E-01  0.29001893956E-01  0.68621643818E-01  0.51100000000E-03 0.  1.
         11    1    4    4    0    0 -0.43195918979E-02  0.33095432218E-01  0.61422689825E-01  0.69906898473E-01  0.51100000000E-03 0. -1.
</event>
<event>
 8    1  0.2877139E+004  0.1043930E+01  0.7957747E-01            NaN
         13   -1    0    0    0    0  0.00000000000E+00  0.00000000000E+00  0.74505805969E-08  0.10566000000E+00  0.10566000000E+00 0.  1.
     999900   -1    0    0    0    0 -0.00000000000E+00 -0.00000000000E+00 -0.74505805969E-08  0.93827000000E+00  0.93827000000E+00 0.  1.
     999902    2    1    2    0    0  0.61481101613E-03 -0.99604691949E-02  0.94887123214E-02  0.10301595751E+01  0.10300675345E+01 0.  0.
     999903    2    3    3    0    0  0.77645721427E-01  0.14092102853E-02  0.10861296361E+00  0.14117777108E+00  0.45864400725E-01 0.  0.
         14    1    1    2    0    0 -0.61481101613E-03  0.99604691949E-02 -0.94887123214E-02  0.13770424855E-01  0.00000000000E+00 0. -1.
     999901    1    3    3    0    0 -0.77030910411E-01 -0.11369679480E-01 -0.99124251284E-01  0.88898180407E+00  0.88000000000E+00 0.  1.
        -11    1    4    4    0    0  0.78509543559E-01 -0.84126389894E-02  0.10312242468E+00  0.12988077809E+00  0.51100000000E-03 0.  1.
         11    1    4    4    0    0 -0.86382213272E-03  0.98218492747E-02  0.54905389253E-02  0.11296992987E-01  0.51100000000E-03 0. -1.
</event>
<event>
 8    1  0.2877139E+004  0.1043930E+01  0.7957747E-01            NaN
         13   -1    0    0    0    0  0.00000000000E+00  0.00000000000E+00  0.74505805969E-08  0.10566000000E+00  0.10566000000E+00 0. -1.
     999900   -1    0    0    0    0 -0.00000000000E+00 -0.00000000000E+00 -0.74505805969E-08  0.93827000000E+00  0.93827000000E+00 0. -1.
     999902    2    1    2    0    0 -0.38785032786E-02  0.11409908320E-01  0.48153748099E-02  0.10309524567E+01  0.10308707733E+01 0.  0.
     999903    2    3    3    0    0  0.11180016775E+00 -0.53103454939E-02 -0.71063091507E-01  0.13998743860E+00  0.44933759176E-01 0.  0.
         14    1    1    2    0    0  0.38785032786E-02 -0.11409908320E-01 -0.48153748099E-02  0.12977543300E-01  0.00000000000E+00 0. -1.
     999901    1    3    3    0    0 -0.11567867103E+00  0.16720253814E-01  0.75878466317E-01  0.89096501810E+00  0.88000000000E+00 0. -1.
        -11    1    4    4    0    0  0.75168921443E-01 -0.23368692488E-01 -0.37860348091E-01  0.87350613152E-01  0.51100000000E-03 0.  1.
         11    1    4    4    0    0  0.36631246310E-01  0.18058346994E-01 -0.33202743416E-01  0.52636825453E-01  0.51100000000E-03 0. -1.
</event>
<event>
 8    1  0.2877139E+004  0.1043930E+01  0.7957747E-01            NaN
         13   -1    0    0    0    0  0.00000000000E+00  0.00000000000E+00  0.74505805969E-08  0.10566000000E+00  0.10566000000E+00 0.  1.
     999900   -1    0    0    0    0 -0.00000000000E+00 -0.00000000000E+00 -0.74505805969E-08  0.93827000000E+00  0.93827000000E+00 0.  1.
     999902    2    1    2    0    0 -0.78949552063E-02 -0.12317037399E-01 -0.51744039462E-02  0.10284118112E+01  0.10282947239E+01 0.  0.
     999903    2    3    3    0    0 -0.10313853083E+00 -0.31051808925E-01 -0.82334807730E-01  0.13971835544E+00  0.33770207366E-01 0.  0.
         14    1    1    2    0    0  0.78949552063E-02  0.12317037399E-01  0.51744039462E-02  0.15518188818E-01  0.00000000000E+00 0.  1.
     999901    1    3    3    0    0  0.95243575619E-01  0.18734771526E-01  0.77160403783E-01  0.88869345574E+00  0.88000000000E+00 0. -1.
        -11    1    4    4    0    0 -0.49728941467E-01 -0.54496630093E-02 -0.55413060633E-01  0.74656110641E-01  0.51100000000E-03 0.  1.
         11    1    4    4    0    0 -0.53409589358E-01 -0.25602145916E-01 -0.26921747096E-01  0.65062244802E-01  0.51100000000E-03 0. -1.
</event>
<event>
 8    1  0.2877139E+004  0.1043930E+01  0.7957747E-01            NaN
         13   -1    0    0    0    0  0.00000000000E+00  0.00000000000E+00  0.74505805969E-08  0.10566000000E+00  0.10566000000E+00 0. -1.
     999900   -1    0    0    0    0 -0.00000000000E+00 -0.00000000000E+00 -0.74505805969E-08  0.93827000000E+00  0.93827000000E+00 0.  1.
     999902    2    1    2    0    0 -0.15474946074E-01 -0.18926385343E-02  0.91246396857E-03  0.10283130660E+01  0.10281944724E+01 0.  0.
     999903    2    3    3    0    0  0.12399929138E+00  0.14371745752E-01  0.31873792261E-01  0.13664261290E+00  0.45529042253E-01 0.  0.
         14    1    1    2    0    0  0.15474946074E-01  0.18926385343E-02 -0.91246396857E-03  0.15616933985E-01  0.00000000000E+00 0.  1.
     999901    1    3    3    0    0 -0.13947423745E+00 -0.16264384287E-01 -0.30961328293E-01  0.89167045312E+00  0.88000000000E+00 0. -1.
        -11    1    4    4    0    0  0.80108900811E-01  0.12953953872E-01 -0.20071168003E-02  0.81175923456E-01  0.51100000000E-03 0.  1.
         11    1    4    4    0    0  0.43890390568E-01  0.14177918807E-02  0.33880909062E-01  0.55466689444E-01  0.51100000000E-03 0. -1.
</event>
<event>
 8    1  0.2877139E+004  0.1043930E+01  0.7957747E-01            NaN
         13   -1    0    0    0    0  0.00000000000E+00  0.00000000000E+00  0.74505805969E-08  0.10566000000E+00  0.10566000000E+00 0.  1.
     999900   -1    0    0    0    0 -0.00000000000E+00 -0.00000000000E+00 -0.74505805969E-08  0.93827000000E+00  0.93827000000E+00 0.  1.
     999902    2    1    2    0    0  0.29149460332E-02  0.15832193085E-01  0.95364947083E-02  0.10252190412E+01  0.10250482830E+01 0.  0.
     999903    2    3    3    0    0  0.95885957534E-01 -0.74447314908E-01  0.39484651580E-01  0.13522415882E+00  0.44609593915E-01 0.  0.
         14    1    1    2    0    0 -0.29149460332E-02 -0.15832193085E-01 -0.95364947083E-02  0.18710958810E-01  0.00000000000E+00 0. -1.
     999901    1    3    3    0    0 -0.92971011501E-01  0.90279507994E-01 -0.29948156872E-01  0.88999488237E+00  0.88000000000E+00 0. -1.
        -11    1    4    4    0    0  0.24182500697E-01 -0.41659409048E-01  0.27510132961E-01  0.55474032111E-01  0.51100000000E-03 0.  1.
         11    1    4    4    0    0  0.71703456837E-01 -0.32787905861E-01  0.11974518619E-01  0.79750126710E-01  0.51100000000E-03 0. -1.
</event>
<event>
 8    1  0.2877139E+004  0.1043930E+01  0.7957747E-01            NaN
         13   -1    0    0    0    0  0.00000000000E+00  0.00000000000E+00  0.74505805969E-08  0.10566000000E+00  0.10566000000E+00 0. -1.
     999900   -1    0    0    0    0 -0.00000000000E+00 -0.00000000000E+00 -0.74505805969E-08  0.93827000000E+00  0.93827000000E+00 0. -1.
     999902    2    1    2    0    0  0.22733834134E-04  0.75088900763E-03 -0.11668989694E-01  0.10322368536E+01  0.10321706217E+01 0.  0.
     999903    2    3    3    0    0 -0.60529154751E-01  0.11615519084E+00 -0.32904186555E-01  0.14238539544E+00  0.45112175815E-01 0.  0.
         14    1    1    2    0    0 -0.22733834134E-04 -0.75088900763E-03  0.11668989694E-01  0.11693146352E-01  0.00000000000E+00 0. -1.
     999901    1    3    3    0    0  0.60551888585E-01 -0.11540430183E+00  0.21235196861E-01  0.88985145821E+00  0.88000000000E+00 0.  1.
        -11    1    4    4    0    0 -0.12104538960E-01  0.57016607506E-01  0.20720829293E-02  0.58326392342E-01  0.51100000000E-03 0.  1.
         11    1    4    4    0    0 -0.48424615791E-01  0.59138583335E-01 -0.34976269485E-01  0.84059003096E-01  0.51100000000E-03 0. -1.
</event>
<event>
 8    1  0.2877139E+004  0.1043930E+01  0.7957747E-01            NaN
         13   -1    0    0    0    0  0.00000000000E+00  0.00000000000E+00  0.74505805969E-08  0.10566000000E+00  0.10566000000E+00 0.  1.
     999900   -1    0    0    0    0 -0.00000000000E+00 -0.00000000000E+00 -0.74505805969E-08  0.93827000000E+00  0.93827000000E+00 0. -1.
     999902    2    1    2    0    0  0.47298682815E-02  0.11668880563E-01  0.50697261370E-02  0.10303566235E+01  0.10302672153E+01 0.  0.
     999903    2    3    3    0    0 -0.12082701154E+00 -0.13099266217E-01  0.52355257891E-01  0.13984333738E+00  0.45214250950E-01 0.  0.
         14    1    1    2    0    0 -0.47298682815E-02 -0.11668880563E-01 -0.50697261370E-02  0.13573376539E-01  0.00000000000E+00 0.  1.
     999901    1    3    3    0    0  0.12555687982E+00  0.24768146780E-01 -0.47285531754E-01  0.89051328608E+00  0.88000000000E+00 0. -1.
        -11    1    4    4    0    0 -0.68942994831E-01 -0.29705372004E-01  0.27338731177E-01  0.79895012395E-01  0.51100000000E-03 0.  1.
         11    1    4    4    0    0 -0.51884016709E-01  0.16606105787E-01  0.25016526713E-01  0.59948324990E-01  0.51100000000E-03 0. -1.
</event>
<event>
 8    1  0.2877139E+004  0.1043930E+01  0.7957747E-01            NaN
         13   -1    0    0    0    0  0.00000000000E+00  0.00000000000E+00  0.74505805969E-08  0.10566000000E+00  0.10566000000E+00 0.  1.
     999900   -1    0    0    0    0 -0.00000000000E+00 -0.00000000000E+00 -0.74505805969E-08  0.93827000000E+00  0.93827000000E+00 0.  1.
     999902    2    1    2    0    0  0.11832860387E-01 -0.14570736834E-02  0.47631900150E-02  0.10310914788E+01  0.10310115469E+01 0.  0.
     999903    2    3    3    0    0  0.40865376175E-01 -0.10916953775E+00 -0.65778340185E-01  0.14124825134E+00  0.45125508618E-01 0.  0.
         14    1    1    2    0    0 -0.11832860387E-01  0.14570736834E-02 -0.47631900150E-02  0.12838521245E-01  0.00000000000E+00 0. -1.
     999901    1    3    3    0    0 -0.29032515789E-01  0.10771246406E+00  0.70541530200E-01  0.88984322741E+00  0.88000000000E+00 0. -1.
        -11    1    4    4    0    0  0.27946658443E-01 -0.26071433626E-01 -0.75553483814E-02  0.38962543289E-01  0.51100000000E-03 0. -1.
         11    1    4    4    0    0  0.12918717733E-01 -0.83098104122E-01 -0.58222991804E-01  0.10228570805E+00  0.51100000000E-03 0.  1.
</event>
<event>
 8    1  0.2877139E+004  0.1043930E+01  0.7957747E-01            NaN
         13   -1    0    0    0    0  0.00000000000E+00  0.00000000000E+00  0.74505805969E-08  0.10566000000E+00  0.10566000000E+00 0. -1.
     999900   -1    0    0    0    0 -0.00000000000E+00 -0.00000000000E+00 -0.74505805969E-08  0.93827000000E+00  0.93827000000E+00 0. -1.
     999902    2    1    2    0    0  0.22774156100E-02  0.95685524866E-02  0.89070964460E-02  0.10306604791E+01  0.10305750545E+01 0.  0.
     999903    2    3    3    0    0  0.58226141992E-01  0.20978535107E-01  0.11913172693E+00  0.14194797390E+00  0.46113733156E-01 0.  0.
         14    1    1    2    0    0 -0.22774156100E-02 -0.95685524866E-02 -0.89070964460E-02  0.13269520928E-01  0.00000000000E+00 0. -1.
     999901    1    3    3    0    0 -0.55948726382E-01 -0.11409982620E-01 -0.11022463049E+00  0.88871250517E+00  0.88000000000E+00 0. -1.
        -11    1    4    4    0    0  0.47458299745E-01 -0.40184897259E-02  0.58159157012E-01  0.75174378212E-01  0.51100000000E-03 0. -1.
         11    1    4    4    0    0  0.10767842247E-01  0.24997024833E-01  0.60972569920E-01  0.66773595686E-01  0.51100000000E-03 0.  1.
</event>
<event>
 7    1  0.2877139E+004  0.1043930E+01  0.7957747E-01            NaN
         13   -1    0    0    0    0  0.00000000000E+00  0.00000000000E+00  0.74505805969E-08  0.10566000000E+00  0.10566000000E+00 0.  1.
     999900   -1    0    0    0    0 -0.00000000000E+00 -0.00000000000E+00 -0.74505805969E-08  0.93827000000E+00  0.93827000000E+00 0.  1.
     999902    2    1    2    0    0 -0.10703774443E-02 -0.12062268634E-01  0.53289651830E-02  0.10306996598E+01  0.10306147422E+01 0.  0.
         14    1    1    2    0    0  0.10703774443E-02  0.12062268634E-01 -0.53289651830E-02  0.13230340222E-01  0.00000000000E+00 0.  1.
     999901    1    3    3    0    0  0.96130611294E-01 -0.73471310592E-01  0.25859249145E-01  0.88865506732E+00  0.88000000000E+00 0. -1.
        -11    1    3    3    0    0 -0.20270309265E-01  0.36432118961E-01 -0.41140609554E-01  0.58574701068E-01  0.51100000000E-03 0.  1.
         11    1    3    3    0    0 -0.76930679473E-01  0.24976922998E-01  0.20610325592E-01  0.83469891390E-01  0.51100000000E-03 0. -1.
</event>
<event>
 8    1  0.2877139E+004  0.1043930E+01  0.7957747E-01            NaN
         13   -1    0    0    0    0  0.00000000000E+00  0.00000000000E+00  0.74505805969E-08  0.10566000000E+00  0.10566000000E+00 0. -1.
     999900   -1    0    0    0    0 -0.00000000000E+00 -0.00000000000E+00 -0.74505805969E-08  0.93827000000E+00  0.93827000000E+00 0.  1.
     999902    2    1    2    0    0  0.31207813532E-02  0.67978460660E-02  0.11832415412E-01  0.10299315700E+01  0.10298364350E+01 0.  0.
     999903    2    3    3    0    0  0.97578877360E-02 -0.75092352855E-01  0.10944931705E+00  0.14073017813E+00  0.45735677577E-01 0.  0.
         14    1    1    2    0    0 -0.31207813532E-02 -0.67978460660E-02 -0.11832415412E-01  0.13998429979E-01  0.00000000000E+00 0.  1.
     999901    1    3    3    0    0 -0.66371063828E-02  0.81890198921E-01 -0.97616901635E-01  0.88920139189E+00  0.88000000000E+00 0.  1.
        -11    1    4    4    0    0 -0.16248025187E-01 -0.30548022370E-01  0.60059169147E-01  0.69314824625E-01  0.51100000000E-03 0. -1.
         11    1    4    4    0    0  0.26005912923E-01 -0.44544330485E-01  0.49390147900E-01  0.71415353503E-01  0.51100000000E-03 0.  1.
</event>
<event>
 8    1  0.2877139E+004  0.1043930E+01  0.7957747E-01            NaN
         13   -1    0    0    0    0  0.00000000000E+00  0.00000000000E+00  0.74505805969E-08  0.10566000000E+00  0.10566000000E+00 0. -1.
     999900   -1    0    0    0    0 -0.00000000000E+00 -0.00000000000E+00 -0.74505805969E-08  0.93827000000E+00  0.93827000000E+00 0.  1.
     999902    2    1    2    0    0  0.12164241791E-01  0.51823782170E-02  0.36810627347E-02  0.10302049847E+01  0.10301135541E+01 0.  0.
     999903    2    3    3    0    0  0.87463649226E-01  0.27001702558E-02 -0.10131298857E+00  0.14076700882E+00  0.43518366979E-01 0.  0.
         14    1    1    2    0    0 -0.12164241791E-01 -0.51823782170E-02 -0.36810627347E-02  0.13725015307E-01  0.00000000000E+00 0. -1.
     999901    1    3    3    0    0 -0.75299407435E-01  0.24822079612E-02  0.10499405130E+00  0.88943797587E+00  0.88000000000E+00 0. -1.
        -11    1    4    4    0    0  0.27278310899E-01 -0.19502348796E-01 -0.32867210771E-01  0.46957028430E-01  0.51100000000E-03 0.  1.
         11    1    4    4    0    0  0.60185338327E-01  0.22202519052E-01 -0.68445777795E-01  0.93809980390E-01  0.51100000000E-03 0. -1.
</event>
<event>
 8    1  0.2877139E+004  0.1043930E+01  0.7957747E-01            NaN
         13   -1    0    0    0    0  0.00000000000E+00  0.00000000000E+00  0.74505805969E-08  0.10566000000E+00  0.10566000000E+00 0.  1.
     999900   -1    0    0    0    0 -0.00000000000E+00 -0.00000000000E+00 -0.74505805969E-08  0.93827000000E+00  0.93827000000E+00 0. -1.
     999902    2    1    2    0    0  0.20590545658E-02  0.12448398642E-01 -0.52403503132E-02  0.10302675110E+01  0.10301769171E+01 0.  0.
     999903    2    3    3    0    0 -0.95318259288E-01 -0.88706318975E-01  0.17966505724E-01  0.13883429627E+00  0.44696587257E-01 0.  0.
         14    1    1    2    0    0 -0.20590545658E-02 -0.12448398642E-01  0.52403503132E-02  0.13662489007E-01  0.00000000000E+00 0. -1.
     999901    1    3    3    0    0  0.97377313853E-01  0.10115471762E+00 -0.23206856037E-01  0.89143321473E+00  0.88000000000E+00 0.  1.
        -11    1    4    4    0    0 -0.81744401037E-01 -0.48212499811E-01  0.10638343535E-01  0.95498836187E-01  0.51100000000E-03 0.  1.
         11    1    4    4    0    0 -0.13573858250E-01 -0.40493819164E-01  0.73281621882E-02  0.43335460080E-01  0.51100000000E-03 0. -1.
</event>
<event>
 8    1  0.2877139E+004  0.1043930E+01  0.7957747E-01            NaN
         13   -1    0    0    0    0  0.00000000000E+00  0.00000000000E+00  0.74505805969E-08  0.10566000000E+00  0.10566000000E+00 0.  1.
     999900   -1    0    0    0    0 -0.00000000000E+00 -0.00000000000E+00 -0.74505805969E-08  0.93827000000E+00  0.93827000000E+00 0. -1.
     999902    2    1    2    0    0  0.13362564192E-01 -0.52886343644E-03 -0.38978065765E-02  0.10300005092E+01  0.10299063153E+01 0.  0.
     999903    2    3    3    0    0  0.19087976324E-01  0.13261651177E+00  0.10252338947E-01  0.13985406174E+00  0.38762844282E-01 0.  0.
         14    1    1    2    0    0 -0.13362564192E-01  0.52886343644E-03  0.38978065765E-02  0.13929490818E-01  0.00000000000E+00 0. -1.
     999901    1    3    3    0    0 -0.57254121317E-02 -0.13314537520E+00 -0.14150145523E-01  0.89014644745E+00  0.88000000000E+00 0. -1.
        -11    1    4    4    0    0 -0.19667281296E-02  0.37524450695E-01  0.18918545449E-01  0.42072852321E-01  0.51100000000E-03 0.  1.
         11    1    4    4    0    0  0.21054704454E-01  0.95092061073E-01 -0.86662065025E-02  0.97781209416E-01  0.51100000000E-03 0. -1.
</event>
<event>
 7    1  0.2877139E+004  0.1043930E+01  0.7957747E-01            NaN
         13   -1    0    0    0    0  0.00000000000E+00  0.00000000000E+00  0.74505805969E-08  0.10566000000E+00  0.10566000000E+00 0.  1.
     999900   -1    0    0    0    0 -0.00000000000E+00 -0.00000000000E+00 -0.74505805969E-08  0.93827000000E+00  0.93827000000E+00 0. -1.
     999903    2    1    2    0    0 -0.11866631730E-01 -0.10927969736E+00  0.31783231665E-01  0.12043565392E+00  0.37572645834E-01 0.  0.
         14    1    1    2    0    0  0.14380364077E-01 -0.23081010025E-01 -0.19577992791E-01  0.33508591383E-01  0.00000000000E+00 0. -1.
     999901    1    1    2    0    0 -0.25137323470E-02  0.13236070739E+00 -0.12205238874E-01  0.88998575470E+00  0.88000000000E+00 0. -1.
        -11    1    3    3    0    0  0.10816785778E-01 -0.68044444001E-01  0.15403669063E-01  0.70601581821E-01  0.51100000000E-03 0.  1.
         11    1    3    3    0    0 -0.22683417508E-01 -0.41235253363E-01  0.16379562602E-01  0.49834072097E-01  0.51100000000E-03 0. -1.
</event>
<event>
 8    1  0.2877139E+004  0.1043930E+01  0.7957747E-01            NaN
         13   -1    0    0    0    0  0.00000000000E+00  0.00000000000E+00  0.74505805969E-08  0.10566000000E+00  0.10566000000E+00 0.  1.
     999900   -1    0    0    0    0 -0.00000000000E+00 -0.00000000000E+00 -0.74505805969E-08  0.93827000000E+00  0.93827000000E+00 0. -1.
     999902    2    1    2    0    0  0.37070832253E-02 -0.98418813352E-02  0.90114671102E-02  0.10300803923E+01  0.10299872829E+01 0.  0.
     999903    2    3    3    0    0 -0.39211577415E-01  0.70827894680E-02  0.12738710717E+00  0.14095652686E+00  0.45316152552E-01 0.  0.
         14    1    1    2    0    0 -0.37070832253E-02  0.98418813352E-02 -0.90114671102E-02  0.13849607710E-01  0.00000000000E+00 0. -1.
     999901    1    3    3    0    0  0.42918660641E-01 -0.16924670803E-01 -0.11837564006E+00  0.88912386543E+00  0.88000000000E+00 0. -1.
        -11    1    4    4    0    0 -0.25875257703E-01 -0.18045004292E-01  0.59477163374E-01  0.67327150728E-01  0.51100000000E-03 0.  1.
         11    1    4    4    0    0 -0.13336319713E-01  0.25127793760E-01  0.67909943795E-01  0.73629376134E-01  0.51100000000E-03 0. -1.
</event>
<event>
 8    1  0.2877139E+004  0.1043930E+01  0.7957747E-01            NaN
         13   -1    0    0    0    0  0.00000000000E+00  0.00000000000E+00  0.74505805969E-08  0.10566000000E+00  0.10566000000E+00 0.  1.
     999900   -1    0    0    0    0 -0.00000000000E+00 -0.00000000000E+00 -0.74505805969E-08  0.93827000000E+00  0.93827000000E+00 0.  1.
     999902    2    1    2    0    0 -0.66945870200E-02 -0.17186225033E-01 -0.10406596756E-01  0.10227526281E+01  0.10225333526E+01 0.  0.
     999903    2    3    3    0    0 -0.79138754345E-01 -0.19971365726E-01  0.94584607784E-01  0.13355126312E+00  0.47200571628E-01 0.  0.
         14    1    1    2    0    0  0.66945870200E-02  0.17186225033E-01  0.10406596756E-01  0.21177371940E-01  0.00000000000E+00 0.  1.
     999901    1    3    3    0    0  0.72444167325E-01  0.27851406931E-02 -0.10499120454E+00  0.88920136494E+00  0.88000000000E+00 0.  1.
        -11    1    4    4    0    0 -0.14884192109E-01 -0.19969849828E-01  0.48347728654E-01  0.54388400086E-01  0.51100000000E-03 0. -1.
         11    1    4    4    0    0 -0.64254562236E-01 -0.15158975467E-05  0.46236879130E-01  0.79162863030E-01  0.51100000000E-03 0.  1.
</event>
<event>
 8    1  0.2877139E+004  0.1043930E+01  0.7957747E-01            NaN
         13   -1    0    0    0    0  0.00000000000E+00  0.00000000000E+00  0.74505805969E-08  0.10566000000E+00  0.10566000000E+00 0. -1.
     999900   -1    0    0    0    0 -0.00000000000E+00 -0.00000000000E+00 -0.74505805969E-08  0.93827000000E+00  0.93827000000E+00 0.  1.
     999902    2    1    2    0    0  0.82826317325E-02  0.96582445822E-02 -0.14105900143E-02  0.10311286938E+01  0.10310492276E+01 0.  0.
     999903    2    3    3    0    0  0.45034070346E-01  0.11861739123E+00  0.46629944140E-01  0.14234826150E+00  0.44615276150E-01 0.  0.
         14    1    1    2    0    0 -0.82826317325E-02 -0.96582445822E-02  0.14105900143E-02  0.12801306223E-01  0.00000000000E+00 0.  1.
     999901    1    3    3    0    0 -0.36751438613E-01 -0.10895914665E+00 -0.48040534154E-01  0.88878043228E+00  0.88000000000E+00 0.  1.
        -11    1    4    4    0    0 -0.89343710631E-02  0.19161418383E-01  0.10143992808E-01  0.23455162584E-01  0.51100000000E-03 0.  1.
         11    1    4    4    0    0  0.53968441409E-01  0.99455972852E-01  0.36485951332E-01  0.11889309891E+00  0.51100000000E-03 0. -1.
</event>
<event>
 8    1  0.2877139E+004  0.1043930E+01  0.7957747E-01            NaN
         13   -1    0    0    0    0  0.00000000000E+00  0.00000000000E+00  0.74505805969E-08  0.10566000000E+00  0.10566000000E+00 0. -1.
     999900   -1    0    0    0    0 -0.00000000000E+00 -0.00000000000E+00 -0.74505805969E-08  0.93827000000E+00  0.93827000000E+00 0. -1.
     999902    2    1    2    0    0  0.65201860344E-02 -0.10493076052E-01  0.79780523602E-02  0.10292239879E+01  0.10291189196E+01 0.  0.
     999903    2    3    3    0    0  0.10593499640E+00  0.25936068255E-02  0.81054448169E-01  0.14052002970E+00  0.44126011827E-01 0.  0.
         14    1    1    2    0    0 -0.65201860344E-02  0.10493076052E-01 -0.79780523602E-02  0.14706012050E-01  0.00000000000E+00 0.  1.
     999901    1    3    3    0    0 -0.99414810365E-01 -0.13086682878E-01 -0.73076395809E-01  0.88870395825E+00  0.88000000000E+00 0.  1.
        -11    1    4    4    0    0  0.30843272188E-01  0.12505755445E-01  0.58766233844E-02  0.33800845876E-01  0.51100000000E-03 0. -1.
         11    1    4    4    0    0  0.75091724211E-01 -0.99121486193E-02  0.75177824785E-01  0.10671918382E+00  0.51100000000E-03 0.  1.
</event>
<event>
 8    1  0.2877139E+004  0.1043930E+01  0.7957747E-01            NaN
         13   -1    0    0    0    0  0.00000000000E+00  0.00000000000E+00  0.74505805969E-08  0.10566000000E+00  0.10566000000E+00 0. -1.
     999900   -1    0    0    0    0 -0.00000000000E+00 -0.00000000000E+00 -0.74505805969E-08  0.93827000000E+00  0.93827000000E+00 0. -1.
     999902    2    1    2    0    0  0.84278218737E-02 -0.11156904454E-01 -0.70859465148E-03  0.10299297570E+01  0.10298345971E+01 0.  0.
     999903    2    3    3    0    0  0.10870288484E+00 -0.49259251762E-01 -0.60937583445E-01  0.14137226968E+00  0.45054838825E-01 0.  0.
         14    1    1    2    0    0 -0.84278218737E-02  0.11156904454E-01  0.70859465148E-03  0.14000243030E-01  0.00000000000E+00 0.  1.
     999901    1    3    3    0    0 -0.10027506297E+00  0.38102347308E-01  0.60228988794E-01  0.88855748729E+00  0.88000000000E+00 0.  1.
        -11    1    4    4    0    0  0.84298643239E-01 -0.50846131448E-01 -0.62910968004E-01  0.11683167957E+00  0.51100000000E-03 0.  1.
         11    1    4    4    0    0  0.24404241603E-01  0.15868796851E-02  0.19733845591E-02  0.24540590111E-01  0.51100000000E-03 0. -1.
</event>
<event>
 8    1  0.2877139E+004  0.1043930E+01  0.7957747E-01            NaN
         13   -1    0    0    0    0  0.00000000000E+00  0.00000000000E+00  0.74505805969E-08  0.10566000000E+00  0.10566000000E+00 0.  1.
     999900   -1    0    0    0    0 -0.00000000000E+00 -0.00000000000E+00 -0.74505805969E-08  0.93827000000E+00  0.93827000000E+00 0.  1.
     999902    2    1    2    0    0 -0.10931618480E-01 -0.25510566543E-02  0.87676142394E-02  0.10296864319E+01  0.10295879121E+01 0.  0.
     999903    2    3    3    0    0 -0.20552453976E-01  0.93146965132E-01 -0.90665770611E-01  0.13887911836E+00  0.44366283110E-01 0.  0.
         14    1    1    2    0    0  0.10931618480E-01  0.25510566543E-02 -0.87676142394E-02  0.14243568095E-01  0.00000000000E+00 0. -1.
     999901    1    3    3    0    0  0.96208354959E-02 -0.95698021786E-01  0.99433384851E-01  0.89080731355E+00  0.88000000000E+00 0. -1.
        -11    1    4    4    0    0 -0.61755356921E-02  0.84912762804E-01 -0.60453444529E-01  0.10441836335E+00  0.51100000000E-03 0. -1.
         11    1    4    4    0    0 -0.14376918283E-01  0.82342023276E-02 -0.30212326082E-01  0.34460755006E-01  0.51100000000E-03 0.  1.
</event>
<event>
 8    1  0.2877139E+004  0.1043930E+01  0.7957747E-01            NaN
         13   -1    0    0    0    0  0.00000000000E+00  0.00000000000E+00  0.74505805969E-08  0.10566000000E+00  0.10566000000E+00 0.  1.
     999900   -1    0    0    0    0 -0.00000000000E+00 -0.00000000000E+00 -0.74505805969E-08  0.93827000000E+00  0.93827000000E+00 0. -1.
     999902    2    1    2    0    0 -0.21657186077E-02 -0.10587796979E-01 -0.87989957974E-02  0.10299939278E+01  0.10298996442E+01 0.  0.
     999903    2    3    3    0    0 -0.82916748697E-02  0.10514271472E-01  0.13050716705E+00  0.13876498321E+00  0.45213915304E-01 0.  0.
         14    1    1    2    0    0  0.21657186077E-02  0.10587796979E-01  0.87989957974E-02  0.13936072223E-01  0.00000000000E+00 0.  1.
     999901    1    3    3    0    0  0.61259562619E-02 -0.21102068451E-01 -0.13930616284E+00  0.89122894457E+00  0.88000000000E+00 0. -1.
        -11    1    4    4    0    0  0.72525903963E-02 -0.14468814413E-01  0.30687919608E-01  0.34698071831E-01  0.51100000000E-03 0.  1.
         11    1    4    4    0    0 -0.15544265266E-01  0.24983085885E-01  0.99819247439E-01  0.10406691138E+00  0.51100000000E-03 0. -1.
</event>
<event>
 8    1  0.2877139E+004  0.1043930E+01  0.7957747E-01            NaN
         13   -1    0    0    0    0  0.00000000000E+00  0.00000000000E+00  0.74505805969E-08  0.10566000000E+00  0.10566000000E+00 0.  1.
     999900   -1    0    0    0    0 -0.00000000000E+00 -0.00000000000E+00 -0.74505805969E-08  0.93827000000E+00  0.93827000000E+00 0. -1.
     999902    2    1    2    0    0 -0.37223194480E-03 -0.71749717803E-02  0.14698665681E-01  0.10275693903E+01  0.10274391380E+01 0.  0.
     999903    2    3    3    0    0 -0.93836875466E-01 -0.66103834275E-01 -0.60672633455E-01  0.13746317015E+00  0.45165015172E-01 0.  0.
         14    1    1    2    0    0  0.37223194480E-03  0.71749717803E-02 -0.14698665681E-01  0.16360609691E-01  0.00000000000E+00 0. -1.
     999901    1    3    3    0    0  0.93464643521E-01  0.58928862495E-01  0.75371299136E-01  0.89010622015E+00  0.88000000000E+00 0.  1.
        -11    1    4    4    0    0 -0.62452633313E-01 -0.33966423387E-01 -0.59202944667E-01  0.92516480174E-01  0.51100000000E-03 0.  1.
         11    1    4    4    0    0 -0.31384242153E-01 -0.32137410888E-01 -0.14696887878E-02  0.44946689981E-01  0.51100000000E-03 0. -1.
</event>
<event>
 8    1  0.2877139E+004  0.1043930E+01  0.7957747E-01            NaN
         13   -1    0    0    0    0  0.00000000000E+00  0.00000000000E+00  0.74505805969E-08  0.10566000000E+00  0.10566000000E+00 0. -1.
     999900   -1    0    0    0    0 -0.00000000000E+00 -0.00000000000E+00 -0.74505805969E-08  0.93827000000E+00  0.93827000000E+00 0.  1.
     999902    2    1    2    0    0  0.42289882280E-02 -0.99692386935E-02  0.85905040436E-02  0.10301073077E+01  0.10300145623E+01 0.  0.
     999903    2    3    3    0    0  0.27034277265E-01 -0.12641394578E+00  0.36949024073E-01  0.14169093201E+00  0.44718586702E-01 0.  0.
         14    1    1    2    0    0 -0.42289882280E-02  0.99692386935E-02 -0.85905040436E-02  0.13822692259E-01  0.00000000000E+00 0. -1.
     999901    1    3    3    0    0 -0.22805289037E-01  0.11644470709E+00 -0.28358520029E-01  0.88841637574E+00  0.88000000000E+00 0. -1.
        -11    1    4    4    0    0  0.58051902300E-02 -0.73919150673E-01  0.41339495438E-01  0.84893792905E-01  0.51100000000E-03 0. -1.
         11    1    4    4    0    0  0.21229087035E-01 -0.52494795112E-01 -0.43904713649E-02  0.56797139100E-01  0.51100000000E-03 0.  1.
</event>
<event>
 8    1  0.2877139E+004  0.1043930E+01  0.7957747E-01            NaN
         13   -1    0    0    0    0  0.00000000000E+00  0.00000000000E+00  0.74505805969E-08  0.10566000000E+00  0.10566000000E+00 0.  1.
     999900   -1    0    0    0    0 -0.00000000000E+00 -0.00000000000E+00 -0.74505805969E-08  0.93827000000E+00  0.93827000000E+00 0.  1.
     999902    2    1    2    0    0 -0.18180318607E-02 -0.67339530609E-02  0.10944268726E-01  0.10309520039E+01  0.10308703149E+01 0.  0.
     999903    2    3    3    0    0 -0.10110759634E+00 -0.87463493198E-01  0.89962141020E-02  0.14169418352E+00  0.46083631527E-01 0.  0.
         14    1    1    2    0    0  0.18180318607E-02  0.67339530609E-02 -0.10944268726E-01  0.12977996056E-01  0.00000000000E+00 0. -1.
     999901    1    3    3    0    0  0.99289564484E-01  0.80729540137E-01  0.19480546242E-02  0.88925782042E+00  0.88000000000E+00 0.  1.
        -11    1    4    4    0    0 -0.89496941649E-01 -0.50761490625E-01  0.55250275528E-02  0.10303988813E+00  0.51100000000E-03 0.  1.
         11    1    4    4    0    0 -0.11610654696E-01 -0.36702002573E-01  0.34711865492E-02  0.38654295393E-01  0.51100000000E-03 0. -1.
</event>
<event>
 8    1  0.2877139E+004  0.1043930E+01  0.7957747E-01            NaN
         13   -1    0    0    0    0  0.00000000000E+00  0.00000000000E+00  0.74505805969E-08  0.10566000000E+00  0.10566000000E+00 0.  1.
     999900   -1    0    0    0    0 -0.00000000000E+00 -0.00000000000E+00 -0.74505805969E-08  0.93827000000E+00  0.93827000000E+00 0. -1.
     999902    2    1    2    0    0 -0.11734395398E-01 -0.18091326922E-02 -0.53755544462E-02  0.10308967509E+01  0.10308143603E+01 0.  0.
     999903    2    3    3    0    0  0.94151335989E-01 -0.85048081992E-01 -0.37969587953E-01  0.14005283539E+00  0.45557181333E-01 0.  0.
         14    1    1    2    0    0  0.11734395398E-01  0.18091326922E-02  0.53755544462E-02  0.13033249098E-01  0.00000000000E+00 0. -1.
     999901    1    3    3    0    0 -0.10588573139E+00  0.83238949300E-01  0.32594033506E-01  0.89084391552E+00  0.88000000000E+00 0.  1.
        -11    1    4    4    0    0  0.14195517958E-01 -0.27430068949E-01  0.70787630901E-02  0.31690557277E-01  0.51100000000E-03 0.  1.
         11    1    4    4    0    0  0.79955818031E-01 -0.57618013043E-01 -0.45048351043E-01  0.10836227811E+00  0.51100000000E-03 0. -1.
</event>
<event>
 8    1  0.2877139E+004  0.1043930E+01  0.7957747E-01            NaN
         13   -1    0    0    0    0  0.00000000000E+00  0.00000000000E+00  0.74505805969E-08  0.10566000000E+00  0.10566000000E+00 0.  1.
     999900   -1    0    0    0    0 -0.00000000000E+00 -0.00000000000E+00 -0.74505805969E-08  0.93827000000E+00  0.93827000000E+00 0. -1.
     999902    2    1    2    0    0 -0.11496312691E-01  0.49063447400E-02  0.55618082197E-02  0.10302489498E+01  0.10301581080E+01 0.  0.
     999903    2    3    3    0    0  0.86429886484E-01 -0.67343116247E-01  0.73261149736E-01  0.13929848768E+00  0.45073850788E-01 0.  0.
         14    1    1    2    0    0  0.11496312691E-01 -0.49063447400E-02 -0.55618082197E-02  0.13681050210E-01  0.00000000000E+00 0. -1.
     999901    1    3    3    0    0 -0.97926199175E-01  0.72249460987E-01 -0.67699341517E-01  0.89095046211E+00  0.88000000000E+00 0.  1.
        -11    1    4    4    0    0  0.44887896999E-01 -0.27532245749E-01  0.60779434573E-01  0.80419827412E-01  0.51100000000E-03 0.  1.
         11    1    4    4    0    0  0.41541989485E-01 -0.39810870497E-01  0.12481715164E-01  0.58878660265E-01  0.51100000000E-03 0. -1.
</event>
<event>
 7    1  0.2877139E+004  0.1043930E+01  0.7957747E-01            NaN
         13   -1    0    0    0    0  0.00000000000E+00  0.00000000000E+00  0.74505805969E-08  0.10566000000E+00  0.10566000000E+00 0.  1.
     999900   -1    0    0    0    0 -0.00000000000E+00 -0.00000000000E+00 -0.74505805969E-08  0.93827000000E+00  0.93827000000E+00 0. -1.
     999903    2    1    2    0    0 -0.42026543297E-03 -0.31747337943E-03  0.11469088098E+00  0.12323005732E+00  0.45070738124E-01 0.  0.
         14    1    1    2    0    0  0.60855418428E-02 -0.29374348418E-01  0.94989392407E-02  0.31466108931E-01  0.00000000000E+00 0.  1.
     999901    1    1    2    0    0 -0.56652764098E-02  0.29691821798E-01 -0.12418982022E+00  0.88923383375E+00  0.88000000000E+00 0. -1.
        -11    1    3    3    0    0  0.19908496627E-01 -0.85721277416E-02  0.41540296724E-01  0.46858158147E-01  0.51100000000E-03 0. -1.
         11    1    3    3    0    0 -0.20328762060E-01  0.82546543622E-02  0.73150584254E-01  0.76371899173E-01  0.51100000000E-03 0.  1.
</event>
<event>
 8    1  0.2877139E+004  0.1043930E+01  0.7957747E-01            NaN
         13   -1    0    0    0    0  0.00000000000E+00  0.00000000000E+00  0.74505805969E-08  0.10566000000E+00  0.10566000000E+00 0. -1.
     999900   -1    0    0    0    0 -0.00000000000E+00 -0.00000000000E+00 -0.74505805969E-08  0.93827000000E+00  0.93827000000E+00 0.  1.
     999902    2    1    2    0    0 -0.10348755338E-01  0.77945681145E-03  0.94813857241E-02  0.10298729390E+01  0.10297769999E+01 0.  0.
     999903    2    3    3    0    0 -0.68978501951E-01  0.39372930518E-01 -0.10587925219E+00  0.13957243902E+00  0.44292079443E-01 0.  0.
         14    1    1    2    0    0  0.10348755338E-01 -0.77945681145E-03 -0.94813857241E-02  0.14057061045E-01  0.00000000000E+00 0. -1.
     999901    1    3    3    0    0  0.58629746613E-01 -0.38593473706E-01  0.11536063791E+00  0.89030049993E+00  0.88000000000E+00 0. -1.
        -11    1    4    4    0    0 -0.42212491444E-01  0.59801526506E-04 -0.38767610277E-01  0.57315676195E-01  0.51100000000E-03 0. -1.
         11    1    4    4    0    0 -0.26766010508E-01  0.39313128991E-01 -0.67111641913E-01  0.82256762828E-01  0.51100000000E-03 0.  1.
</event>
<event>
 8    1  0.2877139E+004  0.1043930E+01  0.7957747E-01            NaN
         13   -1    0    0    0    0  0.00000000000E+00  0.00000000000E+00  0.74505805969E-08  0.10566000000E+00  0.10566000000E+00 0.  1.
     999900   -1    0    0    0    0 -0.00000000000E+00 -0.00000000000E+00 -0.74505805969E-08  0.93827000000E+00  0.93827000000E+00 0. -1.
     999902    2    1    2    0    0  0.12796743322E-01  0.94219505553E-02 -0.25891785238E-03  0.10280367049E+01  0.10279138435E+01 0.  0.
     999903    2    3    3    0    0  0.11197636254E+00  0.58271984472E-01  0.44321096833E-01  0.13999937434E+00  0.41244820882E-01 0.  0.
         14    1    1    2    0    0 -0.12796743322E-01 -0.94219505553E-02  0.25891785238E-03  0.15893295139E-01  0.00000000000E+00 0. -1.
     999901    1    3    3    0    0 -0.99179619221E-01 -0.48850033917E-01 -0.44580014686E-01  0.88803733052E+00  0.88000000000E+00 0.  1.
        -11    1    4    4    0    0  0.41638184510E-01  0.34595951549E-02  0.35168168720E-02  0.41932521148E-01  0.51100000000E-03 0.  1.
         11    1    4    4    0    0  0.70338178033E-01  0.54812389317E-01  0.40804279961E-01  0.98066853196E-01  0.51100000000E-03 0. -1.
</event>
<event>
 8    1  0.2877139E+004  0.1043930E+01  0.7957747E-01            NaN
         13   -1    0    0    0    0  0.00000000000E+00  0.00000000000E+00  0.74505805969E-08  0.10566000000E+00  0.10566000000E+00 0. -1.
     999900   -1    0    0    0    0 -0.00000000000E+00 -0.00000000000E+00 -0.74505805969E-08  0.93827000000E+00  0.93827000000E+00 0.  1.
     999902    2    1    2    0    0  0.33700914161E-02 -0.30236849136E-04  0.12020269431E-01  0.10314461982E+01  0.10313706484E+01 0.  0.
     999903    2    3    3    0    0  0.65486683973E-01 -0.86562420834E-01  0.80560959089E-01  0.14237695675E+00  0.44716565226E-01 0.  0.
         14    1    1    2    0    0 -0.33700914161E-02  0.30236849136E-04 -0.12020269431E-01  0.12483801810E-01  0.00000000000E+00 0.  1.
     999901    1    3    3    0    0 -0.62116592557E-01  0.86532183985E-01 -0.68540689658E-01  0.88906924144E+00  0.88000000000E+00 0.  1.
        -11    1    4    4    0    0  0.56014699927E-01 -0.38597632580E-01  0.53112549110E-01  0.86305433449E-01  0.51100000000E-03 0.  1.
         11    1    4    4    0    0  0.94719840460E-02 -0.47964788254E-01  0.27448409979E-01  0.56071523302E-01  0.51100000000E-03 0. -1.
</event>
<event>
 7    1  0.2877139E+004  0.1043930E+01  0.7957747E-01            NaN
         13   -1    0    0    0    0  0.00000000000E+00  0.00000000000E+00  0.74505805969E-08  0.10566000000E+00  0.10566000000E+00 0. -1.
     999900   -1    0    0    0    0 -0.00000000000E+00 -0.00000000000E+00 -0.74505805969E-08  0.93827000000E+00  0.93827000000E+00 0. -1.
     999903    2    1    2    0    0  0.36604121030E-01  0.95839534077E-01  0.51569959222E-01  0.12373460989E+00  0.46105477137E-01 0.  0.
         14    1    1    2    0    0 -0.28281325676E-01 -0.66590391095E-03 -0.19659600086E-01  0.34449625333E-01  0.00000000000E+00 0.  1.
     999901    1    1    2    0    0 -0.83227953539E-02 -0.95173630166E-01 -0.31910359136E-01  0.88574576478E+00  0.88000000000E+00 0.  1.
        -11    1    3    3    0    0  0.97139782781E-02 -0.25684160348E-02  0.17844039872E-02  0.10217795922E-01  0.51100000000E-03 0.  1.
         11    1    3    3    0    0  0.26890142752E-01  0.98407950111E-01  0.49785555235E-01  0.11351681397E+00  0.51100000000E-03 0. -1.
</event>
<event>
 8    1  0.2877139E+004  0.1043930E+01  0.7957747E-01            NaN
         13   -1    0    0    0    0  0.00000000000E+00  0.00000000000E+00  0.74505805969E-08  0.10566000000E+00  0.10566000000E+00 0.  1.
     999900   -1    0    0    0    0 -0.00000000000E+00 -0.00000000000E+00 -0.74505805969E-08  0.93827000000E+00  0.93827000000E+00 0.  1.
     999902    2    1    2    0    0  0.11958181315E-01  0.63781321200E-02 -0.46192428560E-02  0.10296116176E+01  0.10295120529E+01 0.  0.
     999903    2    3    3    0    0 -0.23079582545E-01 -0.10344584429E+00 -0.78193457517E-01  0.13904880918E+00  0.44571792699E-01 0.  0.
         14    1    1    2    0    0 -0.11958181315E-01 -0.63781321200E-02  0.46192428560E-02  0.14318382390E-01  0.00000000000E+00 0.  1.
     999901    1    3    3    0    0  0.35037763860E-01  0.10982397641E+00  0.73574214661E-01  0.89056280843E+00  0.88000000000E+00 0. -1.
        -11    1    4    4    0    0 -0.36554326516E-02 -0.48970253520E-01 -0.61793678939E-01  0.78931411969E-01  0.51100000000E-03 0. -1.
         11    1    4    4    0    0 -0.19424149894E-01 -0.54475590774E-01 -0.16399778579E-01  0.60117397213E-01  0.51100000000E-03 0.  1.
</event>
<event>
 8    1  0.2877139E+004  0.1043930E+01  0.7957747E-01            NaN
         13   -1    0    0    0    0  0.00000000000E+00  0.00000000000E+00  0.74505805969E-08  0.10566000000E+00  0.10566000000E+00 0. -1.
     999900   -1    0    0    0    0 -0.00000000000E+00 -0.00000000000E+00 -0.74505805969E-08  0.93827000000E+00  0.93827000000E+00 0.  1.
     999902    2    1    2    0    0  0.19281631340E-02 -0.11851782848E-01 -0.10934105323E-02  0.10318727152E+01  0.10318022690E+01 0.  0.
     999903    2    3    3    0    0  0.10225004832E+00 -0.70926825087E-01  0.53138560866E-01  0.14254968730E+00  0.44844395409E-01 0.  0.
         14    1    1    2    0    0 -0.19281631340E-02  0.11851782848E-01  0.10934105323E-02  0.12057284784E-01  0.00000000000E+00 0. -1.
     999901    1    3    3    0    0 -0.10032188519E+00  0.59075042238E-01 -0.54231971398E-01  0.88932302792E+00  0.88000000000E+00 0.  1.
        -11    1    4    4    0    0  0.24643771913E-01  0.25210275468E-02  0.15674052970E-01  0.29319074534E-01  0.51100000000E-03 0.  1.
         11    1    4    4    0    0  0.77606276408E-01 -0.73447852633E-01  0.37464507896E-01  0.11323061277E+00  0.51100000000E-03 0. -1.
</event>
<event>
 8    1  0.2877139E+004  0.1043930E+01  0.7957747E-01            NaN
         13   -1    0    0    0    0  0.00000000000E+00  0.00000000000E+00  0.74505805969E-08  0.10566000000E+00  0.10566000000E+00 0.  1.
     999900   -1    0    0    0    0 -0.00000000000E+00 -0.00000000000E+00 -0.74505805969E-08  0.93827000000E+00  0.93827000000E+00 0.  1.
     999902    2    1    2    0    0 -0.62362121385E-03  0.13098488059E-01 -0.49871250010E-02  0.10299003632E+01  0.10298048006E+01 0.  0.
     999903    2    3    3    0    0 -0.80473107386E-01 -0.73434799227E-01  0.72918428074E-01  0.13864662523E+00  0.45135338543E-01 0.  0.
         14    1    1    2    0    0  0.62362121385E-03 -0.13098488059E-01  0.49871250010E-02  0.14029636796E-01  0.00000000000E+00 0.  1.
     999901    1    3    3    0    0  0.79849486172E-01  0.86533287286E-01 -0.77905553075E-01  0.89125373797E+00  0.88000000000E+00 0.  1.
        -11    1    4    4    0    0 -0.45627337175E-01 -0.45818802428E-01  0.68118395105E-01  0.93923338028E-01  0.51100000000E-03 0. -1.
         11    1    4    4    0    0 -0.34845770211E-01 -0.27615996799E-01  0.48000329694E-02  0.44723287204E-01  0.51100000000E-03 0.  1.
</event>
<event>
 8    1  0.2877139E+004  0.1043930E+01  0.7957747E-01            NaN
         13   -1    0    0    0    0  0.00000000000E+00  0.00000000000E+00  0.74505805969E-08  0.10566000000E+00  0.10566000000E+00 0.  1.
     999900   -1    0    0    0    0 -0.00000000000E+00 -0.00000000000E+00 -0.74505805969E-08  0.93827000000E+00  0.93827000000E+00 0. -1.
     999902    2    1    2    0    0  0.10033739694E-01 -0.10010839195E-01 -0.26265039136E-02  0.10295150301E+01  0.10294141081E+01 0.  0.
     999903    2    3    3    0    0  0.10593954573E+00  0.71683873632E-01  0.34265621100E-01  0.13977744037E+00  0.44741870311E-01 0.  0.
         14    1    1    2    0    0 -0.10033739694E-01  0.10010839195E-01  0.26265039136E-02  0.14414969873E-01  0.00000000000E+00 0.  1.
     999901    1    3    3    0    0 -0.95905806037E-01 -0.81694712826E-01 -0.36892125013E-01  0.88973758976E+00  0.88000000000E+00 0.  1.
        -11    1    4    4    0    0  0.94856389181E-01  0.72542801104E-01  0.19050567004E-01  0.12092715900E+00  0.51100000000E-03 0.  1.
         11    1    4    4    0    0  0.11083156550E-01 -0.85892747229E-03  0.15215054096E-01  0.18850281368E-01  0.51100000000E-03 0. -1.
</event>
<event>
 8    1  0.2877139E+004  0.1043930E+01  0.7957747E-01            NaN
         13   -1    0    0    0    0  0.00000000000E+00  0.00000000000E+00  0.74505805969E-08  0.10566000000E+00  0.10566000000E+00 0. -1.
     999900   -1    0    0    0    0 -0.00000000000E+00 -0.00000000000E+00 -0.74505805969E-08  0.93827000000E+00  0.93827000000E+00 0. -1.
     999902    2    1    2    0    0 -0.46103893783E-02 -0.12171165243E-01  0.59727631987E-02  0.10296098445E+01  0.10295102549E+01 0.  0.
     999903    2    3    3    0    0 -0.10477630422E+00  0.67268931916E-01 -0.42130740849E-01  0.13907186853E+00  0.45418081902E-01 0.  0.
         14    1    1    2    0    0  0.46103893783E-02  0.12171165243E-01 -0.59727631987E-02  0.14320155510E-01  0.00000000000E+00 0. -1.
     999901    1    3    3    0    0  0.10016591484E+00 -0.79440097159E-01  0.48103504047E-01  0.89053797596E+00  0.88000000000E+00 0.  1.
        -11    1    4    4    0    0 -0.22414354740E-01 -0.47437867070E-02 -0.10338215796E-01  0.25140537734E-01  0.51100000000E-03 0. -1.
         11    1    4    4    0    0 -0.82361949481E-01  0.72012718623E-01 -0.31792525052E-01  0.11393133079E+00  0.51100000000E-03 0.  1.
</event>
<event>
 8    1  0.2877139E+004  0.1043930E+01  0.7957747E-01            NaN
         13   -1    0    0    0    0  0.00000000000E+00  0.00000000000E+00  0.74505805969E-08  0.10566000000E+00  0.10566000000E+00 0. -1.
     999900   -1    0    0    0    0 -0.00000000000E+00 -0.00000000000E+00 -0.74505805969E-08  0.93827000000E+00  0.93827000000E+00 0. -1.
     999902    2    1    2    0    0  0.79546158425E-02  0.42489600484E-02 -0.89490455386E-02  0.10312250801E+01  0.10311468134E+01 0.  0.
     999903    2    3    3    0    0 -0.34796998526E-01  0.34909024282E-01 -0.12533272925E+00  0.14200469011E+00  0.45028523288E-01 0.  0.
         14    1    1    2    0    0 -0.79546158425E-02 -0.42489600484E-02  0.89490455386E-02  0.12704919943E-01  0.00000000000E+00 0. -1.
     999901    1    3    3    0    0  0.42751614368E-01 -0.30660064233E-01  0.11638368371E+00  0.88922038995E+00  0.88000000000E+00 0.  1.
        -11    1    4    4    0    0 -0.37918894220E-01  0.37006450433E-01 -0.76692113346E-01  0.93216207191E-01  0.51100000000E-03 0. -1.
         11    1    4    4    0    0  0.31218956947E-02 -0.20974261510E-02 -0.48640615900E-01  0.48788482916E-01  0.51100000000E-03 0.  1.
</event>
<event>
 8    1  0.2877139E+004  0.1043930E+01  0.7957747E-01            NaN
         13   -1    0    0    0    0  0.00000000000E+00  0.00000000000E+00  0.74505805969E-08  0.10566000000E+00  0.10566000000E+00 0. -1.
     999900   -1    0    0    0    0 -0.00000000000E+00 -0.00000000000E+00 -0.74505805969E-08  0.93827000000E+00  0.93827000000E+00 0.  1.
     999902    2    1    2    0    0 -0.10231927825E-01 -0.70640650985E-02 -0.60284784647E-02  0.10301120437E+01  0.10300193623E+01 0.  0.
     999903    2    3    3    0    0  0.10102033242E+00 -0.23633876692E-01  0.79096104476E-01  0.13887816944E+00  0.47616011124E-01 0.  0.
         14    1    1    2    0    0  0.10231927825E-01  0.70640650985E-02  0.60284784647E-02  0.13817956264E-01  0.00000000000E+00 0. -1.
     999901    1    3    3    0    0 -0.11125226024E+00  0.16569811593E-01 -0.85124582941E-01  0.89123387429E+00  0.88000000000E+00 0. -1.
        -11    1    4    4    0    0  0.61625472220E-01  0.27761539169E-02  0.24040435846E-01  0.66208832746E-01  0.51100000000E-03 0.  1.
         11    1    4    4    0    0  0.39394860197E-01 -0.26410030608E-01  0.55055668630E-01  0.72669336697E-01  0.51100000000E-03 0. -1.
</event>
<event>
 8    1  0.2877139E+004  0.1043930E+01  0.7957747E-01            NaN
         13   -1    0    0    0    0  0.00000000000E+00  0.00000000000E+00  0.74505805969E-08  0.10566000000E+00  0.10566000000E+00 0. -1.
     999900   -1    0    0    0    0 -0.00000000000E+00 -0.00000000000E+00 -0.74505805969E-08  0.93827000000E+00  0.93827000000E+00 0.  1.
     999902    2    1    2    0    0 -0.11716921640E-01 -0.11654907766E-02 -0.75556525085E-02  0.10299395566E+01  0.10298445309E+01 0.  0.
     999903    2    3    3    0    0  0.89971108049E-02  0.92625914088E-01 -0.95066100636E-01  0.14039811446E+00  0.44872698721E-01 0.  0.
         14    1    1    2    0    0  0.11716921640E-01  0.11654907766E-02  0.75556525085E-02  0.13990443391E-01  0.00000000000E+00 0. -1.
     999901    1    3    3    0    0 -0.20714032444E-01 -0.93791404865E-01  0.87510448128E-01  0.88954144215E+00  0.88000000000E+00 0. -1.
        -11    1    4    4    0    0 -0.14487568506E-01  0.29954023276E-01 -0.48674193691E-01  0.58962457582E-01  0.51100000000E-03 0. -1.
         11    1    4    4    0    0  0.23484679310E-01  0.62671890813E-01 -0.46391906945E-01  0.81435656879E-01  0.51100000000E-03 0.  1.
</event>
<event>
 8    1  0.2877139E+004  0.1043930E+01  0.7957747E-01            NaN
         13   -1    0    0    0    0  0.00000000000E+00  0.00000000000E+00  0.74505805969E-08  0.10566000000E+00  0.10566000000E+00 0.  1.
     999900   -1    0    0    0    0 -0.00000000000E+00 -0.00000000000E+00 -0.74505805969E-08  0.93827000000E+00  0.93827000000E+00 0.  1.
     999902    2    1    2    0    0 -0.11140043796E-01  0.33282563964E-02  0.77849797038E-02  0.10299377244E+01  0.10298426736E+01 0.  0.
     999903    2    3    3    0    0  0.11439354136E+00 -0.29567478440E-01 -0.54640001345E-01  0.13823279082E+00  0.46504372103E-01 0.  0.
         14    1    1    2    0    0  0.11140043796E-01 -0.33282563964E-02 -0.77849797038E-02  0.13992275562E-01  0.00000000000E+00 0. -1.
     999901    1    3    3    0    0 -0.12553358516E+00  0.32895734837E-01  0.62424981049E-01  0.89170493361E+00  0.88000000000E+00 0. -1.
        -11    1    4    4    0    0  0.76120165577E-01 -0.14125470457E-01 -0.11056207366E-01  0.78206837076E-01  0.51100000000E-03 0. -1.
         11    1    4    4    0    0  0.38273375788E-01 -0.15442007983E-01 -0.43583793979E-01  0.60025953748E-01  0.51100000000E-03 0.  1.
</event>
<event>
 8    1  0.2877139E+004  0.1043930E+01  0.7957747E-01            NaN
         13   -1    0    0    0    0  0.00000000000E+00  0.00000000000E+00  0.74505805969E-08  0.10566000000E+00  0.10566000000E+00 0. -1.
     999900   -1    0    0    0    0 -0.00000000000E+00 -0.00000000000E+00 -0.74505805969E-08  0.93827000000E+00  0.93827000000E+00 0.  1.
     999902    2    1    2    0    0  0.80235565977E-02  0.12306406482E-01  0.48182430729E-02  0.10284690632E+01  0.10283528448E+01 0.  0.
     999903    2    3    3    0    0 -0.91269327656E-01  0.81102028594E-01  0.50105362559E-01  0.13906317290E+00  0.43822248755E-01 0.  0.
         14    1    1    2    0    0 -0.80235565977E-02 -0.12306406482E-01 -0.48182430729E-02  0.15460936818E-01  0.00000000000E+00 0. -1.
     999901    1    3    3    0    0  0.99292884253E-01 -0.68795622112E-01 -0.45287119486E-01  0.88940589029E+00  0.88000000000E+00 0.  1.
        -11    1    4    4    0    0 -0.57651915446E-01  0.22057910719E-01  0.25733791735E-01  0.66878875125E-01  0.51100000000E-03 0.  1.
         11    1    4    4    0    0 -0.33617412210E-01  0.59044117875E-01  0.24371570823E-01  0.72184297771E-01  0.51100000000E-03 0. -1.
</event>
<event>
 8    1  0.2877139E+004  0.1043930E+01  0.7957747E-01            NaN
         13   -1    0    0    0    0  0.00000000000E+00  0.00000000000E+00  0.74505805969E-08  0.10566000000E+00  0.10566000000E+00 0.  1.
     999900   -1    0    0    0    0 -0.00000000000E+00 -0.00000000000E+00 -0.74505805969E-08  0.93827000000E+00  0.93827000000E+00 0.  1.
     999902    2    1    2    0    0  0.11239125169E-01  0.39220034840E-02 -0.80674239039E-02  0.10295500357E+01  0.10294496066E+01 0.  0.
     999903    2    3    3    0    0  0.11219152564E+00 -0.60843092506E-02  0.70662267498E-01  0.14023013947E+00  0.45247969274E-01 0.  0.
         14    1    1    2    0    0 -0.11239125169E-01 -0.39220034840E-02  0.80674239039E-02  0.14379964338E-01  0.00000000000E+00 0.  1.
     999901    1    3    3    0    0 -0.10095240047E+00  0.10006312735E-01 -0.78729691402E-01  0.88931989619E+00  0.88000000000E+00 0.  1.
        -11    1    4    4    0    0  0.86803493020E-01  0.13191377182E-01  0.41876014101E-01  0.97276515719E-01  0.51100000000E-03 0. -1.
         11    1    4    4    0    0  0.25388032620E-01 -0.19275686433E-01  0.28786253396E-01  0.42953623751E-01  0.51100000000E-03 0.  1.
</event>
<event>
 8    1  0.2877139E+004  0.1043930E+01  0.7957747E-01            NaN
         13   -1    0    0    0    0  0.00000000000E+00  0.00000000000E+00  0.74505805969E-08  0.10566000000E+00  0.10566000000E+00 0. -1.
     999900   -1    0    0    0    0 -0.00000000000E+00 -0.00000000000E+00 -0.74505805969E-08  0.93827000000E+00  0.93827000000E+00 0.  1.
     999902    2    1    2    0    0 -0.13982356096E-01  0.30102672276E-02  0.22022326608E-02  0.10294587243E+01  0.10293570067E+01 0.  0.
     999903    2    3    3    0    0  0.43976057405E-01  0.11681267899E+00  0.42427487577E-01  0.13933051011E+00  0.45097713331E-01 0.  0.
         14    1    1    2    0    0  0.13982356096E-01 -0.30102672276E-02 -0.22022326608E-02  0.14471275669E-01  0.00000000000E+00 0. -1.
     999901    1    3    3    0    0 -0.57958413501E-01 -0.11380241176E+00 -0.40225254916E-01  0.89012821422E+00  0.88000000000E+00 0. -1.
        -11    1    4    4    0    0  0.14735594278E-01  0.23846850087E-01 -0.85952773382E-02  0.29324902579E-01  0.51100000000E-03 0. -1.
         11    1    4    4    0    0  0.29240463127E-01  0.92965828904E-01  0.51022764915E-01  0.11000560753E+00  0.51100000000E-03 0.  1.
</event>
<event>
 8    1  0.2877139E+004  0.1043930E+01  0.7957747E-01            NaN
         13   -1    0    0    0    0  0.00000000000E+00  0.00000000000E+00  0.74505805969E-08  0.10566000000E+00  0.10566000000E+00 0. -1.
     999900   -1    0    0    0    0 -0.00000000000E+00 -0.00000000000E+00 -0.74505805969E-08  0.93827000000E+00  0.93827000000E+00 0.  1.
     999902    2    1    2    0    0 -0.72086408372E-02  0.10306777562E-01 -0.46905947594E-02  0.10305062954E+01  0.10304188609E+01 0.  0.
     999903    2    3    3    0    0 -0.36421059206E-01  0.95837111005E-01  0.86206760495E-01  0.14121942799E+00  0.44722207989E-01 0.  0.
         14    1    1    2    0    0  0.72086408372E-02 -0.10306777562E-01  0.46905947594E-02  0.13423704617E-01  0.00000000000E+00 0. -1.
     999901    1    3    3    0    0  0.29212418368E-01 -0.85530333443E-01 -0.90897355255E-01  0.88928686739E+00  0.88000000000E+00 0.  1.
        -11    1    4    4    0    0 -0.46186405644E-02  0.71640630473E-01  0.52512771871E-01  0.88946973562E-01  0.51100000000E-03 0.  1.
         11    1    4    4    0    0 -0.31802418641E-01  0.24196480532E-01  0.33693988624E-01  0.52272454428E-01  0.51100000000E-03 0. -1.
</event>
<event>
 8    1  0.2877139E+004  0.1043930E+01  0.7957747E-01            NaN
         13   -1    0    0    0    0  0.00000000000E+00  0.00000000000E+00  0.74505805969E-08  0.10566000000E+00  0.10566000000E+00 0. -1.
     999900   -1    0    0    0    0 -0.00000000000E+00 -0.00000000000E+00 -0.74505805969E-08  0.93827000000E+00  0.93827000000E+00 0.  1.
     999902    2    1    2    0    0  0.43006626622E-02  0.64073419738E-02 -0.11163690843E-01  0.10303587906E+01  0.10302694112E+01 0.  0.
     999903    2    3    3    0    0 -0.12838161881E+00  0.32952129842E-01 -0.57404569973E-02  0.14000008480E+00  0.44714516545E-01 0.  0.
         14    1    1    2    0    0 -0.43006626622E-02 -0.64073419738E-02  0.11163690843E-01  0.13571209369E-01  0.00000000000E+00 0. -1.
     999901    1    3    3    0    0  0.13268228147E+00 -0.26544787868E-01 -0.54232338459E-02  0.89035870583E+00  0.88000000000E+00 0. -1.
        -11    1    4    4    0    0 -0.50249843833E-01 -0.75388312218E-02 -0.10426347530E-01  0.51873409616E-01  0.51100000000E-03 0.  1.
         11    1    4    4    0    0 -0.78131774973E-01  0.40490961063E-01  0.46858905328E-02  0.88126675186E-01  0.51100000000E-03 0. -1.
</event>
<event>
 8    1  0.2877139E+004  0.1043930E+01  0.7957747E-01            NaN
         13   -1    0    0    0    0  0.00000000000E+00  0.00000000000E+00  0.74505805969E-08  0.10566000000E+00  0.10566000000E+00 0. -1.
     999900   -1    0    0    0    0 -0.00000000000E+00 -0.00000000000E+00 -0.74505805969E-08  0.93827000000E+00  0.93827000000E+00 0. -1.
     999902    2    1    2    0    0 -0.47183710483E-02  0.20313042983E-02  0.12600967327E-01  0.10303221493E+01  0.10302322834E+01 0.  0.
     999903    2    3    3    0    0  0.40453922470E-01 -0.69417416878E-01  0.10709693724E+00  0.14123557075E+00  0.44971489530E-01 0.  0.
         14    1    1    2    0    0  0.47183710483E-02 -0.20313042983E-02 -0.12600967327E-01  0.13607850678E-01  0.00000000000E+00 0.  1.
     999901    1    3    3    0    0 -0.45172293519E-01  0.71448721176E-01 -0.94495969914E-01  0.88908657857E+00  0.88000000000E+00 0. -1.
        -11    1    4    4    0    0  0.15118522268E-01 -0.25246815592E-01  0.76165394137E-01  0.81654147465E-01  0.51100000000E-03 0. -1.
         11    1    4    4    0    0  0.25335400203E-01 -0.44170601286E-01  0.30931543104E-01  0.59581423289E-01  0.51100000000E-03 0.  1.
</event>
<event>
 8    1  0.2877139E+004  0.1043930E+01  0.7957747E-01            NaN
         13   -1    0    0    0    0  0.00000000000E+00  0.00000000000E+00  0.74505805969E-08  0.10566000000E+00  0.10566000000E+00 0. -1.
     999900   -1    0    0    0    0 -0.00000000000E+00 -0.00000000000E+00 -0.74505805969E-08  0.93827000000E+00  0.93827000000E+00 0. -1.
     999902    2    1    2    0    0 -0.60949376324E-02  0.12096232193E-01 -0.11045367226E-02  0.10303400368E+01  0.10302504086E+01 0.  0.
     999903    2    3    3    0    0  0.73822949798E-01  0.41298158013E-01 -0.10275359654E+00  0.14041186411E+00  0.44741750180E-01 0.  0.
         14    1    1    2    0    0  0.60949376324E-02 -0.12096232193E-01  0.11045367226E-02  0.13589963186E-01  0.00000000000E+00 0.  1.
     999901    1    3    3    0    0 -0.79917887430E-01 -0.29201925820E-01  0.10164905982E+00  0.88992817270E+00  0.88000000000E+00 0.  1.
        -11    1    4    4    0    0 -0.14992051734E-02 -0.55961413961E-02 -0.12810819114E-01  0.14069208295E-01  0.51100000000E-03 0. -1.
         11    1    4    4    0    0  0.75322154971E-01  0.46894299409E-01 -0.89942777430E-01  0.12634265582E+00  0.51100000000E-03 0.  1.
</event>
<event>
 8    1  0.2877139E+004  0.1043930E+01  0.7957747E-01            NaN
         13   -1    0    0    0    0  0.00000000000E+00  0.00000000000E+00  0.74505805969E-08  0.10566000000E+00  0.10566000000E+00 0.  1.
     999900   -1    0    0    0    0 -0.00000000000E+00 -0.00000000000E+00 -0.74505805969E-08  0.93827000000E+00  0.93827000000E+00 0.  1.
     999902    2    1    2    0    0 -0.21754961528E-02  0.10494461456E-01 -0.41454467282E-02  0.10324386453E+01  0.10323746922E+01 0.  0.
     999903    2    3    3    0    0  0.11028729467E+00  0.60289184455E-02 -0.77254242427E-01  0.14226297924E+00  0.45507165002E-01 0.  0.
         14    1    1    2    0    0  0.21754961528E-02 -0.10494461456E-01  0.41454467282E-02  0.11491354721E-01  0.00000000000E+00 0.  1.
     999901    1    3    3    0    0 -0.11246279082E+00  0.44655430102E-02  0.73108795699E-01  0.89017566604E+00  0.88000000000E+00 0. -1.
        -11    1    4    4    0    0  0.10085802852E+00 -0.43678895497E-03 -0.49729192916E-01  0.11245348572E+00  0.51100000000E-03 0. -1.
         11    1    4    4    0    0  0.94292661467E-02  0.64657074005E-02 -0.27525049511E-01  0.29809493519E-01  0.51100000000E-03 0.  1.
</event>
<event>
 8    1  0.2877139E+004  0.1043930E+01  0.7957747E-01            NaN
         13   -1    0    0    0    0  0.00000000000E+00  0.00000000000E+00  0.74505805969E-08  0.10566000000E+00  0.10566000000E+00 0. -1.
     999900   -1    0    0    0    0 -0.00000000000E+00 -0.00000000000E+00 -0.74505805969E-08  0.93827000000E+00  0.93827000000E+00 0. -1.
     999902    2    1    2    0    0  0.35916384754E-02  0.27469156905E-02  0.13204363901E-01  0.10299729001E+01  0.10298783298E+01 0.  0.
     999903    2    3    3    0    0 -0.67131542478E-01 -0.10458965464E+00 -0.45385061903E-01  0.13870659391E+00  0.41642232157E-01 0.  0.
         14    1    1    2    0    0 -0.35916384754E-02 -0.27469156905E-02 -0.13204363901E-01  0.13957099941E-01  0.00000000000E+00 0.  1.
     999901    1    3    3    0    0  0.70723180953E-01  0.10733657033E+00  0.58589425803E-01  0.89126630615E+00  0.88000000000E+00 0.  1.
        -11    1    4    4    0    0 -0.58891945046E-01 -0.55484907610E-01 -0.23052087230E-01  0.84133798265E-01  0.51100000000E-03 0.  1.
         11    1    4    4    0    0 -0.82395974324E-02 -0.49104747025E-01 -0.22332974672E-01  0.54572795649E-01  0.51100000000E-03 0. -1.
</event>
<event>
 8    1  0.2877139E+004  0.1043930E+01  0.7957747E-01            NaN
         13   -1    0    0    0    0  0.00000000000E+00  0.00000000000E+00  0.74505805969E-08  0.10566000000E+00  0.10566000000E+00 0. -1.
     999900   -1    0    0    0    0 -0.00000000000E+00 -0.00000000000E+00 -0.74505805969E-08  0.93827000000E+00  0.93827000000E+00 0.  1.
     999902    2    1    2    0    0 -0.63672841144E-02  0.54299383224E-02 -0.11430930679E-01  0.10297633944E+01  0.10296659438E+01 0.  0.
     999903    2    3    3    0    0  0.11852054650E-01 -0.82638335187E-01  0.10045411269E+00  0.13813217692E+00  0.44943341019E-01 0.  0.
         14    1    1    2    0    0  0.63672841144E-02 -0.54299383224E-02  0.11430930679E-01  0.14166605570E-01  0.00000000000E+00 0. -1.
     999901    1    3    3    0    0 -0.18219338765E-01  0.88068273510E-01 -0.11188504337E+00  0.89163121751E+00  0.88000000000E+00 0.  1.
        -11    1    4    4    0    0  0.76858257506E-02 -0.60549591560E-01  0.38355166785E-01  0.72088174451E-01  0.51100000000E-03 0. -1.
         11    1    4    4    0    0  0.41662288995E-02 -0.22088743627E-01  0.62098945910E-01  0.66044002471E-01  0.51100000000E-03 0.  1.
</event>
<event>
 8    1  0.2877139E+004  0.1043930E+01  0.7957747E-01            NaN
         13   -1    0    0    0    0  0.00000000000E+00  0.00000000000E+00  0.74505805969E-08  0.10566000000E+00  0.10566000000E+00 0. -1.
     999900   -1    0    0    0    0 -0.00000000000E+00 -0.00000000000E+00 -0.74505805969E-08  0.93827000000E+00  0.93827000000E+00 0. -1.
     999902    2    1    2    0    0 -0.46505993089E-02  0.18697649863E-02 -0.12957937446E-01  0.10300363958E+01  0.10299426899E+01 0.  0.
     999903    2    3    3    0    0  0.91338135064E-01  0.22241106564E-01 -0.94873003889E-01  0.14080138366E+00  0.44573770724E-01 0.  0.
         14    1    1    2    0    0  0.46505993089E-02 -0.18697649863E-02  0.12957937446E-01  0.13893604208E-01  0.00000000000E+00 0. -1.
     999901    1    3    3    0    0 -0.95988734373E-01 -0.20371341578E-01  0.81915066443E-01  0.88923501213E+00  0.88000000000E+00 0.  1.
        -11    1    4    4    0    0  0.38991440318E-01  0.14775688083E-01 -0.71964914165E-01  0.83173693967E-01  0.51100000000E-03 0.  1.
         11    1    4    4    0    0  0.52346694746E-01  0.74654184806E-02 -0.22908089724E-01  0.57627689697E-01  0.51100000000E-03 0. -1.
</event>
<event>
 8    1  0.2877139E+004  0.1043930E+01  0.7957747E-01            NaN
         13   -1    0    0    0    0  0.00000000000E+00  0.00000000000E+00  0.74505805969E-08  0.10566000000E+00  0.10566000000E+00 0. -1.
     999900   -1    0    0    0    0 -0.00000000000E+00 -0.00000000000E+00 -0.74505805969E-08  0.93827000000E+00  0.93827000000E+00 0. -1.
     999902    2    1    2    0    0 -0.14789696361E-02 -0.13200948673E-01  0.50576115721E-02  0.10297162098E+01  0.10296181044E+01 0.  0.
     999903    2    3    3    0    0 -0.90942300622E-01  0.92386259499E-01 -0.18295673318E-01  0.13859460079E+00  0.45475363886E-01 0.  0.
         14    1    1    2    0    0  0.14789696361E-02  0.13200948673E-01 -0.50576115721E-02  0.14213790201E-01  0.00000000000E+00 0. -1.
     999901    1    3    3    0    0  0.89463330986E-01 -0.10558720817E+00  0.23353284890E-01  0.89112160901E+00  0.88000000000E+00 0.  1.
        -11    1    4    4    0    0 -0.22721011681E-01  0.26592619495E-01 -0.25877160779E-01  0.43512071364E-01  0.51100000000E-03 0.  1.
         11    1    4    4    0    0 -0.68221288941E-01  0.65793640004E-01  0.75814874611E-02  0.95082529430E-01  0.51100000000E-03 0. -1.
</event>
<event>
 8    1  0.2877139E+004  0.1043930E+01  0.7957747E-01            NaN
         13   -1    0    0    0    0  0.00000000000E+00  0.00000000000E+00  0.74505805969E-08  0.10566000000E+00  0.10566000000E+00 0.  1.
     999900   -1    0    0    0    0 -0.00000000000E+00 -0.00000000000E+00 -0.74505805969E-08  0.93827000000E+00  0.93827000000E+00 0.  1.
     999902    2    1    2    0    0  0.83113263543E-02 -0.11106092494E-01  0.24331610001E-02  0.10298465449E+01  0.10297502427E+01 0.  0.
     999903    2    3    3    0    0  0.35813491467E-01 -0.84319898247E-01  0.98099494121E-01  0.14121350601E+00  0.43878150848E-01 0.  0.
         14    1    1    2    0    0 -0.83113263543E-02  0.11106092494E-01 -0.24331610001E-02  0.14083455141E-01  0.00000000000E+00 0.  1.
     999901    1    3    3    0    0 -0.27502165113E-01  0.73213805753E-01 -0.95666333121E-01  0.88863303885E+00  0.88000000000E+00 0.  1.
        -11    1    4    4    0    0  0.21343517099E-01 -0.78690495360E-01  0.63698061875E-01  0.10346711550E+00  0.51100000000E-03 0. -1.
         11    1    4    4    0    0  0.14469974368E-01 -0.56294028865E-02  0.34401432247E-01  0.37746390512E-01  0.51100000000E-03 0.  1.
</event>
<event>
 8    1  0.2877139E+004  0.1043930E+01  0.7957747E-01            NaN
         13   -1    0    0    0    0  0.00000000000E+00  0.00000000000E+00  0.74505805969E-08  0.10566000000E+00  0.10566000000E+00 0.  1.
     999900   -1    0    0    0    0 -0.00000000000E+00 -0.00000000000E+00 -0.74505805969E-08  0.93827000000E+00  0.93827000000E+00 0. -1.
     999902    2    1    2    0    0 -0.83230976350E-02  0.10978674661E-02 -0.23594248077E-01  0.10188866813E+01  0.10185788637E+01 0.  0.
     999903    2    3    3    0    0  0.23643733134E-01  0.97813986914E-01  0.65889496782E-01  0.12850292889E+00  0.45221397531E-01 0.  0.
         14    1    1    2    0    0  0.83230976350E-02 -0.10978674661E-02  0.23594248077E-01  0.25043318661E-01  0.00000000000E+00 0.  1.
     999901    1    3    3    0    0 -0.31966830769E-01 -0.96716119448E-01 -0.89483744859E-01  0.89038375245E+00  0.88000000000E+00 0. -1.
        -11    1    4    4    0    0  0.97132721397E-03  0.10920931003E-01  0.29732401003E-01  0.31693642911E-01  0.51100000000E-03 0.  1.
         11    1    4    4    0    0  0.22672405920E-01  0.86893055911E-01  0.36157095779E-01  0.96809285980E-01  0.51100000000E-03 0. -1.
</event>
<event>
 8    1  0.2877139E+004  0.1043930E+01  0.7957747E-01            NaN
         13   -1    0    0    0    0  0.00000000000E+00  0.00000000000E+00  0.74505805969E-08  0.10566000000E+00  0.10566000000E+00 0.  1.
     999900   -1    0    0    0    0 -0.00000000000E+00 -0.00000000000E+00 -0.74505805969E-08  0.93827000000E+00  0.93827000000E+00 0. -1.
     999902    2    1    2    0    0 -0.57968351702E-02 -0.39087405241E-02  0.11874696697E-01  0.10301499430E+01  0.10300577727E+01 0.  0.
     999903    2    3    3    0    0  0.89498422269E-01  0.20488847502E-01  0.96547868966E-01  0.14062986196E+00  0.45005628676E-01 0.  0.
         14    1    1    2    0    0  0.57968351702E-02  0.39087405241E-02 -0.11874696697E-01  0.13780057044E-01  0.00000000000E+00 0. -1.
     999901    1    3    3    0    0 -0.95295257440E-01 -0.24397588026E-01 -0.84673172269E-01  0.88952008100E+00  0.88000000000E+00 0. -1.
        -11    1    4    4    0    0  0.56871398791E-01  0.18956059414E-01  0.88656843101E-01  0.10702329251E+00  0.51100000000E-03 0.  1.
         11    1    4    4    0    0  0.32627023478E-01  0.15327880880E-02  0.78910258650E-02  0.33606569456E-01  0.51100000000E-03 0. -1.
</event>
<event>
 8    1  0.2877139E+004  0.1043930E+01  0.7957747E-01            NaN
         13   -1    0    0    0    0  0.00000000000E+00  0.00000000000E+00  0.74505805969E-08  0.10566000000E+00  0.10566000000E+00 0.  1.
     999900   -1    0    0    0    0 -0.00000000000E+00 -0.00000000000E+00 -0.74505805969E-08  0.93827000000E+00  0.93827000000E+00 0.  1.
     999902    2    1    2    0    0 -0.52917732252E-02 -0.11968726236E-01 -0.38920121982E-02  0.10302771237E+01  0.10301866582E+01 0.  0.
     999903    2    3    3    0    0 -0.91360237123E-01  0.93925022890E-01  0.16658695793E-01  0.13952261311E+00  0.44949355636E-01 0.  0.
         14    1    1    2    0    0  0.52917732252E-02  0.11968726236E-01  0.38920121982E-02  0.13652876273E-01  0.00000000000E+00 0.  1.
     999901    1    3    3    0    0  0.86068463898E-01 -0.10589374913E+00 -0.20550707991E-01  0.89075451061E+00  0.88000000000E+00 0.  1.
        -11    1    4    4    0    0 -0.44966378670E-01  0.17791819088E-01 -0.21292332080E-02  0.48407838128E-01  0.51100000000E-03 0. -1.
         11    1    4    4    0    0 -0.46393858453E-01  0.76133203802E-01  0.18787929001E-01  0.91114774984E-01  0.51100000000E-03 0.  1.
</event>
<event>
 8    1  0.2877139E+004  0.1043930E+01  0.7957747E-01            NaN
         13   -1    0    0    0    0  0.00000000000E+00  0.00000000000E+00  0.74505805969E-08  0.10566000000E+00  0.10566000000E+00 0. -1.
     999900   -1    0    0    0    0 -0.00000000000E+00 -0.00000000000E+00 -0.74505805969E-08  0.93827000000E+00  0.93827000000E+00 0.  1.
     999902    2    1    2    0    0  0.69104565756E-02 -0.96317643692E-02  0.65748657173E-02  0.10303744051E+01  0.10302852326E+01 0.  0.
     999903    2    3    3    0    0  0.36706813932E-01 -0.88128444763E-01 -0.92331829827E-01  0.14086213074E+00  0.46935701891E-01 0.  0.
         14    1    1    2    0    0 -0.69104565756E-02  0.96317643692E-02 -0.65748657173E-02  0.13555594939E-01  0.00000000000E+00 0.  1.
     999901    1    3    3    0    0 -0.29796357356E-01  0.78496680394E-01  0.98906695545E-01  0.88951227432E+00  0.88000000000E+00 0. -1.
        -11    1    4    4    0    0  0.27658072011E-01 -0.14396064944E-01 -0.36022073361E-01  0.47645215116E-01  0.51100000000E-03 0.  1.
         11    1    4    4    0    0  0.90487419206E-02 -0.73732379819E-01 -0.56309756466E-01  0.93216915624E-01  0.51100000000E-03 0. -1.
</event>
<event>
 8    1  0.2877139E+004  0.1043930E+01  0.7957747E-01            NaN
         13   -1    0    0    0    0  0.00000000000E+00  0.00000000000E+00  0.74505805969E-08  0.10566000000E+00  0.10566000000E+00 0. -1.
     999900   -1    0    0    0    0 -0.00000000000E+00 -0.00000000000E+00 -0.74505805969E-08  0.93827000000E+00  0.93827000000E+00 0.  1.
     999902    2    1    2    0    0 -0.78540079996E-02 -0.54460809518E-02  0.90988141906E-02  0.10307340287E+01  0.10306495545E+01 0.  0.
     999903    2    3    3    0    0  0.42935823657E-01  0.45197071590E-01 -0.11589406841E+00  0.13901234755E+00  0.44796623158E-01 0.  0.
         14    1    1    2    0    0  0.78540079996E-02  0.54460809518E-02 -0.90988141906E-02  0.13195971320E-01  0.00000000000E+00 0.  1.
     999901    1    3    3    0    0 -0.50789831656E-01 -0.50643152542E-01  0.12499288260E+00  0.89172168113E+00  0.88000000000E+00 0. -1.
        -11    1    4    4    0    0  0.37557751083E-01  0.81840163327E-02 -0.69437593232E-01  0.79368780163E-01  0.51100000000E-03 0. -1.
         11    1    4    4    0    0  0.53780725744E-02  0.37013055257E-01 -0.46456475174E-01  0.59643567387E-01  0.51100000000E-03 0.  1.
</event>
