<event>
 8    1  0.1081309E+005  0.1043930E+01  0.7957747E-01            NaN
         13   -1    0    0    0    0  0.00000000000E+00  0.00000000000E+00  0.74505805969E-08  0.10566000000E+00  0.10566000000E+00 0. -1.
     999900   -1    0    0    0    0 -0.00000000000E+00 -0.00000000000E+00 -0.74505805969E-08  0.93827000000E+00  0.93827000000E+00 0.  1.
     999902    2    1    2    0    0 -0.42940553127E-02  0.12795913668E-01 -0.37555956059E-02  0.10299200458E+01  0.10298247530E+01 0.  0.
     999903    2    3    3    0    0 -0.75987759127E-01  0.44808856386E-01  0.10633097264E+00  0.13959209042E+00  0.19942487729E-01 0.  0.
         14    1    1    2    0    0  0.42940553127E-02 -0.12795913668E-01  0.37555956059E-02  0.14009954175E-01  0.00000000000E+00 0.  1.
     999901    1    3    3    0    0  0.71693703814E-01 -0.32012942718E-01 -0.11008656825E+00  0.89032795541E+00  0.88000000000E+00 0.  1.
        -11    1    4    4    0    0 -0.39044869003E-01  0.33459935005E-01  0.66873013692E-01  0.84358343554E-01  0.51100000000E-03 0.  1.
         11    1    4    4    0    0 -0.36942890124E-01  0.11348921382E-01  0.39457958951E-01  0.55233746865E-01  0.51100000000E-03 0. -1.
</event>
<event>
 8    1  0.1081309E+005  0.1043930E+01  0.7957747E-01            NaN
         13   -1    0    0    0    0  0.00000000000E+00  0.00000000000E+00  0.74505805969E-08  0.10566000000E+00  0.10566000000E+00 0. -1.
     999900   -1    0    0    0    0 -0.00000000000E+00 -0.00000000000E+00 -0.74505805969E-08  0.93827000000E+00  0.93827000000E+00 0.  1.
     999902    2    1    2    0    0 -0.18212017969E-01  0.81834810859E-03 -0.15946443334E-01  0.10197094231E+01  0.10194217337E+01 0.  0.
     999903    2    3    3    0    0 -0.82977463316E-01  0.13290929144E-01  0.97773293968E-01  0.12994411309E+00  0.16246454884E-01 0.  0.
         14    1    1    2    0    0  0.18212017969E-01 -0.81834810859E-03  0.15946443334E-01  0.24220576937E-01  0.00000000000E+00 0. -1.
     999901    1    3    3    0    0  0.64765445347E-01 -0.12472581035E-01 -0.11371973730E+00  0.88976530998E+00  0.88000000000E+00 0.  1.
        -11    1    4    4    0    0 -0.44640352272E-01 -0.77515166848E-03  0.47894451112E-01  0.65479015565E-01  0.51100000000E-03 0.  1.
         11    1    4    4    0    0 -0.38337111044E-01  0.14066080812E-01  0.49878842856E-01  0.64465097520E-01  0.51100000000E-03 0. -1.
</event>
<event>
 8    1  0.1081309E+005  0.1043930E+01  0.7957747E-01            NaN
         13   -1    0    0    0    0  0.00000000000E+00  0.00000000000E+00  0.74505805969E-08  0.10566000000E+00  0.10566000000E+00 0. -1.
     999900   -1    0    0    0    0 -0.00000000000E+00 -0.00000000000E+00 -0.74505805969E-08  0.93827000000E+00  0.93827000000E+00 0. -1.
     999902    2    1    2    0    0 -0.71662918761E-02 -0.11370222323E-01  0.18648065767E-01  0.10209433071E+01  0.10206844998E+01 0.  0.
     999903    2    3    3    0    0  0.13136306980E-01 -0.91889118506E-01 -0.89576562929E-01  0.13043330802E+00  0.19305816555E-01 0.  0.
         14    1    1    2    0    0  0.71662918761E-02  0.11370222323E-01 -0.18648065767E-01  0.22986692928E-01  0.00000000000E+00 0. -1.
     999901    1    3    3    0    0 -0.20302598856E-01  0.80518896184E-01  0.10822462870E+00  0.89050999906E+00  0.88000000000E+00 0.  1.
        -11    1    4    4    0    0 -0.16337707947E-02 -0.13237717920E-01 -0.21797780383E-01  0.25559943924E-01  0.51100000000E-03 0. -1.
         11    1    4    4    0    0  0.14770077774E-01 -0.78651400586E-01 -0.67778782546E-01  0.10487336409E+00  0.51100000000E-03 0.  1.
</event>
<event>
 7    1  0.1081309E+005  0.1043930E+01  0.7957747E-01            NaN
         13   -1    0    0    0    0  0.00000000000E+00  0.00000000000E+00  0.74505805969E-08  0.10566000000E+00  0.10566000000E+00 0.  1.
     999900   -1    0    0    0    0 -0.00000000000E+00 -0.00000000000E+00 -0.74505805969E-08  0.93827000000E+00  0.93827000000E+00 0.  1.
     999903    2    1    2    0    0 -0.66622474401E-01 -0.31653395798E-01 -0.27212095305E-01  0.79136211086E-01  0.90305156718E-02 0.  0.
         14    1    1    2    0    0  0.17205843261E-01 -0.62838755776E-01 -0.38922961066E-01  0.75892998149E-01  0.00000000000E+00 0. -1.
     999901    1    1    2    0    0  0.49416631140E-01  0.94492151575E-01  0.66135056371E-01  0.88890079077E+00  0.88000000000E+00 0.  1.
        -11    1    3    3    0    0 -0.50934638529E-01 -0.26760296620E-01 -0.24203120925E-01  0.62421975784E-01  0.51100000000E-03 0.  1.
         11    1    3    3    0    0 -0.15687835872E-01 -0.48930991783E-02 -0.30089743802E-02  0.16714235302E-01  0.51100000000E-03 0. -1.
</event>
<event>
 8    1  0.1081309E+005  0.1043930E+01  0.7957747E-01            NaN
         13   -1    0    0    0    0  0.00000000000E+00  0.00000000000E+00  0.74505805969E-08  0.10566000000E+00  0.10566000000E+00 0. -1.
     999900   -1    0    0    0    0 -0.00000000000E+00 -0.00000000000E+00 -0.74505805969E-08  0.93827000000E+00  0.93827000000E+00 0.  1.
     999902    2    1    2    0    0  0.43085320334E-02 -0.17208370248E-01  0.14345576268E-01  0.10211158155E+01  0.10208609218E+01 0.  0.
     999903    2    3    3    0    0  0.44082548588E-01 -0.11301825231E+00  0.53394013565E-01  0.13416244226E+00  0.20790473379E-01 0.  0.
         14    1    1    2    0    0 -0.43085320334E-02  0.17208370248E-01 -0.14345576268E-01  0.22814184476E-01  0.00000000000E+00 0.  1.
     999901    1    3    3    0    0 -0.39774016555E-01  0.95809882059E-01 -0.39048437298E-01  0.88695337327E+00  0.88000000000E+00 0.  1.
        -11    1    4    4    0    0  0.33767228972E-01 -0.95138362376E-01  0.36055293313E-01  0.10719971569E+00  0.51100000000E-03 0. -1.
         11    1    4    4    0    0  0.10315319616E-01 -0.17879889930E-01  0.17338720252E-01  0.26962726563E-01  0.51100000000E-03 0.  1.
</event>
<event>
 8    1  0.1081309E+005  0.1043930E+01  0.7957747E-01            NaN
         13   -1    0    0    0    0  0.00000000000E+00  0.00000000000E+00  0.74505805969E-08  0.10566000000E+00  0.10566000000E+00 0. -1.
     999900   -1    0    0    0    0 -0.00000000000E+00 -0.00000000000E+00 -0.74505805969E-08  0.93827000000E+00  0.93827000000E+00 0.  1.
     999902    2    1    2    0    0  0.22260983970E-01  0.37234821333E-02  0.93791699452E-02  0.10194885484E+01  0.10191955238E+01 0.  0.
     999903    2    3    3    0    0 -0.68680789578E-01 -0.91168778574E-01  0.55610048362E-01  0.12852713431E+00  0.19948677415E-01 0.  0.
         14    1    1    2    0    0 -0.22260983970E-01 -0.37234821333E-02 -0.93791699452E-02  0.24441451581E-01  0.00000000000E+00 0. -1.
     999901    1    3    3    0    0  0.90941773548E-01  0.94892260707E-01 -0.46230878417E-01  0.89096141411E+00  0.88000000000E+00 0.  1.
        -11    1    4    4    0    0 -0.13931233650E-01 -0.30999855201E-01  0.10878028870E-01  0.35688414459E-01  0.51100000000E-03 0.  1.
         11    1    4    4    0    0 -0.54749555929E-01 -0.60168923372E-01  0.44732019492E-01  0.92838719848E-01  0.51100000000E-03 0. -1.
</event>
<event>
 8    1  0.1081309E+005  0.1043930E+01  0.7957747E-01            NaN
         13   -1    0    0    0    0  0.00000000000E+00  0.00000000000E+00  0.74505805969E-08  0.10566000000E+00  0.10566000000E+00 0. -1.
     999900   -1    0    0    0    0 -0.00000000000E+00 -0.00000000000E+00 -0.74505805969E-08  0.93827000000E+00  0.93827000000E+00 0.  1.
     999902    2    1    2    0    0 -0.20478545710E-01 -0.20633067178E-02  0.13148999127E-01  0.10195061541E+01  0.10192135567E+01 0.  0.
     999903    2    3    3    0    0  0.10164747709E+00 -0.59573099091E-01 -0.44196350645E-01  0.12736791888E+00  0.19700396300E-01 0.  0.
         14    1    1    2    0    0  0.20478545710E-01  0.20633067178E-02 -0.13148999127E-01  0.24423845870E-01  0.00000000000E+00 0.  1.
     999901    1    3    3    0    0 -0.12212602280E+00  0.57509792373E-01  0.57345349772E-01  0.89213823526E+00  0.88000000000E+00 0.  1.
        -11    1    4    4    0    0  0.19055776126E-01 -0.28911901064E-02 -0.69309806534E-02  0.20488562610E-01  0.51100000000E-03 0. -1.
         11    1    4    4    0    0  0.82591700963E-01 -0.56681908985E-01 -0.37265369992E-01  0.10687935627E+00  0.51100000000E-03 0.  1.
</event>
<event>
 8    1  0.1081309E+005  0.1043930E+01  0.7957747E-01            NaN
         13   -1    0    0    0    0  0.00000000000E+00  0.00000000000E+00  0.74505805969E-08  0.10566000000E+00  0.10566000000E+00 0. -1.
     999900   -1    0    0    0    0 -0.00000000000E+00 -0.00000000000E+00 -0.74505805969E-08  0.93827000000E+00  0.93827000000E+00 0.  1.
     999902    2    1    2    0    0 -0.78528976816E-02 -0.66606634640E-02  0.20213414913E-01  0.10212448819E+01  0.10209928963E+01 0.  0.
     999903    2    3    3    0    0  0.85552802475E-01  0.84298968485E-01 -0.42992786490E-01  0.12939663061E+00  0.21668184625E-01 0.  0.
         14    1    1    2    0    0  0.78528976816E-02  0.66606634640E-02 -0.20213414913E-01  0.22685118079E-01  0.00000000000E+00 0.  1.
     999901    1    3    3    0    0 -0.93405700156E-01 -0.90959631949E-01  0.63206201403E-01  0.89184825131E+00  0.88000000000E+00 0. -1.
        -11    1    4    4    0    0  0.56361064131E-01  0.50834168662E-01 -0.16464941879E-01  0.77666193969E-01  0.51100000000E-03 0. -1.
         11    1    4    4    0    0  0.29191738344E-01  0.33464799822E-01 -0.26527844610E-01  0.51730436644E-01  0.51100000000E-03 0.  1.
</event>
<event>
 8    1  0.1081309E+005  0.1043930E+01  0.7957747E-01            NaN
         13   -1    0    0    0    0  0.00000000000E+00  0.00000000000E+00  0.74505805969E-08  0.10566000000E+00  0.10566000000E+00 0.  1.
     999900   -1    0    0    0    0 -0.00000000000E+00 -0.00000000000E+00 -0.74505805969E-08  0.93827000000E+00  0.93827000000E+00 0. -1.
     999902    2    1    2    0    0  0.38949866554E-02 -0.36991420661E-02 -0.22290344194E-01  0.10210015457E+01  0.10207440631E+01 0.  0.
     999903    2    3    3    0    0  0.80200710302E-01 -0.10235066883E+00  0.54697597588E-02  0.13177417849E+00  0.20656778577E-01 0.  0.
         14    1    1    2    0    0 -0.38949866554E-02  0.36991420661E-02  0.22290344194E-01  0.22928454317E-01  0.00000000000E+00 0.  1.
     999901    1    3    3    0    0 -0.76305723646E-01  0.98651526767E-01 -0.27760103953E-01  0.88922736719E+00  0.88000000000E+00 0. -1.
        -11    1    4    4    0    0  0.53158222436E-02 -0.11595431698E-01  0.60103654226E-02  0.14110195459E-01  0.51100000000E-03 0.  1.
         11    1    4    4    0    0  0.74884888058E-01 -0.90755237136E-01 -0.54060566384E-03  0.11766398303E+00  0.51100000000E-03 0. -1.
</event>
<event>
 8    1  0.1081309E+005  0.1043930E+01  0.7957747E-01            NaN
         13   -1    0    0    0    0  0.00000000000E+00  0.00000000000E+00  0.74505805969E-08  0.10566000000E+00  0.10566000000E+00 0. -1.
     999900   -1    0    0    0    0 -0.00000000000E+00 -0.00000000000E+00 -0.74505805969E-08  0.93827000000E+00  0.93827000000E+00 0.  1.
     999902    2    1    2    0    0 -0.22795269440E-01 -0.76905953452E-03 -0.68770612382E-02  0.10201075372E+01  0.10198293376E+01 0.  0.
     999903    2    3    3    0    0 -0.14968482691E-02 -0.11674303930E+00  0.53841514288E-01  0.13016915051E+00  0.20345056002E-01 0.  0.
         14    1    1    2    0    0  0.22795269440E-01  0.76905953452E-03  0.68770612382E-02  0.23822462776E-01  0.00000000000E+00 0. -1.
     999901    1    3    3    0    0 -0.21298421171E-01  0.11597397977E+00 -0.60718575526E-01  0.88993838671E+00  0.88000000000E+00 0. -1.
        -11    1    4    4    0    0 -0.86229834593E-02 -0.24473967821E-01  0.10994873965E-01  0.28186509524E-01  0.51100000000E-03 0. -1.
         11    1    4    4    0    0  0.71261351902E-02 -0.92269071484E-01  0.42846640323E-01  0.10198264099E+00  0.51100000000E-03 0.  1.
</event>
<event>
 8    1  0.1081309E+005  0.1043930E+01  0.7957747E-01            NaN
         13   -1    0    0    0    0  0.00000000000E+00  0.00000000000E+00  0.74505805969E-08  0.10566000000E+00  0.10566000000E+00 0.  1.
     999900   -1    0    0    0    0 -0.00000000000E+00 -0.00000000000E+00 -0.74505805969E-08  0.93827000000E+00  0.93827000000E+00 0.  1.
     999902    2    1    2    0    0 -0.20869296232E-01  0.76348838857E-02  0.74861782733E-02  0.10204808669E+01  0.10202114182E+01 0.  0.
     999903    2    3    3    0    0  0.14616961631E-01 -0.31212726651E-01 -0.12300846503E+00  0.12930340801E+00  0.20009972041E-01 0.  0.
         14    1    1    2    0    0  0.20869296232E-01 -0.76348838857E-02 -0.74861782733E-02  0.23449133082E-01  0.00000000000E+00 0.  1.
     999901    1    3    3    0    0 -0.35486257863E-01  0.38847610537E-01  0.13049464330E+00  0.89117745891E+00  0.88000000000E+00 0. -1.
        -11    1    4    4    0    0  0.91663895917E-02 -0.15539375345E-01 -0.31527703393E-01  0.36328392291E-01  0.51100000000E-03 0. -1.
         11    1    4    4    0    0  0.54505720397E-02 -0.15673351306E-01 -0.91480761636E-01  0.92975015715E-01  0.51100000000E-03 0.  1.
</event>
<event>
 8    1  0.1081309E+005  0.1043930E+01  0.7957747E-01            NaN
         13   -1    0    0    0    0  0.00000000000E+00  0.00000000000E+00  0.74505805969E-08  0.10566000000E+00  0.10566000000E+00 0. -1.
     999900   -1    0    0    0    0 -0.00000000000E+00 -0.00000000000E+00 -0.74505805969E-08  0.93827000000E+00  0.93827000000E+00 0. -1.
     999902    2    1    2    0    0 -0.17376135301E-01 -0.12693520048E-01 -0.10835230911E-01  0.10198373090E+01  0.10195526858E+01 0.  0.
     999903    2    3    3    0    0 -0.84792253379E-01 -0.10515331276E-01  0.96956391892E-01  0.13069799968E+00  0.19522468274E-01 0.  0.
         14    1    1    2    0    0  0.17376135301E-01  0.12693520048E-01  0.10835230911E-01  0.24092690968E-01  0.00000000000E+00 0. -1.
     999901    1    3    3    0    0  0.67416118078E-01 -0.21781887711E-02 -0.10779162280E+00  0.88913930935E+00  0.88000000000E+00 0. -1.
        -11    1    4    4    0    0 -0.38993543866E-01 -0.54928123265E-02  0.59328886564E-01  0.71209868364E-01  0.51100000000E-03 0.  1.
         11    1    4    4    0    0 -0.45798709513E-01 -0.50225189500E-02  0.37627505328E-01  0.59488131319E-01  0.51100000000E-03 0. -1.
</event>
<event>
 8    1  0.1081309E+005  0.1043930E+01  0.7957747E-01            NaN
         13   -1    0    0    0    0  0.00000000000E+00  0.00000000000E+00  0.74505805969E-08  0.10566000000E+00  0.10566000000E+00 0.  1.
     999900   -1    0    0    0    0 -0.00000000000E+00 -0.00000000000E+00 -0.74505805969E-08  0.93827000000E+00  0.93827000000E+00 0. -1.
     999902    2    1    2    0    0  0.17199782882E-01 -0.16741236745E-01 -0.99707413164E-03  0.10199071839E+01  0.10196242288E+01 0.  0.
     999903    2    3    3    0    0  0.37764143202E-01 -0.52636427181E-01  0.11260964363E+00  0.13164041990E+00  0.21249572604E-01 0.  0.
         14    1    1    2    0    0 -0.17199782882E-01  0.16741236745E-01  0.99707413164E-03  0.24022816149E-01  0.00000000000E+00 0.  1.
     999901    1    3    3    0    0 -0.20564360320E-01  0.35895190436E-01 -0.11360671776E+00  0.88826676395E+00  0.88000000000E+00 0. -1.
        -11    1    4    4    0    0  0.58387314591E-02  0.21247126343E-03  0.15397187735E-01  0.16476360042E-01  0.51100000000E-03 0.  1.
         11    1    4    4    0    0  0.31925411743E-01 -0.52848898444E-01  0.97212455895E-01  0.11516405986E+00  0.51100000000E-03 0. -1.
</event>
<event>
 8    1  0.1081309E+005  0.1043930E+01  0.7957747E-01            NaN
         13   -1    0    0    0    0  0.00000000000E+00  0.00000000000E+00  0.74505805969E-08  0.10566000000E+00  0.10566000000E+00 0.  1.
     999900   -1    0    0    0    0 -0.00000000000E+00 -0.00000000000E+00 -0.74505805969E-08  0.93827000000E+00  0.93827000000E+00 0.  1.
     999902    2    1    2    0    0 -0.15701921275E-01 -0.18849646688E-01  0.10770165136E-01  0.10171371657E+01  0.10167842239E+01 0.  0.
     999903    2    3    3    0    0  0.34533151123E-01  0.11593944121E+00  0.26164825632E-01  0.12532515846E+00  0.19680058089E-01 0.  0.
         14    1    1    2    0    0  0.15701921275E-01  0.18849646688E-01 -0.10770165136E-01  0.26792834285E-01  0.00000000000E+00 0. -1.
     999901    1    3    3    0    0 -0.50235072398E-01 -0.13478908790E+00 -0.15394660496E-01  0.89181200726E+00  0.88000000000E+00 0.  1.
        -11    1    4    4    0    0 -0.13065603551E-02  0.21575035846E-01  0.47292708217E-02  0.22131796024E-01  0.51100000000E-03 0.  1.
         11    1    4    4    0    0  0.35839711478E-01  0.94364405369E-01  0.21435554810E-01  0.10319336243E+00  0.51100000000E-03 0. -1.
</event>
<event>
 8    1  0.1081309E+005  0.1043930E+01  0.7957747E-01            NaN
         13   -1    0    0    0    0  0.00000000000E+00  0.00000000000E+00  0.74505805969E-08  0.10566000000E+00  0.10566000000E+00 0. -1.
     999900   -1    0    0    0    0 -0.00000000000E+00 -0.00000000000E+00 -0.74505805969E-08  0.93827000000E+00  0.93827000000E+00 0. -1.
     999902    2    1    2    0    0  0.67671195387E-02  0.16890537307E-01  0.16932057512E-01  0.10190748450E+01  0.10187716923E+01 0.  0.
     999903    2    3    3    0    0 -0.46431804169E-01 -0.60847915441E-01  0.10296547127E+00  0.12987568803E+00  0.20184766912E-01 0.  0.
         14    1    1    2    0    0 -0.67671195387E-02 -0.16890537307E-01 -0.16932057512E-01  0.24855154977E-01  0.00000000000E+00 0. -1.
     999901    1    3    3    0    0  0.53198923708E-01  0.77738452748E-01 -0.86033413756E-01  0.88919915700E+00  0.88000000000E+00 0. -1.
        -11    1    4    4    0    0 -0.71671338763E-02 -0.49763122648E-02  0.23640475004E-01  0.25204457368E-01  0.51100000000E-03 0. -1.
         11    1    4    4    0    0 -0.39264670293E-01 -0.55871603176E-01  0.79324996263E-01  0.10467123066E+00  0.51100000000E-03 0.  1.
</event>
<event>
 8    1  0.1081309E+005  0.1043930E+01  0.7957747E-01            NaN
         13   -1    0    0    0    0  0.00000000000E+00  0.00000000000E+00  0.74505805969E-08  0.10566000000E+00  0.10566000000E+00 0. -1.
     999900   -1    0    0    0    0 -0.00000000000E+00 -0.00000000000E+00 -0.74505805969E-08  0.93827000000E+00  0.93827000000E+00 0. -1.
     999902    2    1    2    0    0  0.25056713248E-01  0.89583060506E-02 -0.10179253582E-01  0.10154395221E+01  0.10150397607E+01 0.  0.
     999903    2    3    3    0    0  0.11805639048E+00 -0.31992232804E-01 -0.36827492818E-01  0.12919124131E+00  0.19320929342E-01 0.  0.
         14    1    1    2    0    0 -0.25056713248E-01 -0.89583060506E-02  0.10179253582E-01  0.28490477876E-01  0.00000000000E+00 0. -1.
     999901    1    3    3    0    0 -0.92999677230E-01  0.40950538854E-01  0.26648239236E-01  0.88624828082E+00  0.88000000000E+00 0.  1.
        -11    1    4    4    0    0  0.11208894439E-01 -0.74057151872E-02  0.26229689667E-03  0.13446704155E-01  0.51100000000E-03 0. -1.
         11    1    4    4    0    0  0.10684749604E+00 -0.24586517617E-01 -0.37089789714E-01  0.11574453715E+00  0.51100000000E-03 0.  1.
</event>
<event>
 8    1  0.1081309E+005  0.1043930E+01  0.7957747E-01            NaN
         13   -1    0    0    0    0  0.00000000000E+00  0.00000000000E+00  0.74505805969E-08  0.10566000000E+00  0.10566000000E+00 0.  1.
     999900   -1    0    0    0    0 -0.00000000000E+00 -0.00000000000E+00 -0.74505805969E-08  0.93827000000E+00  0.93827000000E+00 0.  1.
     999902    2    1    2    0    0 -0.23148063704E-01 -0.25117853377E-02 -0.29968840324E-02  0.10204539860E+01  0.10201839120E+01 0.  0.
     999903    2    3    3    0    0  0.55137126357E-02  0.12675887175E+00 -0.22409115246E-01  0.13033644606E+00  0.19677604826E-01 0.  0.
         14    1    1    2    0    0  0.23148063704E-01  0.25117853377E-02  0.29968840324E-02  0.23476013988E-01  0.00000000000E+00 0. -1.
     999901    1    3    3    0    0 -0.28661776340E-01 -0.12927065709E+00  0.19412231214E-01  0.89011753995E+00  0.88000000000E+00 0. -1.
        -11    1    4    4    0    0 -0.66468638840E-02  0.71603996228E-01 -0.12499583949E-01  0.72991874858E-01  0.51100000000E-03 0.  1.
         11    1    4    4    0    0  0.12160576520E-01  0.55154875521E-01 -0.99095312974E-02  0.57344571204E-01  0.51100000000E-03 0. -1.
</event>
<event>
 8    1  0.1081309E+005  0.1043930E+01  0.7957747E-01            NaN
         13   -1    0    0    0    0  0.00000000000E+00  0.00000000000E+00  0.74505805969E-08  0.10566000000E+00  0.10566000000E+00 0. -1.
     999900   -1    0    0    0    0 -0.00000000000E+00 -0.00000000000E+00 -0.74505805969E-08  0.93827000000E+00  0.93827000000E+00 0.  1.
     999902    2    1    2    0    0 -0.20552119748E-01  0.64806867723E-02  0.13580262290E-01  0.10184582028E+01  0.10181396262E+01 0.  0.
     999903    2    3    3    0    0  0.31881582952E-01  0.11209279408E+00 -0.49961771378E-01  0.12832293197E+00  0.19732370696E-01 0.  0.
         14    1    1    2    0    0  0.20552119748E-01 -0.64806867723E-02 -0.13580262290E-01  0.25471797169E-01  0.00000000000E+00 0.  1.
     999901    1    3    3    0    0 -0.52433702700E-01 -0.10561210731E+00  0.63542033668E-01  0.89013527086E+00  0.88000000000E+00 0. -1.
        -11    1    4    4    0    0  0.18853047632E-03  0.32151385043E-01 -0.12028101565E-01  0.34331959632E-01  0.51100000000E-03 0. -1.
         11    1    4    4    0    0  0.31693052476E-01  0.79941409039E-01 -0.37933669813E-01  0.93990972337E-01  0.51100000000E-03 0.  1.
</event>
<event>
 8    1  0.1081309E+005  0.1043930E+01  0.7957747E-01            NaN
         13   -1    0    0    0    0  0.00000000000E+00  0.00000000000E+00  0.74505805969E-08  0.10566000000E+00  0.10566000000E+00 0.  1.
     999900   -1    0    0    0    0 -0.00000000000E+00 -0.00000000000E+00 -0.74505805969E-08  0.93827000000E+00  0.93827000000E+00 0. -1.
     999902    2    1    2    0    0 -0.18820701598E-01 -0.49254834376E-02  0.13343271162E-01  0.10203392798E+01  0.10200665291E+01 0.  0.
     999903    2    3    3    0    0  0.89577039867E-01 -0.84411152134E-01 -0.35699830038E-01  0.12878262556E+00  0.12696381625E-01 0.  0.
         14    1    1    2    0    0  0.18820701598E-01  0.49254834376E-02 -0.13343271162E-01  0.23590720231E-01  0.00000000000E+00 0. -1.
     999901    1    3    3    0    0 -0.10839774146E+00  0.79485668696E-01  0.49043101201E-01  0.89155665421E+00  0.88000000000E+00 0.  1.
        -11    1    4    4    0    0  0.65736537112E-01 -0.63165128871E-01 -0.20648722436E-01  0.93475968441E-01  0.51100000000E-03 0.  1.
         11    1    4    4    0    0  0.23840502755E-01 -0.21246023262E-01 -0.15051107603E-01  0.35306657122E-01  0.51100000000E-03 0. -1.
</event>
<event>
 8    1  0.1081309E+005  0.1043930E+01  0.7957747E-01            NaN
         13   -1    0    0    0    0  0.00000000000E+00  0.00000000000E+00  0.74505805969E-08  0.10566000000E+00  0.10566000000E+00 0.  1.
     999900   -1    0    0    0    0 -0.00000000000E+00 -0.00000000000E+00 -0.74505805969E-08  0.93827000000E+00  0.93827000000E+00 0.  1.
     999902    2    1    2    0    0 -0.61556052018E-02 -0.22687955532E-01  0.32452665858E-02  0.10201988695E+01  0.10199228239E+01 0.  0.
     999903    2    3    3    0    0 -0.35067097624E-01 -0.14687634177E-01 -0.12333233278E+00  0.13063618578E+00  0.20236620098E-01 0.  0.
         14    1    1    2    0    0  0.61556052018E-02  0.22687955532E-01 -0.32452665858E-02  0.23731130543E-01  0.00000000000E+00 0. -1.
     999901    1    3    3    0    0  0.28911492422E-01 -0.80003213554E-02  0.12657759936E+00  0.88956268368E+00  0.88000000000E+00 0. -1.
        -11    1    4    4    0    0 -0.28198054788E-01 -0.33927362005E-02 -0.67032261674E-01  0.72802652280E-01  0.51100000000E-03 0. -1.
         11    1    4    4    0    0 -0.68690428354E-02 -0.11294897976E-01 -0.56300071101E-01  0.57833533497E-01  0.51100000000E-03 0.  1.
</event>
<event>
 8    1  0.1081309E+005  0.1043930E+01  0.7957747E-01            NaN
         13   -1    0    0    0    0  0.00000000000E+00  0.00000000000E+00  0.74505805969E-08  0.10566000000E+00  0.10566000000E+00 0.  1.
     999900   -1    0    0    0    0 -0.00000000000E+00 -0.00000000000E+00 -0.74505805969E-08  0.93827000000E+00  0.93827000000E+00 0. -1.
     999902    2    1    2    0    0  0.10888950463E-01 -0.10148332778E-01  0.18408683717E-01  0.10202564380E+01  0.10199817458E+01 0.  0.
     999903    2    3    3    0    0  0.28538210292E-01  0.46914891546E-01 -0.11423164866E+00  0.12831408243E+00  0.20004941843E-01 0.  0.
         14    1    1    2    0    0 -0.10888950463E-01  0.10148332778E-01 -0.18408683717E-01  0.23673561974E-01  0.00000000000E+00 0. -1.
     999901    1    3    3    0    0 -0.17649259829E-01 -0.57063224324E-01  0.13264033237E+00  0.89194235560E+00  0.88000000000E+00 0.  1.
        -11    1    4    4    0    0  0.14226568018E-01  0.10447799464E-01 -0.50554545351E-01  0.53549742556E-01  0.51100000000E-03 0. -1.
         11    1    4    4    0    0  0.14311642273E-01  0.36467092082E-01 -0.63677103307E-01  0.74764339869E-01  0.51100000000E-03 0.  1.
</event>
<event>
 8    1  0.1081309E+005  0.1043930E+01  0.7957747E-01            NaN
         13   -1    0    0    0    0  0.00000000000E+00  0.00000000000E+00  0.74505805969E-08  0.10566000000E+00  0.10566000000E+00 0.  1.
     999900   -1    0    0    0    0 -0.00000000000E+00 -0.00000000000E+00 -0.74505805969E-08  0.93827000000E+00  0.93827000000E+00 0. -1.
     999902    2    1    2    0    0 -0.18389091661E-01  0.62524705304E-02  0.10144542707E-01  0.10220173592E+01  0.10217824224E+01 0.  0.
     999903    2    3    3    0    0 -0.17161195180E-01 -0.12442776215E+00  0.34994183831E-01  0.13201941786E+00  0.20682339686E-01 0.  0.
         14    1    1    2    0    0  0.18389091661E-01 -0.62524705304E-02 -0.10144542707E-01  0.21912640795E-01  0.00000000000E+00 0. -1.
     999901    1    3    3    0    0 -0.12278964814E-02  0.13068023268E+00 -0.24849641124E-01  0.88999794135E+00  0.88000000000E+00 0. -1.
        -11    1    4    4    0    0 -0.22261054861E-03 -0.29814665957E-01  0.27128849166E-03  0.29821109637E-01  0.51100000000E-03 0.  1.
         11    1    4    4    0    0 -0.16938584631E-01 -0.94613096195E-01  0.34722895339E-01  0.10219830822E+00  0.51100000000E-03 0. -1.
</event>
<event>
 8    1  0.1081309E+005  0.1043930E+01  0.7957747E-01            NaN
         13   -1    0    0    0    0  0.00000000000E+00  0.00000000000E+00  0.74505805969E-08  0.10566000000E+00  0.10566000000E+00 0. -1.
     999900   -1    0    0    0    0 -0.00000000000E+00 -0.00000000000E+00 -0.74505805969E-08  0.93827000000E+00  0.93827000000E+00 0.  1.
     999902    2    1    2    0    0  0.21101839158E-01  0.11451918158E-01 -0.10951728489E-03  0.10199207093E+01  0.10196380766E+01 0.  0.
     999903    2    3    3    0    0 -0.69666893660E-01  0.99149751158E-01 -0.42335295349E-01  0.12991346827E+00  0.20027051179E-01 0.  0.
         14    1    1    2    0    0 -0.21101839158E-01 -0.11451918158E-01  0.10951728489E-03  0.24009290689E-01  0.00000000000E+00 0.  1.
     999901    1    3    3    0    0  0.90768732819E-01 -0.87697833000E-01  0.42225778064E-01  0.89000724104E+00  0.88000000000E+00 0. -1.
        -11    1    4    4    0    0 -0.40145663339E-01  0.51767807190E-01 -0.32843368603E-01  0.73283887236E-01  0.51100000000E-03 0. -1.
         11    1    4    4    0    0 -0.29521230321E-01  0.47381943968E-01 -0.94919267460E-02  0.56629581035E-01  0.51100000000E-03 0.  1.
</event>
<event>
 8    1  0.1081309E+005  0.1043930E+01  0.7957747E-01            NaN
         13   -1    0    0    0    0  0.00000000000E+00  0.00000000000E+00  0.74505805969E-08  0.10566000000E+00  0.10566000000E+00 0. -1.
     999900   -1    0    0    0    0 -0.00000000000E+00 -0.00000000000E+00 -0.74505805969E-08  0.93827000000E+00  0.93827000000E+00 0.  1.
     999902    2    1    2    0    0 -0.16700904391E-01  0.14652511212E-02  0.15527243080E-01  0.10210791259E+01  0.10208234024E+01 0.  0.
     999903    2    3    3    0    0 -0.98859612205E-01  0.84822052910E-01  0.19774444544E-01  0.13331989708E+00  0.20375542103E-01 0.  0.
         14    1    1    2    0    0  0.16700904391E-01 -0.14652511212E-02 -0.15527243080E-01  0.22850874075E-01  0.00000000000E+00 0.  1.
     999901    1    3    3    0    0  0.82158707813E-01 -0.83356801789E-01 -0.42472014642E-02  0.88775922884E+00  0.88000000000E+00 0.  1.
        -11    1    4    4    0    0 -0.23931675984E-01  0.18133655336E-01 -0.38244271923E-02  0.30272792002E-01  0.51100000000E-03 0.  1.
         11    1    4    4    0    0 -0.74927936221E-01  0.66688397574E-01  0.23598871736E-01  0.10304710508E+00  0.51100000000E-03 0. -1.
</event>
<event>
 8    1  0.1081309E+005  0.1043930E+01  0.7957747E-01            NaN
         13   -1    0    0    0    0  0.00000000000E+00  0.00000000000E+00  0.74505805969E-08  0.10566000000E+00  0.10566000000E+00 0.  1.
     999900   -1    0    0    0    0 -0.00000000000E+00 -0.00000000000E+00 -0.74505805969E-08  0.93827000000E+00  0.93827000000E+00 0. -1.
     999902    2    1    2    0    0 -0.65915586736E-02  0.21855007017E-01  0.46698680158E-02  0.10206298360E+01  0.10203638392E+01 0.  0.
     999903    2    3    3    0    0  0.10397704824E+00  0.27277583558E-01  0.72682676433E-01  0.13109031278E+00  0.18617344750E-01 0.  0.
         14    1    1    2    0    0  0.65915586736E-02 -0.21855007017E-01 -0.46698680158E-02  0.23300164049E-01  0.00000000000E+00 0.  1.
     999901    1    3    3    0    0 -0.11056860692E+00 -0.54225765410E-02 -0.68012808417E-01  0.88953952317E+00  0.88000000000E+00 0. -1.
        -11    1    4    4    0    0  0.72412757766E-01  0.26662758253E-01  0.46684816530E-01  0.90190040361E-01  0.51100000000E-03 0. -1.
         11    1    4    4    0    0  0.31564290477E-01  0.61482530435E-03  0.25997859904E-01  0.40900272420E-01  0.51100000000E-03 0.  1.
</event>
<event>
 8    1  0.1081309E+005  0.1043930E+01  0.7957747E-01            NaN
         13   -1    0    0    0    0  0.00000000000E+00  0.00000000000E+00  0.74505805969E-08  0.10566000000E+00  0.10566000000E+00 0. -1.
     999900   -1    0    0    0    0 -0.00000000000E+00 -0.00000000000E+00 -0.74505805969E-08  0.93827000000E+00  0.93827000000E+00 0. -1.
     999902    2    1    2    0    0  0.17330812319E-01  0.61443469776E-03  0.92127774491E-02  0.10242930488E+01  0.10241047993E+01 0.  0.
     999903    2    3    3    0    0  0.48635786201E-01 -0.69258348752E-01 -0.10181413348E+00  0.13401826971E+00  0.20799525730E-01 0.  0.
         14    1    1    2    0    0 -0.17330812319E-01 -0.61443469776E-03 -0.92127774491E-02  0.19636951239E-01  0.00000000000E+00 0.  1.
     999901    1    3    3    0    0 -0.31304973882E-01  0.69872783449E-01  0.11102691093E+00  0.89027477905E+00  0.88000000000E+00 0. -1.
        -11    1    4    4    0    0  0.40858178080E-01 -0.63942115361E-01 -0.97746061963E-01  0.12374384261E+00  0.51100000000E-03 0.  1.
         11    1    4    4    0    0  0.77776081213E-02 -0.53162333906E-02 -0.40680715126E-02  0.10274427107E-01  0.51100000000E-03 0. -1.
</event>
<event>
 8    1  0.1081309E+005  0.1043930E+01  0.7957747E-01            NaN
         13   -1    0    0    0    0  0.00000000000E+00  0.00000000000E+00  0.74505805969E-08  0.10566000000E+00  0.10566000000E+00 0.  1.
     999900   -1    0    0    0    0 -0.00000000000E+00 -0.00000000000E+00 -0.74505805969E-08  0.93827000000E+00  0.93827000000E+00 0. -1.
     999902    2    1    2    0    0  0.17116330595E-01  0.13675076160E-01 -0.10186219732E-01  0.10197693801E+01  0.10194831303E+01 0.  0.
     999903    2    3    3    0    0 -0.12263683908E+00 -0.12436285292E-01 -0.29802568439E-01  0.12814302745E+00  0.18384420207E-01 0.  0.
         14    1    1    2    0    0 -0.17116330595E-01 -0.13675076160E-01  0.10186219732E-01  0.24160619890E-01  0.00000000000E+00 0.  1.
     999901    1    3    3    0    0  0.13975316967E+00  0.26111361452E-01  0.19616348707E-01  0.89162635267E+00  0.88000000000E+00 0. -1.
        -11    1    4    4    0    0 -0.67893580758E-01 -0.16244855819E-02 -0.86417174059E-02  0.68462527432E-01  0.51100000000E-03 0.  1.
         11    1    4    4    0    0 -0.54743258320E-01 -0.10811799710E-01 -0.21160851033E-01  0.59680500013E-01  0.51100000000E-03 0. -1.
</event>
<event>
 8    1  0.1081309E+005  0.1043930E+01  0.7957747E-01            NaN
         13   -1    0    0    0    0  0.00000000000E+00  0.00000000000E+00  0.74505805969E-08  0.10566000000E+00  0.10566000000E+00 0. -1.
     999900   -1    0    0    0    0 -0.00000000000E+00 -0.00000000000E+00 -0.74505805969E-08  0.93827000000E+00  0.93827000000E+00 0.  1.
     999902    2    1    2    0    0 -0.12033465987E-01  0.10341532641E-01 -0.17510418776E-01  0.10203002229E+01  0.10200265577E+01 0.  0.
     999903    2    3    3    0    0  0.12378102382E+00  0.28198883515E-01  0.10873234393E-01  0.12925022855E+00  0.21690446406E-01 0.  0.
         14    1    1    2    0    0  0.12033465987E-01 -0.10341532641E-01  0.17510418776E-01  0.23629777120E-01  0.00000000000E+00 0. -1.
     999901    1    3    3    0    0 -0.13581448981E+00 -0.17857350873E-01 -0.28383653169E-01  0.89104999433E+00  0.88000000000E+00 0.  1.
        -11    1    4    4    0    0  0.82938348750E-01  0.21577614664E-01 -0.25785776971E-02  0.85739566898E-01  0.51100000000E-03 0.  1.
         11    1    4    4    0    0  0.40842675071E-01  0.66212688506E-02  0.13451812091E-01  0.43510661656E-01  0.51100000000E-03 0. -1.
</event>
<event>
 8    1  0.1081309E+005  0.1043930E+01  0.7957747E-01            NaN
         13   -1    0    0    0    0  0.00000000000E+00  0.00000000000E+00  0.74505805969E-08  0.10566000000E+00  0.10566000000E+00 0.  1.
     999900   -1    0    0    0    0 -0.00000000000E+00 -0.00000000000E+00 -0.74505805969E-08  0.93827000000E+00  0.93827000000E+00 0. -1.
     999902    2    1    2    0    0 -0.16144207244E-01 -0.17718554900E-01  0.12935543962E-04  0.10199595435E+01  0.10196778352E+01 0.  0.
     999903    2    3    3    0    0  0.60379590850E-01 -0.73170315179E-01 -0.87484737954E-01  0.13058525099E+00  0.19983452819E-01 0.  0.
         14    1    1    2    0    0  0.16144207244E-01  0.17718554900E-01 -0.12935543962E-04  0.23970456454E-01  0.00000000000E+00 0.  1.
     999901    1    3    3    0    0 -0.76523798094E-01  0.55451760279E-01  0.87497673498E-01  0.88937429256E+00  0.88000000000E+00 0.  1.
        -11    1    4    4    0    0  0.23961957359E-01 -0.39041786239E-01 -0.52248562294E-01  0.69488199401E-01  0.51100000000E-03 0. -1.
         11    1    4    4    0    0  0.36417633491E-01 -0.34128528939E-01 -0.35236175660E-01  0.61097051588E-01  0.51100000000E-03 0.  1.
</event>
<event>
 8    1  0.1081309E+005  0.1043930E+01  0.7957747E-01            NaN
         13   -1    0    0    0    0  0.00000000000E+00  0.00000000000E+00  0.74505805969E-08  0.10566000000E+00  0.10566000000E+00 0.  1.
     999900   -1    0    0    0    0 -0.00000000000E+00 -0.00000000000E+00 -0.74505805969E-08  0.93827000000E+00  0.93827000000E+00 0.  1.
     999902    2    1    2    0    0 -0.39254631661E-02  0.10989247502E-01  0.20416781030E-01  0.10204136702E+01  0.10201426569E+01 0.  0.
     999903    2    3    3    0    0 -0.55476624211E-01  0.23762911159E-01 -0.11218569078E+00  0.12889580482E+00  0.19651145103E-01 0.  0.
         14    1    1    2    0    0  0.39254631661E-02 -0.10989247502E-01 -0.20416781030E-01  0.23516329844E-01  0.00000000000E+00 0. -1.
     999901    1    3    3    0    0  0.51551161045E-01 -0.12773663657E-01  0.13260247181E+00  0.89151786534E+00  0.88000000000E+00 0. -1.
        -11    1    4    4    0    0 -0.13441084306E-01  0.13910319661E-01 -0.45604503457E-01  0.49539798112E-01  0.51100000000E-03 0.  1.
         11    1    4    4    0    0 -0.42035539906E-01  0.98525914983E-02 -0.66581187320E-01  0.79356006706E-01  0.51100000000E-03 0. -1.
</event>
<event>
 8    1  0.1081309E+005  0.1043930E+01  0.7957747E-01            NaN
         13   -1    0    0    0    0  0.00000000000E+00  0.00000000000E+00  0.74505805969E-08  0.10566000000E+00  0.10566000000E+00 0.  1.
     999900   -1    0    0    0    0 -0.00000000000E+00 -0.00000000000E+00 -0.74505805969E-08  0.93827000000E+00  0.93827000000E+00 0.  1.
     999902    2    1    2    0    0  0.12412030609E-01  0.14244503537E-01  0.13588649114E-01  0.10206573601E+01  0.10203919986E+01 0.  0.
     999903    2    3    3    0    0 -0.64911942512E-01 -0.18860080351E-01 -0.10728404100E+00  0.12842133887E+00  0.20320234095E-01 0.  0.
         14    1    1    2    0    0 -0.12412030609E-01 -0.14244503537E-01 -0.13588649114E-01  0.23272639936E-01  0.00000000000E+00 0. -1.
     999901    1    3    3    0    0  0.77323973121E-01  0.33104583888E-01  0.12087269011E+00  0.89223602119E+00  0.88000000000E+00 0. -1.
        -11    1    4    4    0    0 -0.37555127448E-01 -0.21174569107E-01 -0.66537377377E-01  0.79285772265E-01  0.51100000000E-03 0. -1.
         11    1    4    4    0    0 -0.27356815064E-01  0.23144887564E-02 -0.40746663622E-01  0.49135566609E-01  0.51100000000E-03 0.  1.
</event>
<event>
 8    1  0.1081309E+005  0.1043930E+01  0.7957747E-01            NaN
         13   -1    0    0    0    0  0.00000000000E+00  0.00000000000E+00  0.74505805969E-08  0.10566000000E+00  0.10566000000E+00 0. -1.
     999900   -1    0    0    0    0 -0.00000000000E+00 -0.00000000000E+00 -0.74505805969E-08  0.93827000000E+00  0.93827000000E+00 0.  1.
     999902    2    1    2    0    0  0.14765902179E-01 -0.13369630376E-01  0.10987208331E-01  0.10211814257E+01  0.10209280125E+01 0.  0.
     999903    2    3    3    0    0  0.28708796087E-01  0.10106203704E+00 -0.73347133433E-01  0.12966513762E+00  0.19887574698E-01 0.  0.
         14    1    1    2    0    0 -0.14765902179E-01  0.13369630376E-01 -0.10987208331E-01  0.22748574251E-01  0.00000000000E+00 0.  1.
     999901    1    3    3    0    0 -0.13942893908E-01 -0.11443166742E+00  0.84334341764E-01  0.89151628813E+00  0.88000000000E+00 0. -1.
        -11    1    4    4    0    0  0.14888460939E-01  0.54720411127E-01 -0.51469252566E-01  0.76585473451E-01  0.51100000000E-03 0. -1.
         11    1    4    4    0    0  0.13820335148E-01  0.46341625915E-01 -0.21877880867E-01  0.53079664169E-01  0.51100000000E-03 0.  1.
</event>
<event>
 8    1  0.1081309E+005  0.1043930E+01  0.7957747E-01            NaN
         13   -1    0    0    0    0  0.00000000000E+00  0.00000000000E+00  0.74505805969E-08  0.10566000000E+00  0.10566000000E+00 0. -1.
     999900   -1    0    0    0    0 -0.00000000000E+00 -0.00000000000E+00 -0.74505805969E-08  0.93827000000E+00  0.93827000000E+00 0.  1.
     999902    2    1    2    0    0 -0.10734371910E-01 -0.15976718878E-01 -0.10850450196E-01  0.10218344223E+01  0.10215955031E+01 0.  0.
     999903    2    3    3    0    0  0.29709988318E-01  0.88069226373E-02 -0.12769695063E+00  0.13284450115E+00  0.19516787456E-01 0.  0.
         14    1    1    2    0    0  0.10734371910E-01  0.15976718878E-01  0.10850450196E-01  0.22095577745E-01  0.00000000000E+00 0. -1.
     999901    1    3    3    0    0 -0.40444360228E-01 -0.24783641515E-01  0.11684650044E+00  0.88898992110E+00  0.88000000000E+00 0. -1.
        -11    1    4    4    0    0  0.90211819194E-02  0.10235197480E-01 -0.29870506751E-01  0.32842796550E-01  0.51100000000E-03 0. -1.
         11    1    4    4    0    0  0.20688806398E-01 -0.14282748429E-02 -0.97826443883E-01  0.10000170460E+00  0.51100000000E-03 0.  1.
</event>
<event>
 8    1  0.1081309E+005  0.1043930E+01  0.7957747E-01            NaN
         13   -1    0    0    0    0  0.00000000000E+00  0.00000000000E+00  0.74505805969E-08  0.10566000000E+00  0.10566000000E+00 0.  1.
     999900   -1    0    0    0    0 -0.00000000000E+00 -0.00000000000E+00 -0.74505805969E-08  0.93827000000E+00  0.93827000000E+00 0. -1.
     999902    2    1    2    0    0 -0.82926977688E-02  0.20044984071E-01  0.99579720449E-02  0.10200609525E+01  0.10197816508E+01 0.  0.
     999903    2    3    3    0    0  0.89074230690E-01  0.92411880167E-01  0.21762063724E-01  0.13165979140E+00  0.19660597281E-01 0.  0.
         14    1    1    2    0    0  0.82926977688E-02 -0.20044984071E-01 -0.99579720449E-02  0.23869047529E-01  0.00000000000E+00 0.  1.
     999901    1    3    3    0    0 -0.97366928459E-01 -0.72366896096E-01 -0.11804091679E-01  0.88840116107E+00  0.88000000000E+00 0. -1.
        -11    1    4    4    0    0  0.36859333492E-01  0.26430687133E-01  0.12222124345E-01  0.46976942560E-01  0.51100000000E-03 0. -1.
         11    1    4    4    0    0  0.52214897198E-01  0.65981193035E-01  0.95399393788E-02  0.84682848842E-01  0.51100000000E-03 0.  1.
</event>
<event>
 8    1  0.1081309E+005  0.1043930E+01  0.7957747E-01            NaN
         13   -1    0    0    0    0  0.00000000000E+00  0.00000000000E+00  0.74505805969E-08  0.10566000000E+00  0.10566000000E+00 0. -1.
     999900   -1    0    0    0    0 -0.00000000000E+00 -0.00000000000E+00 -0.74505805969E-08  0.93827000000E+00  0.93827000000E+00 0.  1.
     999902    2    1    2    0    0 -0.11091762953E-01  0.15875454764E-01  0.12442893191E-01  0.10209108154E+01  0.10206512676E+01 0.  0.
     999903    2    3    3    0    0  0.46842823380E-02 -0.12673894734E+00  0.15525951459E-01  0.12928462884E+00  0.19716916895E-01 0.  0.
         14    1    1    2    0    0  0.11091762953E-01 -0.15875454764E-01 -0.12442893191E-01  0.23019184615E-01  0.00000000000E+00 0. -1.
     999901    1    3    3    0    0 -0.15776045291E-01  0.14261440210E+00 -0.30830582677E-02  0.89162618655E+00  0.88000000000E+00 0. -1.
        -11    1    4    4    0    0 -0.15601824329E-02 -0.59788452226E-01  0.16462045821E-01  0.62035097021E-01  0.51100000000E-03 0. -1.
         11    1    4    4    0    0  0.62444647710E-02 -0.66950495109E-01 -0.93609436185E-03  0.67249531815E-01  0.51100000000E-03 0.  1.
</event>
<event>
 8    1  0.1081309E+005  0.1043930E+01  0.7957747E-01            NaN
         13   -1    0    0    0    0  0.00000000000E+00  0.00000000000E+00  0.74505805969E-08  0.10566000000E+00  0.10566000000E+00 0.  1.
     999900   -1    0    0    0    0 -0.00000000000E+00 -0.00000000000E+00 -0.74505805969E-08  0.93827000000E+00  0.93827000000E+00 0.  1.
     999902    2    1    2    0    0 -0.66199972834E-02 -0.54083479213E-02  0.23292117000E-01  0.10191187665E+01  0.10188166975E+01 0.  0.
     999903    2    3    3    0    0  0.88334782535E-01 -0.29128972046E-01 -0.84209551290E-01  0.12719069382E+00  0.20849298528E-01 0.  0.
         14    1    1    2    0    0  0.66199972834E-02  0.54083479213E-02 -0.23292117000E-01  0.24811233456E-01  0.00000000000E+00 0. -1.
     999901    1    3    3    0    0 -0.94954779818E-01  0.23720624125E-01  0.10750166829E+00  0.89192807272E+00  0.88000000000E+00 0. -1.
        -11    1    4    4    0    0  0.13404966582E-01 -0.11813054481E-01 -0.21488796400E-01  0.27951223174E-01  0.51100000000E-03 0.  1.
         11    1    4    4    0    0  0.74929815953E-01 -0.17315917565E-01 -0.62720754891E-01  0.99239470650E-01  0.51100000000E-03 0. -1.
</event>
<event>
 8    1  0.1081309E+005  0.1043930E+01  0.7957747E-01            NaN
         13   -1    0    0    0    0  0.00000000000E+00  0.00000000000E+00  0.74505805969E-08  0.10566000000E+00  0.10566000000E+00 0.  1.
     999900   -1    0    0    0    0 -0.00000000000E+00 -0.00000000000E+00 -0.74505805969E-08  0.93827000000E+00  0.93827000000E+00 0.  1.
     999902    2    1    2    0    0  0.21997497268E-01  0.39157984507E-02 -0.49642740494E-02  0.10210418507E+01  0.10207852827E+01 0.  0.
     999903    2    3    3    0    0  0.35516063167E-01 -0.11810772297E+00 -0.41587855075E-01  0.13176474081E+00  0.20532224997E-01 0.  0.
         14    1    1    2    0    0 -0.21997497268E-01 -0.39157984507E-02  0.49642740494E-02  0.22888149344E-01  0.00000000000E+00 0.  1.
     999901    1    3    3    0    0 -0.13518565899E-01  0.12202352142E+00  0.36623581025E-01  0.88927710984E+00  0.88000000000E+00 0.  1.
        -11    1    4    4    0    0  0.14339235616E-01 -0.72788428626E-01 -0.17418493156E-01  0.76206522324E-01  0.51100000000E-03 0.  1.
         11    1    4    4    0    0  0.21176827550E-01 -0.45319294345E-01 -0.24169361918E-01  0.55558218488E-01  0.51100000000E-03 0. -1.
</event>
<event>
 8    1  0.1081309E+005  0.1043930E+01  0.7957747E-01            NaN
         13   -1    0    0    0    0  0.00000000000E+00  0.00000000000E+00  0.74505805969E-08  0.10566000000E+00  0.10566000000E+00 0. -1.
     999900   -1    0    0    0    0 -0.00000000000E+00 -0.00000000000E+00 -0.74505805969E-08  0.93827000000E+00  0.93827000000E+00 0.  1.
     999902    2    1    2    0    0  0.62195595073E-03  0.83949075742E-02  0.24294485311E-01  0.10182184594E+01  0.10178937802E+01 0.  0.
     999903    2    3    3    0    0  0.66526780245E-02  0.65696073141E-01  0.11247849866E+00  0.13193621691E+00  0.19887697727E-01 0.  0.
         14    1    1    2    0    0 -0.62195595073E-03 -0.83949075742E-02 -0.24294485311E-01  0.25711540578E-01  0.00000000000E+00 0.  1.
     999901    1    3    3    0    0 -0.60307220737E-02 -0.57301165566E-01 -0.88184013346E-01  0.88628224251E+00  0.88000000000E+00 0.  1.
        -11    1    4    4    0    0 -0.27775867448E-02  0.18654496611E-01  0.47920852211E-01  0.51501208040E-01  0.51100000000E-03 0.  1.
         11    1    4    4    0    0  0.94302647693E-02  0.47041576529E-01  0.64557646447E-01  0.80435008869E-01  0.51100000000E-03 0. -1.
</event>
<event>
 8    1  0.1081309E+005  0.1043930E+01  0.7957747E-01            NaN
         13   -1    0    0    0    0  0.00000000000E+00  0.00000000000E+00  0.74505805969E-08  0.10566000000E+00  0.10566000000E+00 0.  1.
     999900   -1    0    0    0    0 -0.00000000000E+00 -0.00000000000E+00 -0.74505805969E-08  0.93827000000E+00  0.93827000000E+00 0.  1.
     999902    2    1    2    0    0  0.59249760878E-02 -0.21989035390E-01  0.30367567788E-02  0.10209551244E+01  0.10206965862E+01 0.  0.
     999903    2    3    3    0    0 -0.80322431110E-01  0.97083086451E-01  0.19057181949E-01  0.12861357569E+00  0.17362518678E-01 0.  0.
         14    1    1    2    0    0 -0.59249760878E-02  0.21989035390E-01 -0.30367567788E-02  0.22974875642E-01  0.00000000000E+00 0. -1.
     999901    1    3    3    0    0  0.86247407198E-01 -0.11907212184E+00 -0.16020425170E-01  0.89234154866E+00  0.88000000000E+00 0.  1.
        -11    1    4    4    0    0 -0.12061891961E-01  0.73690066950E-02  0.50347364354E-02  0.15013367022E-01  0.51100000000E-03 0. -1.
         11    1    4    4    0    0 -0.68260539149E-01  0.89714079756E-01  0.14022445514E-01  0.11360020867E+00  0.51100000000E-03 0.  1.
</event>
<event>
 8    1  0.1081309E+005  0.1043930E+01  0.7957747E-01            NaN
         13   -1    0    0    0    0  0.00000000000E+00  0.00000000000E+00  0.74505805969E-08  0.10566000000E+00  0.10566000000E+00 0.  1.
     999900   -1    0    0    0    0 -0.00000000000E+00 -0.00000000000E+00 -0.74505805969E-08  0.93827000000E+00  0.93827000000E+00 0.  1.
     999902    2    1    2    0    0  0.13527460636E-01  0.52497205723E-02 -0.23498921015E-01  0.10163120521E+01  0.10159367284E+01 0.  0.
     999903    2    3    3    0    0 -0.80968169571E-01  0.45356758029E-01 -0.85919804337E-01  0.12814857320E+00  0.20658268382E-01 0.  0.
         14    1    1    2    0    0 -0.13527460636E-01 -0.52497205723E-02  0.23498921015E-01  0.27617947900E-01  0.00000000000E+00 0.  1.
     999901    1    3    3    0    0  0.94495630207E-01 -0.40107037457E-01  0.62420883322E-01  0.88816347890E+00  0.88000000000E+00 0. -1.
        -11    1    4    4    0    0 -0.73895624190E-01  0.34027522567E-01 -0.69685366625E-01  0.10712024556E+00  0.51100000000E-03 0.  1.
         11    1    4    4    0    0 -0.70725453811E-02  0.11329235462E-01 -0.16234437713E-01  0.21028327636E-01  0.51100000000E-03 0. -1.
</event>
<event>
 8    1  0.1081309E+005  0.1043930E+01  0.7957747E-01            NaN
         13   -1    0    0    0    0  0.00000000000E+00  0.00000000000E+00  0.74505805969E-08  0.10566000000E+00  0.10566000000E+00 0.  1.
     999900   -1    0    0    0    0 -0.00000000000E+00 -0.00000000000E+00 -0.74505805969E-08  0.93827000000E+00  0.93827000000E+00 0. -1.
     999902    2    1    2    0    0  0.70344132875E-02 -0.96495476542E-02 -0.20558882765E-01  0.10201547103E+01  0.10198776243E+01 0.  0.
     999903    2    3    3    0    0 -0.74609418736E-01  0.10304828695E+00 -0.10179773308E-01  0.12915850202E+00  0.19818578505E-01 0.  0.
         14    1    1    2    0    0 -0.70344132875E-02  0.96495476542E-02  0.20558882765E-01  0.23775289709E-01  0.00000000000E+00 0.  1.
     999901    1    3    3    0    0  0.81643832024E-01 -0.11269783460E+00 -0.10379109457E-01  0.89099620827E+00  0.88000000000E+00 0.  1.
        -11    1    4    4    0    0 -0.36633547837E-01  0.37676047893E-01 -0.10310922901E-01  0.53554436455E-01  0.51100000000E-03 0. -1.
         11    1    4    4    0    0 -0.37975870899E-01  0.65372239054E-01  0.13114959390E-03  0.75604065569E-01  0.51100000000E-03 0.  1.
</event>
<event>
 8    1  0.1081309E+005  0.1043930E+01  0.7957747E-01            NaN
         13   -1    0    0    0    0  0.00000000000E+00  0.00000000000E+00  0.74505805969E-08  0.10566000000E+00  0.10566000000E+00 0. -1.
     999900   -1    0    0    0    0 -0.00000000000E+00 -0.00000000000E+00 -0.74505805969E-08  0.93827000000E+00  0.93827000000E+00 0. -1.
     999902    2    1    2    0    0 -0.12622846293E-01 -0.15104261901E-01  0.11791394279E-01  0.10209841517E+01  0.10207262738E+01 0.  0.
     999903    2    3    3    0    0  0.62668997062E-01 -0.11455707462E+00  0.50833609353E-02  0.13216205399E+00  0.19754529049E-01 0.  0.
         14    1    1    2    0    0  0.12622846293E-01  0.15104261901E-01 -0.11791394279E-01  0.22945848320E-01  0.00000000000E+00 0.  1.
     999901    1    3    3    0    0 -0.75291843355E-01  0.99452812718E-01  0.67080333433E-02  0.88882209769E+00  0.88000000000E+00 0.  1.
        -11    1    4    4    0    0  0.27677303982E-01 -0.60589179579E-01  0.11208933206E-01  0.67549856717E-01  0.51100000000E-03 0.  1.
         11    1    4    4    0    0  0.34991693079E-01 -0.53967895040E-01 -0.61255722712E-02  0.64612197272E-01  0.51100000000E-03 0. -1.
</event>
<event>
 8    1  0.1081309E+005  0.1043930E+01  0.7957747E-01            NaN
         13   -1    0    0    0    0  0.00000000000E+00  0.00000000000E+00  0.74505805969E-08  0.10566000000E+00  0.10566000000E+00 0.  1.
     999900   -1    0    0    0    0 -0.00000000000E+00 -0.00000000000E+00 -0.74505805969E-08  0.93827000000E+00  0.93827000000E+00 0. -1.
     999902    2    1    2    0    0 -0.23286892632E-04 -0.22275116136E-01  0.30084647884E-02  0.10214526291E+01  0.10212052885E+01 0.  0.
     999903    2    3    3    0    0  0.38254940715E-01  0.11353714553E+00 -0.43380612486E-01  0.12900535358E+00  0.20158864268E-01 0.  0.
         14    1    1    2    0    0  0.23286892632E-04  0.22275116136E-01 -0.30084647884E-02  0.22477370877E-01  0.00000000000E+00 0. -1.
     999901    1    3    3    0    0 -0.38278227608E-01 -0.13581226167E+00  0.46389077275E-01  0.89244727554E+00  0.88000000000E+00 0.  1.
        -11    1    4    4    0    0  0.41394553819E-02  0.15967302803E-01  0.96391144031E-03  0.16531185558E-01  0.51100000000E-03 0.  1.
         11    1    4    4    0    0  0.34115485333E-01  0.97569842729E-01 -0.44344523927E-01  0.11247416803E+00  0.51100000000E-03 0. -1.
</event>
<event>
 8    1  0.1081309E+005  0.1043930E+01  0.7957747E-01            NaN
         13   -1    0    0    0    0  0.00000000000E+00  0.00000000000E+00  0.74505805969E-08  0.10566000000E+00  0.10566000000E+00 0. -1.
     999900   -1    0    0    0    0 -0.00000000000E+00 -0.00000000000E+00 -0.74505805969E-08  0.93827000000E+00  0.93827000000E+00 0.  1.
     999902    2    1    2    0    0 -0.17799377047E-01 -0.94451048004E-02  0.13422180341E-01  0.10197187887E+01  0.10194313244E+01 0.  0.
     999903    2    3    3    0    0  0.82460990634E-01  0.37828821907E-01  0.91202178430E-01  0.12936116752E+00  0.13624961235E-01 0.  0.
         14    1    1    2    0    0  0.17799377047E-01  0.94451048004E-02 -0.13422180341E-01  0.24211211309E-01  0.00000000000E+00 0.  1.
     999901    1    3    3    0    0 -0.10026036768E+00 -0.47273926708E-01 -0.77779998090E-01  0.89035762117E+00  0.88000000000E+00 0. -1.
        -11    1    4    4    0    0  0.29518238022E-01  0.67893900344E-02  0.32626723651E-01  0.44521752101E-01  0.51100000000E-03 0. -1.
         11    1    4    4    0    0  0.52942752612E-01  0.31039431873E-01  0.58575454780E-01  0.84839415420E-01  0.51100000000E-03 0.  1.
</event>
<event>
 8    1  0.1081309E+005  0.1043930E+01  0.7957747E-01            NaN
         13   -1    0    0    0    0  0.00000000000E+00  0.00000000000E+00  0.74505805969E-08  0.10566000000E+00  0.10566000000E+00 0.  1.
     999900   -1    0    0    0    0 -0.00000000000E+00 -0.00000000000E+00 -0.74505805969E-08  0.93827000000E+00  0.93827000000E+00 0.  1.
     999902    2    1    2    0    0 -0.78101232677E-02 -0.19680711935E-01 -0.12966117813E-02  0.10227165691E+01  0.10224965384E+01 0.  0.
     999903    2    3    3    0    0  0.11772731626E+00 -0.45290370858E-01  0.38050318744E-01  0.13256844420E+00  0.14684241683E-01 0.  0.
         14    1    1    2    0    0  0.78101232677E-02  0.19680711935E-01  0.12966117813E-02  0.21213430883E-01  0.00000000000E+00 0. -1.
     999901    1    3    3    0    0 -0.12553743953E+00  0.25609658924E-01 -0.39346930526E-01  0.89014812492E+00  0.88000000000E+00 0. -1.
        -11    1    4    4    0    0  0.10561037261E+00 -0.35906023723E-01  0.35206655317E-01  0.11697248840E+00  0.51100000000E-03 0.  1.
         11    1    4    4    0    0  0.12116943651E-01 -0.93843471351E-02  0.28436634270E-02  0.15595955799E-01  0.51100000000E-03 0. -1.
</event>
<event>
 8    1  0.1081309E+005  0.1043930E+01  0.7957747E-01            NaN
         13   -1    0    0    0    0  0.00000000000E+00  0.00000000000E+00  0.74505805969E-08  0.10566000000E+00  0.10566000000E+00 0.  1.
     999900   -1    0    0    0    0 -0.00000000000E+00 -0.00000000000E+00 -0.74505805969E-08  0.93827000000E+00  0.93827000000E+00 0.  1.
     999902    2    1    2    0    0  0.33825637185E-02 -0.22599460835E-01  0.46794062117E-02  0.10206046016E+01  0.10203380217E+01 0.  0.
     999903    2    3    3    0    0 -0.21219390638E-02  0.10572555107E+00 -0.70018850407E-01  0.12814875521E+00  0.18359446512E-01 0.  0.
         14    1    1    2    0    0 -0.33825637185E-02  0.22599460835E-01 -0.46794062117E-02  0.23325398386E-01  0.00000000000E+00 0.  1.
     999901    1    3    3    0    0  0.55045027823E-02 -0.12832501191E+00  0.74698256618E-01  0.89245584640E+00  0.88000000000E+00 0. -1.
        -11    1    4    4    0    0  0.73346641798E-02  0.63075363134E-01 -0.44648874646E-01  0.77627842049E-01  0.51100000000E-03 0. -1.
         11    1    4    4    0    0 -0.94566032436E-02  0.42650187937E-01 -0.25369975761E-01  0.50520913165E-01  0.51100000000E-03 0.  1.
</event>
<event>
 8    1  0.1081309E+005  0.1043930E+01  0.7957747E-01            NaN
         13   -1    0    0    0    0  0.00000000000E+00  0.00000000000E+00  0.74505805969E-08  0.10566000000E+00  0.10566000000E+00 0.  1.
     999900   -1    0    0    0    0 -0.00000000000E+00 -0.00000000000E+00 -0.74505805969E-08  0.93827000000E+00  0.93827000000E+00 0. -1.
     999902    2    1    2    0    0  0.11385557081E-01  0.98192919829E-02  0.10542132518E-01  0.10255673759E+01  0.10254029728E+01 0.  0.
     999903    2    3    3    0    0  0.11208052599E+00  0.66025781288E-01 -0.37268949224E-01  0.13675662793E+00  0.19797792974E-01 0.  0.
         14    1    1    2    0    0 -0.11385557081E-01 -0.98192919829E-02 -0.10542132518E-01  0.18362624080E-01  0.00000000000E+00 0. -1.
     999901    1    3    3    0    0 -0.10069496891E+00 -0.56206489305E-01  0.47811081742E-01  0.88881074799E+00  0.88000000000E+00 0.  1.
        -11    1    4    4    0    0  0.19449871337E-01  0.10942286080E-01  0.11217084132E-02  0.22350625728E-01  0.51100000000E-03 0. -1.
         11    1    4    4    0    0  0.92630654650E-01  0.55083495208E-01 -0.38390657637E-01  0.11440600220E+00  0.51100000000E-03 0.  1.
</event>
<event>
 8    1  0.1081309E+005  0.1043930E+01  0.7957747E-01            NaN
         13   -1    0    0    0    0  0.00000000000E+00  0.00000000000E+00  0.74505805969E-08  0.10566000000E+00  0.10566000000E+00 0.  1.
     999900   -1    0    0    0    0 -0.00000000000E+00 -0.00000000000E+00 -0.74505805969E-08  0.93827000000E+00  0.93827000000E+00 0.  1.
     999902    2    1    2    0    0 -0.24499434592E-01 -0.44089724600E-03 -0.16502124135E-02  0.10193710935E+01  0.10190752114E+01 0.  0.
     999903    2    3    3    0    0 -0.72801394336E-01  0.95078645515E-01  0.50195252194E-01  0.13137052227E+00  0.19966445077E-01 0.  0.
         14    1    1    2    0    0  0.24499434592E-01  0.44089724600E-03  0.16502124135E-02  0.24558906464E-01  0.00000000000E+00 0. -1.
     999901    1    3    3    0    0  0.48301959744E-01 -0.95519542761E-01 -0.51845464608E-01  0.88800057126E+00  0.88000000000E+00 0.  1.
        -11    1    4    4    0    0 -0.27484146662E-01  0.52185403680E-01  0.23190702523E-01  0.63377949474E-01  0.51100000000E-03 0.  1.
         11    1    4    4    0    0 -0.45317247673E-01  0.42893241836E-01  0.27004549671E-01  0.67992572799E-01  0.51100000000E-03 0. -1.
</event>
<event>
 8    1  0.1081309E+005  0.1043930E+01  0.7957747E-01            NaN
         13   -1    0    0    0    0  0.00000000000E+00  0.00000000000E+00  0.74505805969E-08  0.10566000000E+00  0.10566000000E+00 0. -1.
     999900   -1    0    0    0    0 -0.00000000000E+00 -0.00000000000E+00 -0.74505805969E-08  0.93827000000E+00  0.93827000000E+00 0.  1.
     999902    2    1    2    0    0  0.24192065315E-01 -0.13824447686E-02 -0.71838114020E-02  0.10186560149E+01  0.10183424288E+01 0.  0.
     999903    2    3    3    0    0 -0.45192932623E-01 -0.89585294145E-02 -0.11870559831E+00  0.12887582632E+00  0.19882231558E-01 0.  0.
         14    1    1    2    0    0 -0.24192065315E-01  0.13824447686E-02  0.71838114020E-02  0.25273985123E-01  0.00000000000E+00 0.  1.
     999901    1    3    3    0    0  0.69384997938E-01  0.75760846460E-02  0.11152178690E+00  0.88978018856E+00  0.88000000000E+00 0. -1.
        -11    1    4    4    0    0 -0.10019722730E-01 -0.11047184797E-01 -0.33780225566E-01  0.36929661464E-01  0.51100000000E-03 0. -1.
         11    1    4    4    0    0 -0.35173209893E-01  0.20886553823E-02 -0.84925372740E-01  0.91946164855E-01  0.51100000000E-03 0.  1.
</event>
<event>
 8    1  0.1081309E+005  0.1043930E+01  0.7957747E-01            NaN
         13   -1    0    0    0    0  0.00000000000E+00  0.00000000000E+00  0.74505805969E-08  0.10566000000E+00  0.10566000000E+00 0. -1.
     999900   -1    0    0    0    0 -0.00000000000E+00 -0.00000000000E+00 -0.74505805969E-08  0.93827000000E+00  0.93827000000E+00 0.  1.
     999902    2    1    2    0    0 -0.18987437435E-01 -0.11811863169E-01 -0.58148701048E-02  0.10208246845E+01  0.10205631685E+01 0.  0.
     999903    2    3    3    0    0 -0.44269565742E-01 -0.74588006014E-01 -0.99465299635E-01  0.13327162516E+00  0.18569198932E-01 0.  0.
         14    1    1    2    0    0  0.18987437435E-01  0.11811863169E-01  0.58148701048E-02  0.23105315540E-01  0.00000000000E+00 0. -1.
     999901    1    3    3    0    0  0.25282128308E-01  0.62776142845E-01  0.93650429530E-01  0.88755305930E+00  0.88000000000E+00 0. -1.
        -11    1    4    4    0    0 -0.19008405570E-01 -0.34379771993E-01 -0.31484172992E-01  0.50346821892E-01  0.51100000000E-03 0. -1.
         11    1    4    4    0    0 -0.25261160173E-01 -0.40208234021E-01 -0.67981126643E-01  0.82924803268E-01  0.51100000000E-03 0.  1.
</event>
<event>
 8    1  0.1081309E+005  0.1043930E+01  0.7957747E-01            NaN
         13   -1    0    0    0    0  0.00000000000E+00  0.00000000000E+00  0.74505805969E-08  0.10566000000E+00  0.10566000000E+00 0. -1.
     999900   -1    0    0    0    0 -0.00000000000E+00 -0.00000000000E+00 -0.74505805969E-08  0.93827000000E+00  0.93827000000E+00 0. -1.
     999902    2    1    2    0    0 -0.21238489371E-01 -0.79286210167E-02 -0.86085037064E-02  0.10196804062E+01  0.10193920188E+01 0.  0.
     999903    2    3    3    0    0 -0.12403050356E+00 -0.16655997587E-02  0.41295897057E-01  0.13227076416E+00  0.20096365402E-01 0.  0.
         14    1    1    2    0    0  0.21238489371E-01  0.79286210167E-02  0.86085037064E-02  0.24249593771E-01  0.00000000000E+00 0. -1.
     999901    1    3    3    0    0  0.10279201419E+00 -0.62630212580E-02 -0.49904400763E-01  0.88740964207E+00  0.88000000000E+00 0.  1.
        -11    1    4    4    0    0 -0.56972759534E-01  0.92221122214E-02  0.19538491547E-01  0.60934033640E-01  0.51100000000E-03 0.  1.
         11    1    4    4    0    0 -0.67057744027E-01 -0.10887711980E-01  0.21757405510E-01  0.71336730523E-01  0.51100000000E-03 0. -1.
</event>
<event>
 8    1  0.1081309E+005  0.1043930E+01  0.7957747E-01            NaN
         13   -1    0    0    0    0  0.00000000000E+00  0.00000000000E+00  0.74505805969E-08  0.10566000000E+00  0.10566000000E+00 0.  1.
     999900   -1    0    0    0    0 -0.00000000000E+00 -0.00000000000E+00 -0.74505805969E-08  0.93827000000E+00  0.93827000000E+00 0.  1.
     999902    2    1    2    0    0  0.73417073709E-02  0.26177178052E-02 -0.28749136845E-01  0.10141429897E+01  0.10137054491E+01 0.  0.
     999903    2    3    3    0    0 -0.57921446760E-01  0.50437779674E-01  0.93009949607E-01  0.12208283884E+00  0.18828308490E-01 0.  0.
         14    1    1    2    0    0 -0.73417073709E-02 -0.26177178052E-02  0.28749136845E-01  0.29787010306E-01  0.00000000000E+00 0.  1.
     999901    1    3    3    0    0  0.65263154131E-01 -0.47820061869E-01 -0.12175908645E+00  0.89206015085E+00  0.88000000000E+00 0.  1.
        -11    1    4    4    0    0 -0.40913190380E-01  0.27798406702E-01  0.48152249712E-01  0.69032896763E-01  0.51100000000E-03 0.  1.
         11    1    4    4    0    0 -0.17008256380E-01  0.22639372972E-01  0.44857699896E-01  0.53049942079E-01  0.51100000000E-03 0. -1.
</event>
<event>
 8    1  0.1081309E+005  0.1043930E+01  0.7957747E-01            NaN
         13   -1    0    0    0    0  0.00000000000E+00  0.00000000000E+00  0.74505805969E-08  0.10566000000E+00  0.10566000000E+00 0.  1.
     999900   -1    0    0    0    0 -0.00000000000E+00 -0.00000000000E+00 -0.74505805969E-08  0.93827000000E+00  0.93827000000E+00 0. -1.
     999902    2    1    2    0    0  0.19688590588E-01 -0.12376753704E-02  0.11436647046E-01  0.10211271639E+01  0.10208725266E+01 0.  0.
     999903    2    3    3    0    0 -0.58026797295E-01 -0.57701728124E-02 -0.11311090615E+00  0.12895435659E+00  0.20850537071E-01 0.  0.
         14    1    1    2    0    0 -0.19688590588E-01  0.12376753704E-02 -0.11436647046E-01  0.22802836125E-01  0.00000000000E+00 0. -1.
     999901    1    3    3    0    0  0.77715387883E-01  0.45324974420E-02  0.12454755319E+00  0.89217280728E+00  0.88000000000E+00 0.  1.
        -11    1    4    4    0    0 -0.25397624386E-01 -0.99374163870E-02 -0.66737542833E-01  0.72096825959E-01  0.51100000000E-03 0. -1.
         11    1    4    4    0    0 -0.32629172909E-01  0.41672435746E-02 -0.46373363315E-01  0.56857530634E-01  0.51100000000E-03 0.  1.
</event>
<event>
 8    1  0.1081309E+005  0.1043930E+01  0.7957747E-01            NaN
         13   -1    0    0    0    0  0.00000000000E+00  0.00000000000E+00  0.74505805969E-08  0.10566000000E+00  0.10566000000E+00 0.  1.
     999900   -1    0    0    0    0 -0.00000000000E+00 -0.00000000000E+00 -0.74505805969E-08  0.93827000000E+00  0.93827000000E+00 0. -1.
     999902    2    1    2    0    0 -0.86092996500E-02  0.11206341678E-01  0.19074387637E-01  0.10201911205E+01  0.10199148925E+01 0.  0.
     999903    2    3    3    0    0 -0.84729547458E-01  0.33151303944E-01  0.95647265987E-01  0.13332062312E+00  0.18651645845E-01 0.  0.
         14    1    1    2    0    0  0.86092996500E-02 -0.11206341678E-01 -0.19074387637E-01  0.23738879459E-01  0.00000000000E+00 0. -1.
     999901    1    3    3    0    0  0.76120247808E-01 -0.21944962267E-01 -0.76572878350E-01  0.88687049742E+00  0.88000000000E+00 0. -1.
        -11    1    4    4    0    0 -0.52476867890E-01  0.23582315889E-01  0.47646465742E-01  0.74702035480E-01  0.51100000000E-03 0.  1.
         11    1    4    4    0    0 -0.32252679569E-01  0.95689880550E-02  0.48000800245E-01  0.58618587640E-01  0.51100000000E-03 0. -1.
</event>
<event>
 7    1  0.1083589E+005  0.1043930E+01  0.7957747E-01            NaN
         13   -1    0    0    0    0  0.00000000000E+00  0.00000000000E+00  0.74505805969E-08  0.10566000000E+00  0.10566000000E+00 0.  1.
     999900   -1    0    0    0    0 -0.00000000000E+00 -0.00000000000E+00 -0.74505805969E-08  0.93827000000E+00  0.93827000000E+00 0. -1.
     999903    2    1    2    0    0 -0.84936971198E-01 -0.58502018996E-01 -0.20057715181E-01  0.10723574793E+00  0.21457362194E-01 0.  0.
         14    1    1    2    0    0  0.45368042656E-01 -0.15088791955E-01  0.22246833338E-01  0.52733789269E-01  0.00000000000E+00 0.  1.
     999901    1    1    2    0    0  0.39568928542E-01  0.73590810951E-01 -0.21891181564E-02  0.88396046280E+00  0.88000000000E+00 0.  1.
        -11    1    3    3    0    0 -0.42833353441E-01 -0.42183384350E-01 -0.95872902969E-02  0.60879482081E-01  0.51100000000E-03 0.  1.
         11    1    3    3    0    0 -0.42103617757E-01 -0.16318634646E-01 -0.10470424885E-01  0.46356265846E-01  0.51100000000E-03 0. -1.
</event>
<event>
 8    1  0.1081309E+005  0.1043930E+01  0.7957747E-01            NaN
         13   -1    0    0    0    0  0.00000000000E+00  0.00000000000E+00  0.74505805969E-08  0.10566000000E+00  0.10566000000E+00 0. -1.
     999900   -1    0    0    0    0 -0.00000000000E+00 -0.00000000000E+00 -0.74505805969E-08  0.93827000000E+00  0.93827000000E+00 0.  1.
     999902    2    1    2    0    0 -0.49305592993E-02 -0.13667470029E-01 -0.18561723310E-01  0.10203578188E+01  0.10200855017E+01 0.  0.
     999903    2    3    3    0    0 -0.88988726732E-01  0.84758467418E-01 -0.39507995249E-01  0.13064315280E+00  0.20093790099E-01 0.  0.
         14    1    1    2    0    0  0.49305592993E-02  0.13667470029E-01  0.18561723310E-01  0.23572181151E-01  0.00000000000E+00 0. -1.
     999901    1    3    3    0    0  0.84058167432E-01 -0.98425937447E-01  0.20946271940E-01  0.88971466605E+00  0.88000000000E+00 0. -1.
        -11    1    4    4    0    0 -0.14978117842E-01  0.97361950956E-02 -0.12628938488E-01  0.21883526164E-01  0.51100000000E-03 0. -1.
         11    1    4    4    0    0 -0.74010608889E-01  0.75022272322E-01 -0.26879056761E-01  0.10875962664E+00  0.51100000000E-03 0.  1.
</event>
<event>
 8    1  0.1081309E+005  0.1043930E+01  0.7957747E-01            NaN
         13   -1    0    0    0    0  0.00000000000E+00  0.00000000000E+00  0.74505805969E-08  0.10566000000E+00  0.10566000000E+00 0.  1.
     999900   -1    0    0    0    0 -0.00000000000E+00 -0.00000000000E+00 -0.74505805969E-08  0.93827000000E+00  0.93827000000E+00 0. -1.
     999902    2    1    2    0    0  0.15466949835E-01  0.87317865868E-02 -0.16216493095E-01  0.10198791106E+01  0.10195954859E+01 0.  0.
     999903    2    3    3    0    0 -0.92619150474E-01 -0.86062369006E-01 -0.90381117588E-02  0.12818405834E+00  0.19089969982E-01 0.  0.
         14    1    1    2    0    0 -0.15466949835E-01 -0.87317865868E-02  0.16216493095E-01  0.24050889433E-01  0.00000000000E+00 0.  1.
     999901    1    3    3    0    0  0.10808610031E+00  0.94794155593E-01 -0.71783813362E-02  0.89169505223E+00  0.88000000000E+00 0. -1.
        -11    1    4    4    0    0 -0.57388913987E-02 -0.12709399633E-01 -0.32657895368E-02  0.14331441512E-01  0.51100000000E-03 0. -1.
         11    1    4    4    0    0 -0.86880259076E-01 -0.73352969373E-01 -0.57723222220E-02  0.11385261682E+00  0.51100000000E-03 0.  1.
</event>
<event>
 8    1  0.1081309E+005  0.1043930E+01  0.7957747E-01            NaN
         13   -1    0    0    0    0  0.00000000000E+00  0.00000000000E+00  0.74505805969E-08  0.10566000000E+00  0.10566000000E+00 0. -1.
     999900   -1    0    0    0    0 -0.00000000000E+00 -0.00000000000E+00 -0.74505805969E-08  0.93827000000E+00  0.93827000000E+00 0. -1.
     999902    2    1    2    0    0  0.64229886609E-02  0.22081761183E-01 -0.50177872275E-02  0.10203920063E+01  0.10201204876E+01 0.  0.
     999903    2    3    3    0    0 -0.60150800365E-01 -0.10247252187E+00  0.43704559494E-01  0.12780043904E+00  0.17439242414E-01 0.  0.
         14    1    1    2    0    0 -0.64229886609E-02 -0.22081761183E-01  0.50177872275E-02  0.23537993733E-01  0.00000000000E+00 0. -1.
     999901    1    3    3    0    0  0.66573789026E-01  0.12455428305E+00 -0.48722346722E-01  0.89259156723E+00  0.88000000000E+00 0.  1.
        -11    1    4    4    0    0 -0.20848865140E-01 -0.31545634504E-01  0.22424795451E-01  0.43965154451E-01  0.51100000000E-03 0.  1.
         11    1    4    4    0    0 -0.39301935225E-01 -0.70926887365E-01  0.21279764044E-01  0.83835284591E-01  0.51100000000E-03 0. -1.
</event>
<event>
 8    1  0.1139393E+005  0.1043930E+01  0.7957747E-01            NaN
         13   -1    0    0    0    0  0.00000000000E+00  0.00000000000E+00  0.74505805969E-08  0.10566000000E+00  0.10566000000E+00 0. -1.
     999900   -1    0    0    0    0 -0.00000000000E+00 -0.00000000000E+00 -0.74505805969E-08  0.93827000000E+00  0.93827000000E+00 0.  1.
     999902    2    1    2    0    0 -0.22235643840E-01 -0.74198031105E-03  0.76801521057E-02  0.10203936637E+01  0.10201221837E+01 0.  0.
     999903    2    3    3    0    0  0.93425672700E-02 -0.44114455463E-01 -0.11970397638E+00  0.12960464756E+00  0.20855549966E-01 0.  0.
         14    1    1    2    0    0  0.22235643840E-01  0.74198031105E-03 -0.76801521057E-02  0.23536336336E-01  0.00000000000E+00 0.  1.
     999901    1    3    3    0    0 -0.31578211110E-01  0.43372475152E-01  0.12738412849E+00  0.89078901610E+00  0.88000000000E+00 0. -1.
        -11    1    4    4    0    0  0.14847320224E-01 -0.22011271284E-01 -0.71938696248E-01  0.76683610506E-01  0.51100000000E-03 0. -1.
         11    1    4    4    0    0 -0.55047529543E-02 -0.22103184179E-01 -0.47765280132E-01  0.52921037056E-01  0.51100000000E-03 0.  1.
</event>
<event>
 8    1  0.1081309E+005  0.1043930E+01  0.7957747E-01            NaN
         13   -1    0    0    0    0  0.00000000000E+00  0.00000000000E+00  0.74505805969E-08  0.10566000000E+00  0.10566000000E+00 0. -1.
     999900   -1    0    0    0    0 -0.00000000000E+00 -0.00000000000E+00 -0.74505805969E-08  0.93827000000E+00  0.93827000000E+00 0. -1.
     999902    2    1    2    0    0 -0.14723661999E-01 -0.24709181247E-02 -0.18786845379E-01  0.10199333915E+01  0.10196510609E+01 0.  0.
     999903    2    3    3    0    0 -0.66221402311E-01 -0.10674325701E+00 -0.35377576450E-01  0.13212711183E+00  0.20654387515E-01 0.  0.
         14    1    1    2    0    0  0.14723661999E-01  0.24709181247E-02  0.18786845379E-01  0.23996608476E-01  0.00000000000E+00 0. -1.
     999901    1    3    3    0    0  0.51497740312E-01  0.10427233888E+00  0.16590731071E-01  0.88780627970E+00  0.88000000000E+00 0.  1.
        -11    1    4    4    0    0 -0.39410045439E-01 -0.50103304348E-01 -0.25626479618E-01  0.68705679290E-01  0.51100000000E-03 0. -1.
         11    1    4    4    0    0 -0.26811356872E-01 -0.56639952659E-01 -0.97510968320E-02  0.63421432537E-01  0.51100000000E-03 0.  1.
</event>
<event>
 8    1  0.1081309E+005  0.1043930E+01  0.7957747E-01            NaN
         13   -1    0    0    0    0  0.00000000000E+00  0.00000000000E+00  0.74505805969E-08  0.10566000000E+00  0.10566000000E+00 0. -1.
     999900   -1    0    0    0    0 -0.00000000000E+00 -0.00000000000E+00 -0.74505805969E-08  0.93827000000E+00  0.93827000000E+00 0.  1.
     999902    2    1    2    0    0 -0.22237115371E-01  0.89139325531E-03 -0.42795784191E-02  0.10212672845E+01  0.10210158019E+01 0.  0.
     999903    2    3    3    0    0 -0.11166793586E-01  0.12762792924E+00 -0.20191891328E-01  0.13197661027E+00  0.24423914140E-01 0.  0.
         14    1    1    2    0    0  0.22237115371E-01 -0.89139325531E-03  0.42795784191E-02  0.22662715490E-01  0.00000000000E+00 0.  1.
     999901    1    3    3    0    0 -0.11070321785E-01 -0.12673653599E+00  0.15912312909E-01  0.88929067423E+00  0.88000000000E+00 0.  1.
        -11    1    4    4    0    0 -0.15384216984E-01  0.10274803532E+00 -0.87444393012E-02  0.10426197406E+00  0.51100000000E-03 0. -1.
         11    1    4    4    0    0  0.42174233976E-02  0.24879893922E-01 -0.11447452027E-01  0.27714636216E-01  0.51100000000E-03 0.  1.
</event>
<event>
 8    1  0.1081309E+005  0.1043930E+01  0.7957747E-01            NaN
         13   -1    0    0    0    0  0.00000000000E+00  0.00000000000E+00  0.74505805969E-08  0.10566000000E+00  0.10566000000E+00 0.  1.
     999900   -1    0    0    0    0 -0.00000000000E+00 -0.00000000000E+00 -0.74505805969E-08  0.93827000000E+00  0.93827000000E+00 0. -1.
     999902    2    1    2    0    0  0.18800865846E-01 -0.96368026570E-02 -0.11399821589E-01  0.10199238247E+01  0.10196412662E+01 0.  0.
     999903    2    3    3    0    0  0.10910491864E+00 -0.28060173738E-01 -0.67407134917E-01  0.13333989649E+00  0.23335585193E-01 0.  0.
         14    1    1    2    0    0 -0.18800865846E-01  0.96368026570E-02  0.11399821589E-01  0.24006175336E-01  0.00000000000E+00 0.  1.
     999901    1    3    3    0    0 -0.90304052794E-01  0.18423371081E-01  0.56007313328E-01  0.88658392818E+00  0.88000000000E+00 0.  1.
        -11    1    4    4    0    0  0.84668856404E-02 -0.93844217111E-02 -0.85288325123E-02  0.15256396309E-01  0.51100000000E-03 0.  1.
         11    1    4    4    0    0  0.10063803300E+00 -0.18675752027E-01 -0.58878302404E-01  0.11808350018E+00  0.51100000000E-03 0. -1.
</event>
<event>
 8    1  0.1081309E+005  0.1043930E+01  0.7957747E-01            NaN
         13   -1    0    0    0    0  0.00000000000E+00  0.00000000000E+00  0.74505805969E-08  0.10566000000E+00  0.10566000000E+00 0. -1.
     999900   -1    0    0    0    0 -0.00000000000E+00 -0.00000000000E+00 -0.74505805969E-08  0.93827000000E+00  0.93827000000E+00 0. -1.
     999902    2    1    2    0    0 -0.41810272078E-02 -0.13624456734E-01  0.19726859357E-01  0.10195936940E+01  0.10193032155E+01 0.  0.
     999903    2    3    3    0    0  0.11324539896E+00 -0.63204732956E-01  0.58099051414E-02  0.13030136244E+00  0.11195150873E-01 0.  0.
         14    1    1    2    0    0  0.41810272078E-02  0.13624456734E-01 -0.19726859357E-01  0.24336306003E-01  0.00000000000E+00 0.  1.
     999901    1    3    3    0    0 -0.11742642616E+00  0.49580276222E-01  0.13916954215E-01  0.88929233156E+00  0.88000000000E+00 0. -1.
        -11    1    4    4    0    0  0.81966356962E-01 -0.45350205054E-01 -0.79833463748E-03  0.93680431421E-01  0.51100000000E-03 0.  1.
         11    1    4    4    0    0  0.31279041994E-01 -0.17854527902E-01  0.66082397789E-02  0.36620931018E-01  0.51100000000E-03 0. -1.
</event>
<event>
 8    1  0.1081309E+005  0.1043930E+01  0.7957747E-01            NaN
         13   -1    0    0    0    0  0.00000000000E+00  0.00000000000E+00  0.74505805969E-08  0.10566000000E+00  0.10566000000E+00 0. -1.
     999900   -1    0    0    0    0 -0.00000000000E+00 -0.00000000000E+00 -0.74505805969E-08  0.93827000000E+00  0.93827000000E+00 0.  1.
     999902    2    1    2    0    0 -0.80640951307E-02  0.22112504439E-01 -0.28853563879E-02  0.10202167597E+01  0.10199411351E+01 0.  0.
     999903    2    3    3    0    0  0.95970285885E-01 -0.35766939410E-01  0.75317136362E-01  0.12876355718E+00  0.20440472119E-01 0.  0.
         14    1    1    2    0    0  0.80640951307E-02 -0.22112504439E-01  0.28853563879E-02  0.23713240275E-01  0.00000000000E+00 0. -1.
     999901    1    3    3    0    0 -0.10403438102E+00  0.57879443849E-01 -0.78202492750E-01  0.89145320254E+00  0.88000000000E+00 0. -1.
        -11    1    4    4    0    0  0.47099662102E-01 -0.14077909165E-01  0.24216089326E-01  0.54801877704E-01  0.51100000000E-03 0.  1.
         11    1    4    4    0    0  0.48870623783E-01 -0.21689030246E-01  0.51101047036E-01  0.73961679477E-01  0.51100000000E-03 0. -1.
</event>
<event>
 8    1  0.1081309E+005  0.1043930E+01  0.7957747E-01            NaN
         13   -1    0    0    0    0  0.00000000000E+00  0.00000000000E+00  0.74505805969E-08  0.10566000000E+00  0.10566000000E+00 0.  1.
     999900   -1    0    0    0    0 -0.00000000000E+00 -0.00000000000E+00 -0.74505805969E-08  0.93827000000E+00  0.93827000000E+00 0.  1.
     999902    2    1    2    0    0  0.15944361482E-01 -0.17846643664E-01  0.52542640659E-02  0.10194283134E+01  0.10191338252E+01 0.  0.
     999903    2    3    3    0    0 -0.33253405845E-01 -0.71961098552E-01  0.10230797283E+00  0.13107690948E+00  0.20737555034E-01 0.  0.
         14    1    1    2    0    0 -0.15944361482E-01  0.17846643664E-01 -0.52542640659E-02  0.24501686555E-01  0.00000000000E+00 0. -1.
     999901    1    3    3    0    0  0.49197767327E-01  0.54114454888E-01 -0.97053708768E-01  0.88835140396E+00  0.88000000000E+00 0.  1.
        -11    1    4    4    0    0 -0.34159061591E-01 -0.54204127876E-01  0.77611527460E-01  0.10064163792E+00  0.51100000000E-03 0.  1.
         11    1    4    4    0    0  0.90565574622E-03 -0.17756970676E-01  0.24696445374E-01  0.30435271562E-01  0.51100000000E-03 0. -1.
</event>
<event>
 8    1  0.1081309E+005  0.1043930E+01  0.7957747E-01            NaN
         13   -1    0    0    0    0  0.00000000000E+00  0.00000000000E+00  0.74505805969E-08  0.10566000000E+00  0.10566000000E+00 0. -1.
     999900   -1    0    0    0    0 -0.00000000000E+00 -0.00000000000E+00 -0.74505805969E-08  0.93827000000E+00  0.93827000000E+00 0.  1.
     999902    2    1    2    0    0  0.19817565780E-01  0.10049496237E-01 -0.65018867328E-02  0.10207782653E+01  0.10205156854E+01 0.  0.
     999903    2    3    3    0    0 -0.67949934377E-01  0.10779867293E+00 -0.22612352154E-01  0.13088075283E+00  0.19511676585E-01 0.  0.
         14    1    1    2    0    0 -0.19817565780E-01 -0.10049496237E-01  0.65018867328E-02  0.23151734690E-01  0.00000000000E+00 0.  1.
     999901    1    3    3    0    0  0.87767500157E-01 -0.97749176694E-01  0.16110465422E-01  0.88989751248E+00  0.88000000000E+00 0. -1.
        -11    1    4    4    0    0 -0.13961986251E-01  0.34763577336E-01 -0.12494180003E-01  0.39494417634E-01  0.51100000000E-03 0.  1.
         11    1    4    4    0    0 -0.53987948126E-01  0.73035095594E-01 -0.10118172151E-01  0.91386335193E-01  0.51100000000E-03 0. -1.
</event>
<event>
 8    1  0.1081309E+005  0.1043930E+01  0.7957747E-01            NaN
         13   -1    0    0    0    0  0.00000000000E+00  0.00000000000E+00  0.74505805969E-08  0.10566000000E+00  0.10566000000E+00 0.  1.
     999900   -1    0    0    0    0 -0.00000000000E+00 -0.00000000000E+00 -0.74505805969E-08  0.93827000000E+00  0.93827000000E+00 0. -1.
     999902    2    1    2    0    0 -0.14457709394E-01 -0.75480647979E-02 -0.17491211053E-01  0.10200147098E+01  0.10197343120E+01 0.  0.
     999903    2    3    3    0    0 -0.46794541610E-01 -0.11448310124E+00  0.38338948817E-01  0.13119651717E+00  0.21131529167E-01 0.  0.
         14    1    1    2    0    0  0.14457709394E-01  0.75480647979E-02  0.17491211053E-01  0.23915290239E-01  0.00000000000E+00 0. -1.
     999901    1    3    3    0    0  0.32336832215E-01  0.10693503645E+00 -0.55830159870E-01  0.88881819260E+00  0.88000000000E+00 0.  1.
        -11    1    4    4    0    0 -0.41887778472E-01 -0.10092408852E+00  0.26270740601E-01  0.11238625611E+00  0.51100000000E-03 0.  1.
         11    1    4    4    0    0 -0.49067631379E-02 -0.13559012722E-01  0.12068208216E-01  0.18810261057E-01  0.51100000000E-03 0. -1.
</event>
<event>
 8    1  0.1081309E+005  0.1043930E+01  0.7957747E-01            NaN
         13   -1    0    0    0    0  0.00000000000E+00  0.00000000000E+00  0.74505805969E-08  0.10566000000E+00  0.10566000000E+00 0. -1.
     999900   -1    0    0    0    0 -0.00000000000E+00 -0.00000000000E+00 -0.74505805969E-08  0.93827000000E+00  0.93827000000E+00 0. -1.
     999902    2    1    2    0    0  0.67674100283E-02 -0.83682190429E-02  0.20964628801E-01  0.10203643345E+01  0.10200921697E+01 0.  0.
     999903    2    3    3    0    0 -0.11975835802E-01 -0.92164993110E-01  0.93490027932E-01  0.13321545067E+00  0.19187609977E-01 0.  0.
         14    1    1    2    0    0 -0.67674100283E-02  0.83682190429E-02 -0.20964628801E-01  0.23565665473E-01  0.00000000000E+00 0.  1.
     999901    1    3    3    0    0  0.18743245830E-01  0.83796774067E-01 -0.72525399131E-01  0.88714888386E+00  0.88000000000E+00 0. -1.
        -11    1    4    4    0    0 -0.13654749651E-01 -0.37996212324E-01  0.34520313502E-01  0.53123229423E-01  0.51100000000E-03 0. -1.
         11    1    4    4    0    0  0.16789138491E-02 -0.54168780786E-01  0.58969714430E-01  0.80092221248E-01  0.51100000000E-03 0.  1.
</event>
<event>
 8    1  0.1081309E+005  0.1043930E+01  0.7957747E-01            NaN
         13   -1    0    0    0    0  0.00000000000E+00  0.00000000000E+00  0.74505805969E-08  0.10566000000E+00  0.10566000000E+00 0. -1.
     999900   -1    0    0    0    0 -0.00000000000E+00 -0.00000000000E+00 -0.74505805969E-08  0.93827000000E+00  0.93827000000E+00 0.  1.
     999902    2    1    2    0    0 -0.17126630675E-01 -0.16384464924E-01  0.64674763935E-02  0.10193617192E+01  0.10190656084E+01 0.  0.
     999903    2    3    3    0    0 -0.78803600613E-01  0.74319199624E-01  0.68940109037E-01  0.13035438899E+00  0.22498382019E-01 0.  0.
         14    1    1    2    0    0  0.17126630675E-01  0.16384464924E-01 -0.64674763935E-02  0.24568280771E-01  0.00000000000E+00 0. -1.
     999901    1    3    3    0    0  0.61676969938E-01 -0.90703664549E-01 -0.62472632643E-01  0.88900733024E+00  0.88000000000E+00 0.  1.
        -11    1    4    4    0    0 -0.40311074007E-01  0.52681296791E-01  0.44528614489E-01  0.79895934493E-01  0.51100000000E-03 0. -1.
         11    1    4    4    0    0 -0.38492526606E-01  0.21637902833E-01  0.24411494548E-01  0.50458454500E-01  0.51100000000E-03 0.  1.
</event>
<event>
 8    1  0.1081309E+005  0.1043930E+01  0.7957747E-01            NaN
         13   -1    0    0    0    0  0.00000000000E+00  0.00000000000E+00  0.74505805969E-08  0.10566000000E+00  0.10566000000E+00 0.  1.
     999900   -1    0    0    0    0 -0.00000000000E+00 -0.00000000000E+00 -0.74505805969E-08  0.93827000000E+00  0.93827000000E+00 0. -1.
     999902    2    1    2    0    0 -0.21194146248E-04 -0.25478409825E-02  0.25565056897E-01  0.10182382878E+01  0.10179141155E+01 0.  0.
     999903    2    3    3    0    0 -0.42476599195E-01  0.37996987735E-01 -0.11028406862E+00  0.12588111183E+00  0.20867342175E-01 0.  0.
         14    1    1    2    0    0  0.21194146248E-04  0.25478409825E-02 -0.25565056897E-01  0.25691712224E-01  0.00000000000E+00 0. -1.
     999901    1    3    3    0    0  0.42455405048E-01 -0.40544828718E-01  0.13584912551E+00  0.89235717594E+00  0.88000000000E+00 0.  1.
        -11    1    4    4    0    0 -0.23109220868E-01  0.14836712727E-01 -0.72404352306E-01  0.77439108256E-01  0.51100000000E-03 0.  1.
         11    1    4    4    0    0 -0.19367378327E-01  0.23160275008E-01 -0.37879716311E-01  0.48442003577E-01  0.51100000000E-03 0. -1.
</event>
<event>
 8    1  0.1081309E+005  0.1043930E+01  0.7957747E-01            NaN
         13   -1    0    0    0    0  0.00000000000E+00  0.00000000000E+00  0.74505805969E-08  0.10566000000E+00  0.10566000000E+00 0.  1.
     999900   -1    0    0    0    0 -0.00000000000E+00 -0.00000000000E+00 -0.74505805969E-08  0.93827000000E+00  0.93827000000E+00 0.  1.
     999902    2    1    2    0    0 -0.19102521262E-01 -0.83099411563E-02 -0.10941917477E-01  0.10203994454E+01  0.10201281004E+01 0.  0.
     999903    2    3    3    0    0 -0.85251873820E-01 -0.56576823666E-01  0.80688377811E-01  0.13186045370E+00  0.20192720752E-01 0.  0.
         14    1    1    2    0    0  0.19102521262E-01  0.83099411563E-02  0.10941917477E-01  0.23530554576E-01  0.00000000000E+00 0.  1.
     999901    1    3    3    0    0  0.66149352558E-01  0.48266882509E-01 -0.91630295288E-01  0.88853899172E+00  0.88000000000E+00 0.  1.
        -11    1    4    4    0    0 -0.60283685134E-01 -0.50273721660E-01  0.62251789062E-01  0.10018540884E+00  0.51100000000E-03 0. -1.
         11    1    4    4    0    0 -0.24968188686E-01 -0.63031020051E-02  0.18436588748E-01  0.31675044859E-01  0.51100000000E-03 0.  1.
</event>
<event>
 8    1  0.1081309E+005  0.1043930E+01  0.7957747E-01            NaN
         13   -1    0    0    0    0  0.00000000000E+00  0.00000000000E+00  0.74505805969E-08  0.10566000000E+00  0.10566000000E+00 0. -1.
     999900   -1    0    0    0    0 -0.00000000000E+00 -0.00000000000E+00 -0.74505805969E-08  0.93827000000E+00  0.93827000000E+00 0. -1.
     999902    2    1    2    0    0 -0.15663145947E-01  0.15174464539E-01  0.83359972922E-02  0.10205828938E+01  0.10203158118E+01 0.  0.
     999903    2    3    3    0    0  0.10652211654E-01  0.92955803279E-01  0.92069009145E-01  0.13280271161E+00  0.20139681934E-01 0.  0.
         14    1    1    2    0    0  0.15663145947E-01 -0.15174464539E-01 -0.83359972922E-02  0.23347106156E-01  0.00000000000E+00 0.  1.
     999901    1    3    3    0    0 -0.26315357601E-01 -0.77781338740E-01 -0.83733011852E-01  0.88778018224E+00  0.88000000000E+00 0. -1.
        -11    1    4    4    0    0  0.16181573500E-01  0.58027014243E-01  0.55108133561E-01  0.81646464764E-01  0.51100000000E-03 0. -1.
         11    1    4    4    0    0 -0.55293618457E-02  0.34928789037E-01  0.36960875584E-01  0.51156246841E-01  0.51100000000E-03 0.  1.
</event>
<event>
 8    1  0.1106045E+005  0.1043930E+01  0.7957747E-01            NaN
         13   -1    0    0    0    0  0.00000000000E+00  0.00000000000E+00  0.74505805969E-08  0.10566000000E+00  0.10566000000E+00 0.  1.
     999900   -1    0    0    0    0 -0.00000000000E+00 -0.00000000000E+00 -0.74505805969E-08  0.93827000000E+00  0.93827000000E+00 0. -1.
     999902    2    1    2    0    0 -0.16976068755E-01  0.67723631621E-02  0.15260698670E-01  0.10201194826E+01  0.10198415652E+01 0.  0.
     999903    2    3    3    0    0 -0.11838751566E+00  0.40049429680E-01  0.41952199645E-01  0.13326882951E+00  0.19520071277E-01 0.  0.
         14    1    1    2    0    0  0.16976068755E-01 -0.67723631621E-02 -0.15260698670E-01  0.23810517362E-01  0.00000000000E+00 0. -1.
     999901    1    3    3    0    0  0.10141144691E+00 -0.33277066518E-01 -0.26691500975E-01  0.88685065312E+00  0.88000000000E+00 0.  1.
        -11    1    4    4    0    0 -0.85577399682E-01  0.29575036023E-01  0.39347570600E-01  0.98725207142E-01  0.51100000000E-03 0.  1.
         11    1    4    4    0    0 -0.32810115981E-01  0.10474393657E-01  0.26046290445E-02  0.34543622373E-01  0.51100000000E-03 0. -1.
</event>
<event>
 8    1  0.1081309E+005  0.1043930E+01  0.7957747E-01            NaN
         13   -1    0    0    0    0  0.00000000000E+00  0.00000000000E+00  0.74505805969E-08  0.10566000000E+00  0.10566000000E+00 0. -1.
     999900   -1    0    0    0    0 -0.00000000000E+00 -0.00000000000E+00 -0.74505805969E-08  0.93827000000E+00  0.93827000000E+00 0. -1.
     999902    2    1    2    0    0  0.53118758315E-02 -0.18950475553E-01 -0.13431979624E-01  0.10201023978E+01  0.10198240767E+01 0.  0.
     999903    2    3    3    0    0  0.27374346940E-02  0.12588824514E+00 -0.13824445862E-01  0.12825878105E+00  0.20096163816E-01 0.  0.
         14    1    1    2    0    0 -0.53118758315E-02  0.18950475553E-01  0.13431979624E-01  0.23827602170E-01  0.00000000000E+00 0. -1.
     999901    1    3    3    0    0  0.25744411375E-02 -0.14483872069E+00  0.39246623766E-03  0.89184361678E+00  0.88000000000E+00 0. -1.
        -11    1    4    4    0    0 -0.83787815997E-02  0.38252585051E-01 -0.49655665311E-02  0.39476350087E-01  0.51100000000E-03 0.  1.
         11    1    4    4    0    0  0.11116216294E-01  0.87635660090E-01 -0.88588793306E-02  0.88782430965E-01  0.51100000000E-03 0. -1.
</event>
<event>
 8    1  0.1081309E+005  0.1043930E+01  0.7957747E-01            NaN
         13   -1    0    0    0    0  0.00000000000E+00  0.00000000000E+00  0.74505805969E-08  0.10566000000E+00  0.10566000000E+00 0.  1.
     999900   -1    0    0    0    0 -0.00000000000E+00 -0.00000000000E+00 -0.74505805969E-08  0.93827000000E+00  0.93827000000E+00 0. -1.
     999902    2    1    2    0    0  0.15012872706E-01  0.17801426617E-02 -0.17478925351E-01  0.10208200868E+01  0.10205584656E+01 0.  0.
     999903    2    3    3    0    0  0.84298617776E-01 -0.48735350555E-01 -0.90909642981E-01  0.13360850000E+00  0.10260445117E-01 0.  0.
         14    1    1    2    0    0 -0.15012872706E-01 -0.17801426617E-02  0.17478925351E-01  0.23109913159E-01  0.00000000000E+00 0.  1.
     999901    1    3    3    0    0 -0.69285745070E-01  0.50515493216E-01  0.73430717630E-01  0.88721158684E+00  0.88000000000E+00 0.  1.
        -11    1    4    4    0    0  0.45116307104E-01 -0.21995115143E-01 -0.41714007959E-01  0.65265502663E-01  0.51100000000E-03 0.  1.
         11    1    4    4    0    0  0.39182310672E-01 -0.26740235411E-01 -0.49195635022E-01  0.68342997342E-01  0.51100000000E-03 0. -1.
</event>
<event>
 8    1  0.1081309E+005  0.1043930E+01  0.7957747E-01            NaN
         13   -1    0    0    0    0  0.00000000000E+00  0.00000000000E+00  0.74505805969E-08  0.10566000000E+00  0.10566000000E+00 0. -1.
     999900   -1    0    0    0    0 -0.00000000000E+00 -0.00000000000E+00 -0.74505805969E-08  0.93827000000E+00  0.93827000000E+00 0.  1.
     999902    2    1    2    0    0 -0.38630487640E-02  0.22566452702E-01 -0.64483004208E-02  0.10201445315E+01  0.10198672054E+01 0.  0.
     999903    2    3    3    0    0 -0.82431418630E-01 -0.94891571767E-01  0.18401653365E-01  0.12852415463E+00  0.19506109462E-01 0.  0.
         14    1    1    2    0    0  0.38630487640E-02 -0.22566452702E-01  0.64483004208E-02  0.23785468497E-01  0.00000000000E+00 0. -1.
     999901    1    3    3    0    0  0.78568369866E-01  0.11745802447E+00 -0.24849953785E-01  0.89162037688E+00  0.88000000000E+00 0.  1.
        -11    1    4    4    0    0 -0.33515539369E-01 -0.52928837213E-01  0.65317598794E-02  0.62989508619E-01  0.51100000000E-03 0.  1.
         11    1    4    4    0    0 -0.48915879261E-01 -0.41962734554E-01  0.11869893485E-01  0.65534646009E-01  0.51100000000E-03 0. -1.
</event>
<event>
 8    1  0.1081309E+005  0.1043930E+01  0.7957747E-01            NaN
         13   -1    0    0    0    0  0.00000000000E+00  0.00000000000E+00  0.74505805969E-08  0.10566000000E+00  0.10566000000E+00 0.  1.
     999900   -1    0    0    0    0 -0.00000000000E+00 -0.00000000000E+00 -0.74505805969E-08  0.93827000000E+00  0.93827000000E+00 0. -1.
     999902    2    1    2    0    0  0.98162726292E-03 -0.10263549652E-01 -0.20476432769E-01  0.10210042864E+01  0.10207468661E+01 0.  0.
     999903    2    3    3    0    0 -0.65466482453E-01  0.81167854674E-01 -0.78418369817E-01  0.13188544114E+00  0.19241826937E-01 0.  0.
         14    1    1    2    0    0 -0.98162726292E-03  0.10263549652E-01  0.20476432769E-01  0.22925713566E-01  0.00000000000E+00 0.  1.
     999901    1    3    3    0    0  0.66448109716E-01 -0.91431404326E-01  0.57941937048E-01  0.88911884529E+00  0.88000000000E+00 0.  1.
        -11    1    4    4    0    0 -0.25065494837E-01  0.45790530024E-01 -0.35374882220E-01  0.63061042525E-01  0.51100000000E-03 0. -1.
         11    1    4    4    0    0 -0.40400987615E-01  0.35377324650E-01 -0.43043487597E-01  0.68824398619E-01  0.51100000000E-03 0.  1.
</event>
<event>
 8    1  0.1081309E+005  0.1043930E+01  0.7957747E-01            NaN
         13   -1    0    0    0    0  0.00000000000E+00  0.00000000000E+00  0.74505805969E-08  0.10566000000E+00  0.10566000000E+00 0.  1.
     999900   -1    0    0    0    0 -0.00000000000E+00 -0.00000000000E+00 -0.74505805969E-08  0.93827000000E+00  0.93827000000E+00 0.  1.
     999902    2    1    2    0    0  0.10485563633E-01 -0.51228541525E-02 -0.21638251892E-01  0.10193453580E+01  0.10190488478E+01 0.  0.
     999903    2    3    3    0    0  0.17185091180E-01  0.12110242050E+00  0.34530625204E-01  0.12854086404E+00  0.19216296225E-01 0.  0.
         14    1    1    2    0    0 -0.10485563633E-01  0.51228541525E-02  0.21638251892E-01  0.24584642042E-01  0.00000000000E+00 0.  1.
     999901    1    3    3    0    0 -0.66995275474E-02 -0.12622527465E+00 -0.56168877097E-01  0.89080449392E+00  0.88000000000E+00 0.  1.
        -11    1    4    4    0    0 -0.26272318280E-02  0.45034542325E-01  0.15016977336E-01  0.47547692676E-01  0.51100000000E-03 0. -1.
         11    1    4    4    0    0  0.19812323008E-01  0.76067878178E-01  0.19513647868E-01  0.80993171364E-01  0.51100000000E-03 0.  1.
</event>
<event>
 8    1  0.1081309E+005  0.1043930E+01  0.7957747E-01            NaN
         13   -1    0    0    0    0  0.00000000000E+00  0.00000000000E+00  0.74505805969E-08  0.10566000000E+00  0.10566000000E+00 0. -1.
     999900   -1    0    0    0    0 -0.00000000000E+00 -0.00000000000E+00 -0.74505805969E-08  0.93827000000E+00  0.93827000000E+00 0.  1.
     999902    2    1    2    0    0  0.16997423780E-01 -0.10949812024E-01  0.67119546978E-02  0.10226259831E+01  0.10224040494E+01 0.  0.
     999903    2    3    3    0    0 -0.10136941534E+00 -0.52524907750E-01 -0.61241692276E-01  0.13113459489E+00  0.20275916850E-01 0.  0.
         14    1    1    2    0    0 -0.16997423780E-01  0.10949812024E-01 -0.67119546978E-02  0.21304016860E-01  0.00000000000E+00 0.  1.
     999901    1    3    3    0    0  0.11836683912E+00  0.41575095727E-01  0.67953646974E-01  0.89149138825E+00  0.88000000000E+00 0. -1.
        -11    1    4    4    0    0 -0.37714118288E-01 -0.12538598588E-01 -0.29669605879E-01  0.49599574664E-01  0.51100000000E-03 0.  1.
         11    1    4    4    0    0 -0.63655297049E-01 -0.39986309162E-01 -0.31572086397E-01  0.81535020226E-01  0.51100000000E-03 0. -1.
</event>
<event>
 8    1  0.1081309E+005  0.1043930E+01  0.7957747E-01            NaN
         13   -1    0    0    0    0  0.00000000000E+00  0.00000000000E+00  0.74505805969E-08  0.10566000000E+00  0.10566000000E+00 0.  1.
     999900   -1    0    0    0    0 -0.00000000000E+00 -0.00000000000E+00 -0.74505805969E-08  0.93827000000E+00  0.93827000000E+00 0. -1.
     999902    2    1    2    0    0  0.79992403106E-02  0.19596588111E-01  0.73582672468E-03  0.10227508699E+01  0.10225315576E+01 0.  0.
     999903    2    3    3    0    0 -0.63073216898E-01  0.11163580883E+00 -0.34845381178E-01  0.13438803035E+00  0.20128527235E-01 0.  0.
         14    1    1    2    0    0 -0.79992403106E-02 -0.19596588111E-01 -0.73582672468E-03  0.21179130108E-01  0.00000000000E+00 0. -1.
     999901    1    3    3    0    0  0.71072457208E-01 -0.92039220720E-01  0.35581207902E-01  0.88836283954E+00  0.88000000000E+00 0. -1.
        -11    1    4    4    0    0 -0.28103916482E-01  0.35968443261E-01 -0.53332825949E-02  0.45959373978E-01  0.51100000000E-03 0.  1.
         11    1    4    4    0    0 -0.34969300416E-01  0.75667365570E-01 -0.29512098583E-01  0.88428656371E-01  0.51100000000E-03 0. -1.
</event>
<event>
 8    1  0.1081309E+005  0.1043930E+01  0.7957747E-01            NaN
         13   -1    0    0    0    0  0.00000000000E+00  0.00000000000E+00  0.74505805969E-08  0.10566000000E+00  0.10566000000E+00 0. -1.
     999900   -1    0    0    0    0 -0.00000000000E+00 -0.00000000000E+00 -0.74505805969E-08  0.93827000000E+00  0.93827000000E+00 0. -1.
     999902    2    1    2    0    0  0.10446602107E-01  0.15899606711E-01  0.13024033659E-01  0.10208745355E+01  0.10206141596E+01 0.  0.
     999903    2    3    3    0    0 -0.30095301461E-01 -0.11830670862E+00 -0.34411054554E-01  0.12851526449E+00  0.20732777321E-01 0.  0.
         14    1    1    2    0    0 -0.10446602107E-01 -0.15899606711E-01 -0.13024033659E-01  0.23055464469E-01  0.00000000000E+00 0.  1.
     999901    1    3    3    0    0  0.40541903568E-01  0.13420631534E+00  0.47435088213E-01  0.89235927104E+00  0.88000000000E+00 0.  1.
        -11    1    4    4    0    0 -0.89166471072E-03 -0.42905918921E-01 -0.10302669524E-01  0.44137501796E-01  0.51100000000E-03 0. -1.
         11    1    4    4    0    0 -0.29203636750E-01 -0.75400789704E-01 -0.24108385030E-01  0.84377762693E-01  0.51100000000E-03 0.  1.
</event>
<event>
 8    1  0.1081309E+005  0.1043930E+01  0.7957747E-01            NaN
         13   -1    0    0    0    0  0.00000000000E+00  0.00000000000E+00  0.74505805969E-08  0.10566000000E+00  0.10566000000E+00 0. -1.
     999900   -1    0    0    0    0 -0.00000000000E+00 -0.00000000000E+00 -0.74505805969E-08  0.93827000000E+00  0.93827000000E+00 0.  1.
     999902    2    1    2    0    0  0.88298962193E-02 -0.13293674685E-01 -0.15212495974E-01  0.10218821228E+01  0.10216442454E+01 0.  0.
     999903    2    3    3    0    0 -0.10272510977E+00  0.55073289949E-01 -0.56977868358E-01  0.13122904360E+00  0.19724831010E-01 0.  0.
         14    1    1    2    0    0 -0.88298962193E-02  0.13293674685E-01  0.15212495974E-01  0.22047877169E-01  0.00000000000E+00 0. -1.
     999901    1    3    3    0    0  0.11155500599E+00 -0.68366964634E-01  0.41765372384E-01  0.89065307923E+00  0.88000000000E+00 0. -1.
        -11    1    4    4    0    0 -0.23292302801E-01  0.21990017797E-01 -0.12761223901E-01  0.34484811279E-01  0.51100000000E-03 0. -1.
         11    1    4    4    0    0 -0.79432806969E-01  0.33083272151E-01 -0.44216644458E-01  0.96744232320E-01  0.51100000000E-03 0.  1.
</event>
<event>
 8    1  0.1081309E+005  0.1043930E+01  0.7957747E-01            NaN
         13   -1    0    0    0    0  0.00000000000E+00  0.00000000000E+00  0.74505805969E-08  0.10566000000E+00  0.10566000000E+00 0. -1.
     999900   -1    0    0    0    0 -0.00000000000E+00 -0.00000000000E+00 -0.74505805969E-08  0.93827000000E+00  0.93827000000E+00 0. -1.
     999902    2    1    2    0    0  0.23567578937E-01 -0.37071832856E-02  0.12217746891E-03  0.10200723196E+01  0.10197932871E+01 0.  0.
     999903    2    3    3    0    0  0.11661664646E+00  0.60516034834E-01  0.48951255401E-02  0.13282628175E+00  0.18900427656E-01 0.  0.
         14    1    1    2    0    0 -0.23567578937E-01  0.37071832856E-02 -0.12217746891E-03  0.23857680360E-01  0.00000000000E+00 0. -1.
     999901    1    3    3    0    0 -0.93049067527E-01 -0.64223218120E-01 -0.47729480712E-02  0.88724603789E+00  0.88000000000E+00 0. -1.
        -11    1    4    4    0    0  0.95962065806E-02 -0.35096731529E-03  0.28467696721E-03  0.96204220681E-02  0.51100000000E-03 0.  1.
         11    1    4    4    0    0  0.10702043988E+00  0.60867002149E-01  0.46104485729E-02  0.12320585968E+00  0.51100000000E-03 0. -1.
</event>
<event>
 8    1  0.1081309E+005  0.1043930E+01  0.7957747E-01            NaN
         13   -1    0    0    0    0  0.00000000000E+00  0.00000000000E+00  0.74505805969E-08  0.10566000000E+00  0.10566000000E+00 0. -1.
     999900   -1    0    0    0    0 -0.00000000000E+00 -0.00000000000E+00 -0.74505805969E-08  0.93827000000E+00  0.93827000000E+00 0.  1.
     999902    2    1    2    0    0 -0.19851814304E-01  0.50862805999E-02 -0.12281643134E-01  0.10200385049E+01  0.10197586714E+01 0.  0.
     999903    2    3    3    0    0  0.33722530529E-01 -0.11779677363E+00  0.32448740742E-01  0.12876342798E+00  0.22667392116E-01 0.  0.
         14    1    1    2    0    0  0.19851814304E-01 -0.50862805999E-02  0.12281643134E-01  0.23891495131E-01  0.00000000000E+00 0. -1.
     999901    1    3    3    0    0 -0.53574344833E-01  0.12288305423E+00 -0.44730383876E-01  0.89127507689E+00  0.88000000000E+00 0.  1.
        -11    1    4    4    0    0  0.31600694968E-01 -0.74206080578E-01  0.25339840225E-01  0.84542976887E-01  0.51100000000E-03 0. -1.
         11    1    4    4    0    0  0.21218355607E-02 -0.43590693057E-01  0.71089005168E-02  0.44220451093E-01  0.51100000000E-03 0.  1.
</event>
<event>
 8    1  0.1081309E+005  0.1043930E+01  0.7957747E-01            NaN
         13   -1    0    0    0    0  0.00000000000E+00  0.00000000000E+00  0.74505805969E-08  0.10566000000E+00  0.10566000000E+00 0. -1.
     999900   -1    0    0    0    0 -0.00000000000E+00 -0.00000000000E+00 -0.74505805969E-08  0.93827000000E+00  0.93827000000E+00 0. -1.
     999902    2    1    2    0    0 -0.84422635886E-02  0.15893182557E-01  0.19121410667E-01  0.10176717934E+01  0.10173329768E+01 0.  0.
     999903    2    3    3    0    0 -0.67170019960E-01  0.62435505033E-01 -0.87202413045E-01  0.12811016395E+00  0.19948669059E-01 0.  0.
         14    1    1    2    0    0  0.84422635886E-02 -0.15893182557E-01 -0.19121410667E-01  0.26258206568E-01  0.00000000000E+00 0.  1.
     999901    1    3    3    0    0  0.58727756371E-01 -0.46542322477E-01  0.10632382371E+00  0.88956162948E+00  0.88000000000E+00 0.  1.
        -11    1    4    4    0    0 -0.48878739992E-01  0.51060607201E-01 -0.76128419354E-01  0.10388510088E+00  0.51100000000E-03 0. -1.
         11    1    4    4    0    0 -0.18291279968E-01  0.11374897833E-01 -0.11073993691E-01  0.24225063072E-01  0.51100000000E-03 0.  1.
</event>
<event>
 8    1  0.1081309E+005  0.1043930E+01  0.7957747E-01            NaN
         13   -1    0    0    0    0  0.00000000000E+00  0.00000000000E+00  0.74505805969E-08  0.10566000000E+00  0.10566000000E+00 0. -1.
     999900   -1    0    0    0    0 -0.00000000000E+00 -0.00000000000E+00 -0.74505805969E-08  0.93827000000E+00  0.93827000000E+00 0. -1.
     999902    2    1    2    0    0 -0.12513465374E-01  0.45768730610E-02  0.20757739839E-01  0.10192638624E+01  0.10189653590E+01 0.  0.
     999903    2    3    3    0    0  0.19645524524E-01  0.87316924948E-01  0.93750039347E-01  0.13179105004E+00  0.23866691814E-01 0.  0.
         14    1    1    2    0    0  0.12513465374E-01 -0.45768730610E-02 -0.20757739839E-01  0.24666137637E-01  0.00000000000E+00 0.  1.
     999901    1    3    3    0    0 -0.32158989899E-01 -0.82740051887E-01 -0.72992299508E-01  0.88747281232E+00  0.88000000000E+00 0. -1.
        -11    1    4    4    0    0  0.14168114560E-01  0.52161242881E-01  0.39645851837E-01  0.67034210803E-01  0.51100000000E-03 0.  1.
         11    1    4    4    0    0  0.54774099640E-02  0.35155682067E-01  0.54104187509E-01  0.64756839242E-01  0.51100000000E-03 0. -1.
</event>
<event>
 8    1  0.1081309E+005  0.1043930E+01  0.7957747E-01            NaN
         13   -1    0    0    0    0  0.00000000000E+00  0.00000000000E+00  0.74505805969E-08  0.10566000000E+00  0.10566000000E+00 0. -1.
     999900   -1    0    0    0    0 -0.00000000000E+00 -0.00000000000E+00 -0.74505805969E-08  0.93827000000E+00  0.93827000000E+00 0.  1.
     999902    2    1    2    0    0  0.19470328159E-01  0.53964562418E-03  0.14390155086E-01  0.10197130336E+01  0.10194254311E+01 0.  0.
     999903    2    3    3    0    0  0.30442796178E-01  0.20330737900E-01 -0.12199876359E+00  0.12891899487E+00  0.19907440253E-01 0.  0.
         14    1    1    2    0    0 -0.19470328159E-01 -0.53964562418E-03 -0.14390155086E-01  0.24216966354E-01  0.00000000000E+00 0. -1.
     999901    1    3    3    0    0 -0.10972468019E-01 -0.19791092276E-01  0.13638891867E+00  0.89079403878E+00  0.88000000000E+00 0. -1.
        -11    1    4    4    0    0  0.16809917085E-01  0.14017291107E-01 -0.40435765601E-01  0.45982279447E-01  0.51100000000E-03 0.  1.
         11    1    4    4    0    0  0.13632879093E-01  0.63134467925E-02 -0.81562997988E-01  0.82936715419E-01  0.51100000000E-03 0. -1.
</event>
<event>
 8    1  0.1081309E+005  0.1043930E+01  0.7957747E-01            NaN
         13   -1    0    0    0    0  0.00000000000E+00  0.00000000000E+00  0.74505805969E-08  0.10566000000E+00  0.10566000000E+00 0. -1.
     999900   -1    0    0    0    0 -0.00000000000E+00 -0.00000000000E+00 -0.74505805969E-08  0.93827000000E+00  0.93827000000E+00 0.  1.
     999902    2    1    2    0    0  0.10365252025E-01  0.20423659125E-01 -0.92204305241E-03  0.10210080789E+01  0.10207507447E+01 0.  0.
     999903    2    3    3    0    0  0.21997002799E-01  0.32248814669E-01 -0.12457253326E+00  0.13220856518E+00  0.20902977897E-01 0.  0.
         14    1    1    2    0    0 -0.10365252025E-01 -0.20423659125E-01  0.92204305241E-03  0.22921921058E-01  0.00000000000E+00 0. -1.
     999901    1    3    3    0    0 -0.11631750774E-01 -0.11825155544E-01  0.12365049021E+00  0.88879951376E+00  0.88000000000E+00 0. -1.
        -11    1    4    4    0    0  0.22845084694E-01  0.18521721633E-01 -0.70034565398E-01  0.75960868468E-01  0.51100000000E-03 0.  1.
         11    1    4    4    0    0 -0.84808189437E-03  0.13727093036E-01 -0.54537967863E-01  0.56247696715E-01  0.51100000000E-03 0. -1.
</event>
<event>
 8    1  0.1081309E+005  0.1043930E+01  0.7957747E-01            NaN
         13   -1    0    0    0    0  0.00000000000E+00  0.00000000000E+00  0.74505805969E-08  0.10566000000E+00  0.10566000000E+00 0. -1.
     999900   -1    0    0    0    0 -0.00000000000E+00 -0.00000000000E+00 -0.74505805969E-08  0.93827000000E+00  0.93827000000E+00 0.  1.
     999902    2    1    2    0    0 -0.70386742780E-02 -0.96924903671E-02 -0.17480434380E-01  0.10227391319E+01  0.10225195739E+01 0.  0.
     999903    2    3    3    0    0 -0.97947689006E-01  0.86414997050E-01  0.89241338460E-02  0.13245923247E+00  0.20112349536E-01 0.  0.
         14    1    1    2    0    0  0.70386742780E-02  0.96924903671E-02  0.17480434380E-01  0.21190868109E-01  0.00000000000E+00 0. -1.
     999901    1    3    3    0    0  0.90909014728E-01 -0.96107487417E-01 -0.26404568226E-01  0.89027989942E+00  0.88000000000E+00 0. -1.
        -11    1    4    4    0    0 -0.47409289097E-01  0.55104191110E-01  0.40687960989E-02  0.72807477592E-01  0.51100000000E-03 0. -1.
         11    1    4    4    0    0 -0.50538399909E-01  0.31310805940E-01  0.48553377471E-02  0.59651754874E-01  0.51100000000E-03 0.  1.
</event>
<event>
 8    1  0.1081309E+005  0.1043930E+01  0.7957747E-01            NaN
         13   -1    0    0    0    0  0.00000000000E+00  0.00000000000E+00  0.74505805969E-08  0.10566000000E+00  0.10566000000E+00 0.  1.
     999900   -1    0    0    0    0 -0.00000000000E+00 -0.00000000000E+00 -0.74505805969E-08  0.93827000000E+00  0.93827000000E+00 0.  1.
     999902    2    1    2    0    0  0.39263038267E-03  0.21495022469E-01 -0.95942109864E-02  0.10203877182E+01  0.10201160994E+01 0.  0.
     999903    2    3    3    0    0  0.39561351680E-01 -0.11958208139E+00  0.10780354821E-01  0.12805814850E+00  0.20437676248E-01 0.  0.
         14    1    1    2    0    0 -0.39263038267E-03 -0.21495022469E-01  0.95942109864E-02  0.23542281835E-01  0.00000000000E+00 0.  1.
     999901    1    3    3    0    0 -0.39168721298E-01  0.14107710386E+00 -0.20374565807E-01  0.89232956966E+00  0.88000000000E+00 0.  1.
        -11    1    4    4    0    0  0.10530643465E-01 -0.50657238484E-01 -0.37134276610E-02  0.51875822197E-01  0.51100000000E-03 0.  1.
         11    1    4    4    0    0  0.29030708215E-01 -0.68924842910E-01  0.14493782482E-01  0.76182326305E-01  0.51100000000E-03 0. -1.
</event>
<event>
 8    1  0.1081309E+005  0.1043930E+01  0.7957747E-01            NaN
         13   -1    0    0    0    0  0.00000000000E+00  0.00000000000E+00  0.74505805969E-08  0.10566000000E+00  0.10566000000E+00 0.  1.
     999900   -1    0    0    0    0 -0.00000000000E+00 -0.00000000000E+00 -0.74505805969E-08  0.93827000000E+00  0.93827000000E+00 0.  1.
     999902    2    1    2    0    0  0.20178163032E-01 -0.10736267592E-01 -0.58941434611E-02  0.10203256226E+01  0.10200525523E+01 0.  0.
     999903    2    3    3    0    0  0.16382214838E-01  0.98650088432E-01 -0.81317899260E-01  0.13034330421E+00  0.19405135987E-01 0.  0.
         14    1    1    2    0    0 -0.20178163032E-01  0.10736267592E-01  0.58941434611E-02  0.23604377397E-01  0.00000000000E+00 0.  1.
     999901    1    3    3    0    0  0.37959481942E-02 -0.10938635602E+00  0.75423755799E-01  0.88998231839E+00  0.88000000000E+00 0. -1.
        -11    1    4    4    0    0 -0.30953700595E-02  0.37161777413E-01 -0.27463356629E-01  0.46314966206E-01  0.51100000000E-03 0.  1.
         11    1    4    4    0    0  0.19477584898E-01  0.61488311018E-01 -0.53854542631E-01  0.84028338008E-01  0.51100000000E-03 0. -1.
</event>
<event>
 8    1  0.1081309E+005  0.1043930E+01  0.7957747E-01            NaN
         13   -1    0    0    0    0  0.00000000000E+00  0.00000000000E+00  0.74505805969E-08  0.10566000000E+00  0.10566000000E+00 0.  1.
     999900   -1    0    0    0    0 -0.00000000000E+00 -0.00000000000E+00 -0.74505805969E-08  0.93827000000E+00  0.93827000000E+00 0. -1.
     999902    2    1    2    0    0 -0.58607062855E-03 -0.20285009303E-01 -0.12279600302E-01  0.10202105214E+01  0.10199347500E+01 0.  0.
     999903    2    3    3    0    0  0.38344779305E-02  0.12592847015E+00  0.78866770581E-02  0.12790754508E+00  0.20626623512E-01 0.  0.
         14    1    1    2    0    0  0.58607062855E-03  0.20285009303E-01  0.12279600302E-01  0.23719478595E-01  0.00000000000E+00 0. -1.
     999901    1    3    3    0    0 -0.44205485590E-02 -0.14621347945E+00 -0.20166277360E-01  0.89230297633E+00  0.88000000000E+00 0. -1.
        -11    1    4    4    0    0  0.36027948095E-02  0.11052524632E+00  0.13707869496E-01  0.11143149021E+00  0.51100000000E-03 0. -1.
         11    1    4    4    0    0  0.23168312100E-03  0.15403223832E-01 -0.58211924382E-02  0.16476054865E-01  0.51100000000E-03 0.  1.
</event>
<event>
 8    1  0.1081309E+005  0.1043930E+01  0.7957747E-01            NaN
         13   -1    0    0    0    0  0.00000000000E+00  0.00000000000E+00  0.74505805969E-08  0.10566000000E+00  0.10566000000E+00 0. -1.
     999900   -1    0    0    0    0 -0.00000000000E+00 -0.00000000000E+00 -0.74505805969E-08  0.93827000000E+00  0.93827000000E+00 0. -1.
     999902    2    1    2    0    0  0.10051932764E-01  0.19466379916E-01  0.97372689789E-02  0.10199551026E+01  0.10196732886E+01 0.  0.
     999903    2    3    3    0    0 -0.26078826529E-01 -0.12336565079E+00 -0.31326478543E-02  0.12761432937E+00  0.19401406892E-01 0.  0.
         14    1    1    2    0    0 -0.10051932764E-01 -0.19466379916E-01 -0.97372689789E-02  0.23974897424E-01  0.00000000000E+00 0.  1.
     999901    1    3    3    0    0  0.36130759293E-01  0.14283203071E+00  0.12869916833E-01  0.89234077320E+00  0.88000000000E+00 0.  1.
        -11    1    4    4    0    0 -0.22458115862E-02 -0.56780825859E-01 -0.14364976539E-03  0.56827701090E-01  0.51100000000E-03 0. -1.
         11    1    4    4    0    0 -0.23833014943E-01 -0.66584824935E-01 -0.29889980889E-02  0.70786628281E-01  0.51100000000E-03 0.  1.
</event>
<event>
 8    1  0.1081309E+005  0.1043930E+01  0.7957747E-01            NaN
         13   -1    0    0    0    0  0.00000000000E+00  0.00000000000E+00  0.74505805969E-08  0.10566000000E+00  0.10566000000E+00 0. -1.
     999900   -1    0    0    0    0 -0.00000000000E+00 -0.00000000000E+00 -0.74505805969E-08  0.93827000000E+00  0.93827000000E+00 0.  1.
     999902    2    1    2    0    0  0.32581503223E-02  0.97361812304E-02 -0.21633035493E-01  0.10199842907E+01  0.10197031707E+01 0.  0.
     999903    2    3    3    0    0 -0.12168981588E+00  0.10797087459E-02 -0.43701073252E-01  0.13084204840E+00  0.20007017981E-01 0.  0.
         14    1    1    2    0    0 -0.32581503223E-02 -0.97361812304E-02  0.21633035493E-01  0.23945709284E-01  0.00000000000E+00 0.  1.
     999901    1    3    3    0    0  0.12494796620E+00  0.86564724845E-02  0.22068037759E-01  0.88914224231E+00  0.88000000000E+00 0.  1.
        -11    1    4    4    0    0 -0.51580477375E-01  0.19036008200E-02 -0.82496144209E-02  0.52273191996E-01  0.51100000000E-03 0. -1.
         11    1    4    4    0    0 -0.70109338500E-01 -0.82389207405E-03 -0.35451458831E-01  0.78568856409E-01  0.51100000000E-03 0.  1.
</event>
<event>
 8    1  0.1081309E+005  0.1043930E+01  0.7957747E-01            NaN
         13   -1    0    0    0    0  0.00000000000E+00  0.00000000000E+00  0.74505805969E-08  0.10566000000E+00  0.10566000000E+00 0. -1.
     999900   -1    0    0    0    0 -0.00000000000E+00 -0.00000000000E+00 -0.74505805969E-08  0.93827000000E+00  0.93827000000E+00 0. -1.
     999902    2    1    2    0    0 -0.17969038209E-02  0.22008102413E-01  0.87244561773E-02  0.10201875997E+01  0.10199112888E+01 0.  0.
     999903    2    3    3    0    0  0.11035107127E-01 -0.90800066100E-01  0.89270894900E-01  0.12924536132E+00  0.19200134193E-01 0.  0.
         14    1    1    2    0    0  0.17969038209E-02 -0.22008102413E-01 -0.87244561773E-02  0.23742400274E-01  0.00000000000E+00 0.  1.
     999901    1    3    3    0    0 -0.12832010948E-01  0.11280816851E+00 -0.80546438722E-01  0.89094223841E+00  0.88000000000E+00 0. -1.
        -11    1    4    4    0    0  0.95290000536E-02 -0.81412520891E-01  0.70167151992E-01  0.10790037414E+00  0.51100000000E-03 0.  1.
         11    1    4    4    0    0  0.15061070737E-02 -0.93875452094E-02  0.19103742908E-01  0.21344987179E-01  0.51100000000E-03 0. -1.
</event>
<event>
 8    1  0.1081309E+005  0.1043930E+01  0.7957747E-01            NaN
         13   -1    0    0    0    0  0.00000000000E+00  0.00000000000E+00  0.74505805969E-08  0.10566000000E+00  0.10566000000E+00 0.  1.
     999900   -1    0    0    0    0 -0.00000000000E+00 -0.00000000000E+00 -0.74505805969E-08  0.93827000000E+00  0.93827000000E+00 0. -1.
     999902    2    1    2    0    0 -0.14029566875E-01 -0.14293592413E-01  0.11135888895E-01  0.10210139892E+01  0.10207567891E+01 0.  0.
     999903    2    3    3    0    0  0.23927190142E-01 -0.46962437228E-01 -0.11740186957E+00  0.13026715411E+00  0.20207709464E-01 0.  0.
         14    1    1    2    0    0  0.14029566875E-01  0.14293592413E-01 -0.11135888895E-01  0.22916010828E-01  0.00000000000E+00 0. -1.
     999901    1    3    3    0    0 -0.37956757017E-01  0.32668844814E-01  0.12853775847E+00  0.89074683506E+00  0.88000000000E+00 0.  1.
        -11    1    4    4    0    0  0.49764898539E-02 -0.31479277666E-01 -0.62608256585E-01  0.70255001866E-01  0.51100000000E-03 0. -1.
         11    1    4    4    0    0  0.18950700288E-01 -0.15483159562E-01 -0.54793612988E-01  0.60012152242E-01  0.51100000000E-03 0.  1.
</event>
<event>
 8    1  0.1081309E+005  0.1043930E+01  0.7957747E-01            NaN
         13   -1    0    0    0    0  0.00000000000E+00  0.00000000000E+00  0.74505805969E-08  0.10566000000E+00  0.10566000000E+00 0. -1.
     999900   -1    0    0    0    0 -0.00000000000E+00 -0.00000000000E+00 -0.74505805969E-08  0.93827000000E+00  0.93827000000E+00 0.  1.
     999902    2    1    2    0    0 -0.43808584372E-02  0.21652571129E-01  0.80617422721E-02  0.10204136770E+01  0.10201426640E+01 0.  0.
     999903    2    3    3    0    0  0.10107245897E+00 -0.57053983085E-01 -0.51659390834E-01  0.12862797545E+00  0.20141113643E-01 0.  0.
         14    1    1    2    0    0  0.43808584372E-02 -0.21652571129E-01 -0.80617422721E-02  0.23516322961E-01  0.00000000000E+00 0. -1.
     999901    1    3    3    0    0 -0.10545331740E+00  0.78706554214E-01  0.59721133106E-01  0.89178570159E+00  0.88000000000E+00 0. -1.
        -11    1    4    4    0    0  0.10153062932E+00 -0.55566987061E-01 -0.49416393960E-01  0.12585070462E+00  0.51100000000E-03 0. -1.
         11    1    4    4    0    0 -0.45817035384E-03 -0.14869960245E-02 -0.22429968739E-02  0.27772708234E-02  0.51100000000E-03 0.  1.
</event>
<event>
 8    1  0.1081309E+005  0.1043930E+01  0.7957747E-01            NaN
         13   -1    0    0    0    0  0.00000000000E+00  0.00000000000E+00  0.74505805969E-08  0.10566000000E+00  0.10566000000E+00 0.  1.
     999900   -1    0    0    0    0 -0.00000000000E+00 -0.00000000000E+00 -0.74505805969E-08  0.93827000000E+00  0.93827000000E+00 0. -1.
     999902    2    1    2    0    0 -0.95469752585E-02  0.17628284940E-01  0.12143323664E-01  0.10204915385E+01  0.10202223379E+01 0.  0.
     999903    2    3    3    0    0 -0.97938459577E-01 -0.18690541624E-01 -0.81925134711E-01  0.13033369493E+00  0.18272003882E-01 0.  0.
         14    1    1    2    0    0  0.95469752585E-02 -0.17628284940E-01 -0.12143323664E-01  0.23438461471E-01  0.00000000000E+00 0. -1.
     999901    1    3    3    0    0  0.88391484318E-01  0.36318826563E-01  0.94068458375E-01  0.89015784360E+00  0.88000000000E+00 0.  1.
        -11    1    4    4    0    0 -0.16983908319E-01 -0.71320268990E-02 -0.79767209646E-02  0.20080043522E-01  0.51100000000E-03 0. -1.
         11    1    4    4    0    0 -0.80954551257E-01 -0.11558514725E-01 -0.73948413746E-01  0.11025365141E+00  0.51100000000E-03 0.  1.
</event>
<event>
 8    1  0.1081309E+005  0.1043930E+01  0.7957747E-01            NaN
         13   -1    0    0    0    0  0.00000000000E+00  0.00000000000E+00  0.74505805969E-08  0.10566000000E+00  0.10566000000E+00 0. -1.
     999900   -1    0    0    0    0 -0.00000000000E+00 -0.00000000000E+00 -0.74505805969E-08  0.93827000000E+00  0.93827000000E+00 0.  1.
     999902    2    1    2    0    0  0.18226436711E-01  0.92307757086E-02 -0.12252508123E-01  0.10201070243E+01  0.10198288125E+01 0.  0.
     999903    2    3    3    0    0 -0.71461909308E-02 -0.79754786044E-01 -0.10136435982E+00  0.13077968157E+00  0.20413175339E-01 0.  0.
         14    1    1    2    0    0 -0.18226436711E-01 -0.92307757086E-02  0.12252508123E-01  0.23822975689E-01  0.00000000000E+00 0. -1.
     999901    1    3    3    0    0  0.25372627642E-01  0.88985561753E-01  0.89111851700E-01  0.88932734274E+00  0.88000000000E+00 0. -1.
        -11    1    4    4    0    0 -0.69400185823E-02 -0.41570043183E-01 -0.68339592284E-01  0.80291925763E-01  0.51100000000E-03 0. -1.
         11    1    4    4    0    0 -0.20617234851E-03 -0.38184742861E-01 -0.33024767539E-01  0.50487755807E-01  0.51100000000E-03 0.  1.
</event>
<event>
 8    1  0.1081309E+005  0.1043930E+01  0.7957747E-01            NaN
         13   -1    0    0    0    0  0.00000000000E+00  0.00000000000E+00  0.74505805969E-08  0.10566000000E+00  0.10566000000E+00 0.  1.
     999900   -1    0    0    0    0 -0.00000000000E+00 -0.00000000000E+00 -0.74505805969E-08  0.93827000000E+00  0.93827000000E+00 0. -1.
     999902    2    1    2    0    0  0.26057236493E-01  0.58774042150E-02  0.38261214587E-02  0.10169455108E+01  0.10165874331E+01 0.  0.
     999903    2    3    3    0    0 -0.10785554271E+00  0.40662871021E-01  0.44932478956E-01  0.12518747533E+00  0.19149128964E-01 0.  0.
         14    1    1    2    0    0 -0.26057236493E-01 -0.58774042150E-02 -0.38261214587E-02  0.26984489236E-01  0.00000000000E+00 0.  1.
     999901    1    3    3    0    0  0.13391277921E+00 -0.34785466806E-01 -0.41106357497E-01  0.89175803543E+00  0.88000000000E+00 0. -1.
        -11    1    4    4    0    0 -0.64953213403E-01  0.24182015129E-01  0.16863534466E-01  0.71332529064E-01  0.51100000000E-03 0.  1.
         11    1    4    4    0    0 -0.42902329312E-01  0.16480855892E-01  0.28068944491E-01  0.53854946264E-01  0.51100000000E-03 0. -1.
</event>
<event>
 8    1  0.1081309E+005  0.1043930E+01  0.7957747E-01            NaN
         13   -1    0    0    0    0  0.00000000000E+00  0.00000000000E+00  0.74505805969E-08  0.10566000000E+00  0.10566000000E+00 0. -1.
     999900   -1    0    0    0    0 -0.00000000000E+00 -0.00000000000E+00 -0.74505805969E-08  0.93827000000E+00  0.93827000000E+00 0.  1.
     999902    2    1    2    0    0  0.67665334846E-02 -0.34054713359E-02 -0.19811292125E-01  0.10227198490E+01  0.10224998870E+01 0.  0.
     999903    2    3    3    0    0 -0.41478615696E-01  0.55188384137E-01 -0.11372710707E+00  0.13447381628E+00  0.19573427861E-01 0.  0.
         14    1    1    2    0    0 -0.67665334846E-02  0.34054713359E-02  0.19811292125E-01  0.21210151015E-01  0.00000000000E+00 0. -1.
     999901    1    3    3    0    0  0.48245149180E-01 -0.58593855473E-01  0.93915814947E-01  0.88824603270E+00  0.88000000000E+00 0. -1.
        -11    1    4    4    0    0 -0.37348520562E-01  0.52900846534E-01 -0.93761845345E-01  0.11395155249E+00  0.51100000000E-03 0.  1.
         11    1    4    4    0    0 -0.41300951343E-02  0.22875376035E-02 -0.19965261727E-01  0.20522263787E-01  0.51100000000E-03 0. -1.
</event>
<event>
 8    1  0.1081309E+005  0.1043930E+01  0.7957747E-01            NaN
         13   -1    0    0    0    0  0.00000000000E+00  0.00000000000E+00  0.74505805969E-08  0.10566000000E+00  0.10566000000E+00 0. -1.
     999900   -1    0    0    0    0 -0.00000000000E+00 -0.00000000000E+00 -0.74505805969E-08  0.93827000000E+00  0.93827000000E+00 0. -1.
     999902    2    1    2    0    0 -0.20801501883E-01 -0.96749335594E-02  0.10350296646E-01  0.10187618562E+01  0.10184509238E+01 0.  0.
     999903    2    3    3    0    0  0.49273759371E-01 -0.63526855769E-01 -0.97169474698E-01  0.12782354580E+00  0.20817955756E-01 0.  0.
         14    1    1    2    0    0  0.20801501883E-01  0.96749335594E-02 -0.10350296646E-01  0.25168143766E-01  0.00000000000E+00 0.  1.
     999901    1    3    3    0    0 -0.70075261254E-01  0.53851922210E-01  0.10751977134E+00  0.89093831043E+00  0.88000000000E+00 0. -1.
        -11    1    4    4    0    0  0.32310342338E-02 -0.68119875722E-02 -0.20844063924E-01  0.22171578175E-01  0.51100000000E-03 0. -1.
         11    1    4    4    0    0  0.46042725137E-01 -0.56714868197E-01 -0.76325410774E-01  0.10565196763E+00  0.51100000000E-03 0.  1.
</event>
<event>
 8    1  0.1081309E+005  0.1043930E+01  0.7957747E-01            NaN
         13   -1    0    0    0    0  0.00000000000E+00  0.00000000000E+00  0.74505805969E-08  0.10566000000E+00  0.10566000000E+00 0. -1.
     999900   -1    0    0    0    0 -0.00000000000E+00 -0.00000000000E+00 -0.74505805969E-08  0.93827000000E+00  0.93827000000E+00 0.  1.
     999902    2    1    2    0    0  0.16493576740E-01 -0.57347045973E-02 -0.19381321513E-01  0.10178424448E+01  0.10175080747E+01 0.  0.
     999903    2    3    3    0    0 -0.42125073510E-01  0.65853842214E-01 -0.10089857046E+00  0.12924460101E+00  0.20307511307E-01 0.  0.
         14    1    1    2    0    0 -0.16493576740E-01  0.57347045973E-02  0.19381321513E-01  0.26087555157E-01  0.00000000000E+00 0. -1.
     999901    1    3    3    0    0  0.58618650250E-01 -0.71588546811E-01  0.81517248951E-01  0.88859784384E+00  0.88000000000E+00 0. -1.
        -11    1    4    4    0    0 -0.37189038438E-01  0.41152584847E-01 -0.66277640541E-01  0.86426538611E-01  0.51100000000E-03 0. -1.
         11    1    4    4    0    0 -0.49360350724E-02  0.24701257367E-01 -0.34620929923E-01  0.42818062397E-01  0.51100000000E-03 0.  1.
</event>
<event>
 8    1  0.1081309E+005  0.1043930E+01  0.7957747E-01            NaN
         13   -1    0    0    0    0  0.00000000000E+00  0.00000000000E+00  0.74505805969E-08  0.10566000000E+00  0.10566000000E+00 0.  1.
     999900   -1    0    0    0    0 -0.00000000000E+00 -0.00000000000E+00 -0.74505805969E-08  0.93827000000E+00  0.93827000000E+00 0.  1.
     999902    2    1    2    0    0 -0.13866528929E-01  0.11978737910E-01  0.19549691198E-01  0.10171352018E+01  0.10167822075E+01 0.  0.
     999903    2    3    3    0    0  0.12059035265E+00 -0.11031287996E-01  0.31053407030E-01  0.12655087124E+00  0.19674512916E-01 0.  0.
         14    1    1    2    0    0  0.13866528929E-01 -0.11978737910E-01 -0.19549691198E-01  0.26794798233E-01  0.00000000000E+00 0.  1.
     999901    1    3    3    0    0 -0.13445688157E+00  0.23010025906E-01 -0.11503715832E-01  0.89058433052E+00  0.88000000000E+00 0. -1.
        -11    1    4    4    0    0  0.10411491960E+00 -0.68997901124E-02  0.19902462577E-01  0.10622566886E+00  0.51100000000E-03 0.  1.
         11    1    4    4    0    0  0.16475433045E-01 -0.41314978835E-02  0.11150944453E-01  0.20325202385E-01  0.51100000000E-03 0. -1.
</event>
<event>
 8    1  0.1081309E+005  0.1043930E+01  0.7957747E-01            NaN
         13   -1    0    0    0    0  0.00000000000E+00  0.00000000000E+00  0.74505805969E-08  0.10566000000E+00  0.10566000000E+00 0.  1.
     999900   -1    0    0    0    0 -0.00000000000E+00 -0.00000000000E+00 -0.74505805969E-08  0.93827000000E+00  0.93827000000E+00 0. -1.
     999902    2    1    2    0    0  0.16478925468E-01 -0.16030719314E-01 -0.11909881546E-01  0.10180382209E+01  0.10177089147E+01 0.  0.
     999903    2    3    3    0    0 -0.27114693874E-01 -0.11192131503E+00  0.54986134769E-01  0.12923538169E+00  0.20413757193E-01 0.  0.
         14    1    1    2    0    0 -0.16478925468E-01  0.16030719314E-01  0.11909881546E-01  0.25891779096E-01  0.00000000000E+00 0.  1.
     999901    1    3    3    0    0  0.43593619343E-01  0.95890595714E-01 -0.66896016315E-01  0.88880283921E+00  0.88000000000E+00 0. -1.
        -11    1    4    4    0    0 -0.14326671390E-01 -0.88057567494E-01  0.36217289371E-01  0.96287807517E-01  0.51100000000E-03 0. -1.
         11    1    4    4    0    0 -0.12788022485E-01 -0.23863747534E-01  0.18768845397E-01  0.32947574174E-01  0.51100000000E-03 0.  1.
</event>
<event>
 8    1  0.1081309E+005  0.1043930E+01  0.7957747E-01            NaN
         13   -1    0    0    0    0  0.00000000000E+00  0.00000000000E+00  0.74505805969E-08  0.10566000000E+00  0.10566000000E+00 0.  1.
     999900   -1    0    0    0    0 -0.00000000000E+00 -0.00000000000E+00 -0.74505805969E-08  0.93827000000E+00  0.93827000000E+00 0.  1.
     999902    2    1    2    0    0 -0.12829961292E-01 -0.66712402756E-02 -0.17643791550E-01  0.10211173558E+01  0.10208624969E+01 0.  0.
     999903    2    3    3    0    0 -0.77177189576E-01  0.80094086293E-01  0.65417051874E-01  0.13062990989E+00  0.20332275596E-01 0.  0.
         14    1    1    2    0    0  0.12829961292E-01  0.66712402756E-02  0.17643791550E-01  0.22812644165E-01  0.00000000000E+00 0.  1.
     999901    1    3    3    0    0  0.64347228284E-01 -0.86765326568E-01 -0.83060843424E-01  0.89048744595E+00  0.88000000000E+00 0.  1.
        -11    1    4    4    0    0 -0.35087734101E-01  0.24616695881E-01  0.31346419588E-01  0.53103577492E-01  0.51100000000E-03 0. -1.
         11    1    4    4    0    0 -0.42089455475E-01  0.55477390412E-01  0.34070632287E-01  0.77526332394E-01  0.51100000000E-03 0.  1.
</event>
<event>
 8    1  0.1081309E+005  0.1043930E+01  0.7957747E-01            NaN
         13   -1    0    0    0    0  0.00000000000E+00  0.00000000000E+00  0.74505805969E-08  0.10566000000E+00  0.10566000000E+00 0. -1.
     999900   -1    0    0    0    0 -0.00000000000E+00 -0.00000000000E+00 -0.74505805969E-08  0.93827000000E+00  0.93827000000E+00 0. -1.
     999902    2    1    2    0    0 -0.17391718674E-01 -0.13674339016E-01 -0.10495171486E-02  0.10217813903E+01  0.10215413103E+01 0.  0.
     999903    2    3    3    0    0 -0.15603202822E-01  0.19111025432E-02 -0.12981208698E+00  0.13227259091E+00  0.19943623776E-01 0.  0.
         14    1    1    2    0    0  0.17391718674E-01  0.13674339016E-01  0.10495171486E-02  0.22148609712E-01  0.00000000000E+00 0.  1.
     999901    1    3    3    0    0 -0.17885158515E-02 -0.15585441559E-01  0.12876256983E+00  0.88950879938E+00  0.88000000000E+00 0.  1.
        -11    1    4    4    0    0 -0.10587728636E-01  0.10647898556E-01 -0.67736369882E-01  0.69382668349E-01  0.51100000000E-03 0. -1.
         11    1    4    4    0    0 -0.50154741861E-02 -0.87367960131E-02 -0.62075717097E-01  0.62889922563E-01  0.51100000000E-03 0.  1.
</event>
<event>
 8    1  0.1081309E+005  0.1043930E+01  0.7957747E-01            NaN
         13   -1    0    0    0    0  0.00000000000E+00  0.00000000000E+00  0.74505805969E-08  0.10566000000E+00  0.10566000000E+00 0.  1.
     999900   -1    0    0    0    0 -0.00000000000E+00 -0.00000000000E+00 -0.74505805969E-08  0.93827000000E+00  0.93827000000E+00 0. -1.
     999902    2    1    2    0    0  0.17550644659E-01  0.16007722350E-01 -0.18227499246E-02  0.10201057535E+01  0.10198275117E+01 0.  0.
     999903    2    3    3    0    0 -0.37928772504E-02 -0.10563316274E-01 -0.12839528008E+00  0.13039671603E+00  0.19798637204E-01 0.  0.
         14    1    1    2    0    0 -0.17550644659E-01 -0.16007722350E-01  0.18227499246E-02  0.23824246474E-01  0.00000000000E+00 0. -1.
     999901    1    3    3    0    0  0.21343521909E-01  0.26571038624E-01  0.12657253015E+00  0.88970903750E+00  0.88000000000E+00 0.  1.
        -11    1    4    4    0    0  0.35613242120E-02  0.46325817201E-02 -0.34091478747E-01  0.34592396386E-01  0.51100000000E-03 0.  1.
         11    1    4    4    0    0 -0.73542014624E-02 -0.15195897994E-01 -0.94303801331E-01  0.95804319639E-01  0.51100000000E-03 0. -1.
</event>
<event>
 8    1  0.1081309E+005  0.1043930E+01  0.7957747E-01            NaN
         13   -1    0    0    0    0  0.00000000000E+00  0.00000000000E+00  0.74505805969E-08  0.10566000000E+00  0.10566000000E+00 0. -1.
     999900   -1    0    0    0    0 -0.00000000000E+00 -0.00000000000E+00 -0.74505805969E-08  0.93827000000E+00  0.93827000000E+00 0.  1.
     999902    2    1    2    0    0 -0.20711938583E-01 -0.19244831598E-02 -0.94742617760E-02  0.10210728420E+01  0.10208169763E+01 0.  0.
     999903    2    3    3    0    0 -0.15868726378E-04 -0.44305776799E-01 -0.12358896894E+00  0.13245218743E+00  0.17502759828E-01 0.  0.
         14    1    1    2    0    0  0.20711938583E-01  0.19244831598E-02  0.94742617760E-02  0.22857157992E-01  0.00000000000E+00 0. -1.
     999901    1    3    3    0    0 -0.20696069856E-01  0.42381293639E-01  0.11411470716E+00  0.88862065458E+00  0.88000000000E+00 0. -1.
        -11    1    4    4    0    0  0.78513384992E-02 -0.15003693128E-01 -0.52248999525E-01  0.54926982405E-01  0.51100000000E-03 0.  1.
         11    1    4    4    0    0 -0.78672072256E-02 -0.29302083672E-01 -0.71339969412E-01  0.77525205022E-01  0.51100000000E-03 0. -1.
</event>
<event>
 8    1  0.1081309E+005  0.1043930E+01  0.7957747E-01            NaN
         13   -1    0    0    0    0  0.00000000000E+00  0.00000000000E+00  0.74505805969E-08  0.10566000000E+00  0.10566000000E+00 0.  1.
     999900   -1    0    0    0    0 -0.00000000000E+00 -0.00000000000E+00 -0.74505805969E-08  0.93827000000E+00  0.93827000000E+00 0. -1.
     999902    2    1    2    0    0  0.16661122538E-01  0.21507059700E-02  0.18844874527E-01  0.10186842511E+01  0.10183713741E+01 0.  0.
     999903    2    3    3    0    0  0.89544593231E-01  0.61476950404E-01  0.72399102902E-01  0.13206163752E+00  0.20024894384E-01 0.  0.
         14    1    1    2    0    0 -0.16661122538E-01 -0.21507059700E-02 -0.18844874527E-01  0.25245748876E-01  0.00000000000E+00 0. -1.
     999901    1    3    3    0    0 -0.72883470693E-01 -0.59326244434E-01 -0.53554228376E-01  0.88662261361E+00  0.88000000000E+00 0.  1.
        -11    1    4    4    0    0  0.57693981694E-01  0.39756226522E-01  0.57814027484E-01  0.90839836888E-01  0.51100000000E-03 0.  1.
         11    1    4    4    0    0  0.31850611537E-01  0.21720723882E-01  0.14585075419E-01  0.41221800631E-01  0.51100000000E-03 0. -1.
</event>
<event>
 8    1  0.1081309E+005  0.1043930E+01  0.7957747E-01            NaN
         13   -1    0    0    0    0  0.00000000000E+00  0.00000000000E+00  0.74505805969E-08  0.10566000000E+00  0.10566000000E+00 0. -1.
     999900   -1    0    0    0    0 -0.00000000000E+00 -0.00000000000E+00 -0.74505805969E-08  0.93827000000E+00  0.93827000000E+00 0.  1.
     999902    2    1    2    0    0 -0.62994823880E-03 -0.24204271499E-01  0.16012326200E-02  0.10196646432E+01  0.10193758763E+01 0.  0.
     999903    2    3    3    0    0  0.26713148934E-01 -0.12869065631E+00  0.43042680114E-02  0.13305742694E+00  0.20270046684E-01 0.  0.
         14    1    1    2    0    0  0.62994823880E-03  0.24204271499E-01 -0.16012326200E-02  0.24265356776E-01  0.00000000000E+00 0.  1.
     999901    1    3    3    0    0 -0.27343097173E-01  0.10448638481E+00 -0.27030353914E-02  0.88660721629E+00  0.88000000000E+00 0. -1.
        -11    1    4    4    0    0  0.20168071364E-01 -0.49750146291E-01 -0.65798457521E-03  0.53689125744E-01  0.51100000000E-03 0. -1.
         11    1    4    4    0    0  0.65450775699E-02 -0.78940510018E-01  0.49622525867E-02  0.79368301191E-01  0.51100000000E-03 0.  1.
</event>
<event>
 8    1  0.1081309E+005  0.1043930E+01  0.7957747E-01            NaN
         13   -1    0    0    0    0  0.00000000000E+00  0.00000000000E+00  0.74505805969E-08  0.10566000000E+00  0.10566000000E+00 0.  1.
     999900   -1    0    0    0    0 -0.00000000000E+00 -0.00000000000E+00 -0.74505805969E-08  0.93827000000E+00  0.93827000000E+00 0.  1.
     999902    2    1    2    0    0  0.84559299991E-02 -0.13257319243E-02  0.22424731500E-01  0.10199273147E+01  0.10196448394E+01 0.  0.
     999903    2    3    3    0    0 -0.68680926457E-01 -0.21610103688E-01 -0.10328458294E+00  0.12742275894E+00  0.19616018523E-01 0.  0.
         14    1    1    2    0    0 -0.84559299991E-02  0.13257319243E-02 -0.22424731500E-01  0.24002685269E-01  0.00000000000E+00 0. -1.
     999901    1    3    3    0    0  0.77136856456E-01  0.20284371764E-01  0.12570931444E+00  0.89250455579E+00  0.88000000000E+00 0. -1.
        -11    1    4    4    0    0 -0.36095523451E-01 -0.19418084554E-01 -0.47147863309E-01  0.62475042670E-01  0.51100000000E-03 0.  1.
         11    1    4    4    0    0 -0.32585403006E-01 -0.21920191339E-02 -0.56136719635E-01  0.64947716275E-01  0.51100000000E-03 0. -1.
</event>
<event>
 8    1  0.1081309E+005  0.1043930E+01  0.7957747E-01            NaN
         13   -1    0    0    0    0  0.00000000000E+00  0.00000000000E+00  0.74505805969E-08  0.10566000000E+00  0.10566000000E+00 0.  1.
     999900   -1    0    0    0    0 -0.00000000000E+00 -0.00000000000E+00 -0.74505805969E-08  0.93827000000E+00  0.93827000000E+00 0. -1.
     999902    2    1    2    0    0 -0.32630974982E-02 -0.75836000418E-02  0.22570507502E-01  0.10198969685E+01  0.10196137699E+01 0.  0.
     999903    2    3    3    0    0  0.35267631690E-01  0.15870534994E-01  0.12551191892E+00  0.13274892688E+00  0.19322424009E-01 0.  0.
         14    1    1    2    0    0  0.32630974982E-02  0.75836000418E-02 -0.22570507502E-01  0.24033031515E-01  0.00000000000E+00 0. -1.
     999901    1    3    3    0    0 -0.38530729189E-01 -0.23454135036E-01 -0.10294141142E+00  0.88714804161E+00  0.88000000000E+00 0. -1.
        -11    1    4    4    0    0  0.14305058139E-01 -0.18493674426E-02  0.60113868962E-01  0.61822271156E-01  0.51100000000E-03 0. -1.
         11    1    4    4    0    0  0.20962573552E-01  0.17719902436E-01  0.65398049961E-01  0.70926655722E-01  0.51100000000E-03 0.  1.
</event>
<event>
 8    1  0.1081309E+005  0.1043930E+01  0.7957747E-01            NaN
         13   -1    0    0    0    0  0.00000000000E+00  0.00000000000E+00  0.74505805969E-08  0.10566000000E+00  0.10566000000E+00 0. -1.
     999900   -1    0    0    0    0 -0.00000000000E+00 -0.00000000000E+00 -0.74505805969E-08  0.93827000000E+00  0.93827000000E+00 0.  1.
     999902    2    1    2    0    0  0.16870277057E-01 -0.13992858911E-01 -0.91617393245E-02  0.10201740783E+01  0.10198974489E+01 0.  0.
     999903    2    3    3    0    0  0.27535489709E-01  0.12165726009E+00  0.26256373560E-01  0.12901239585E+00  0.19902487380E-01 0.  0.
         14    1    1    2    0    0 -0.16870277057E-01  0.13992858911E-01  0.91617393245E-02  0.23755921703E-01  0.00000000000E+00 0. -1.
     999901    1    3    3    0    0 -0.10665212651E-01 -0.13565011900E+00 -0.35418112884E-01  0.89116168245E+00  0.88000000000E+00 0. -1.
        -11    1    4    4    0    0  0.28789290683E-01  0.10345890333E+00  0.17633609395E-01  0.10882910106E+00  0.51100000000E-03 0.  1.
         11    1    4    4    0    0 -0.12538009747E-02  0.18198356758E-01  0.86227641653E-02  0.20183294787E-01  0.51100000000E-03 0. -1.
</event>
<event>
 8    1  0.1081309E+005  0.1043930E+01  0.7957747E-01            NaN
         13   -1    0    0    0    0  0.00000000000E+00  0.00000000000E+00  0.74505805969E-08  0.10566000000E+00  0.10566000000E+00 0. -1.
     999900   -1    0    0    0    0 -0.00000000000E+00 -0.00000000000E+00 -0.74505805969E-08  0.93827000000E+00  0.93827000000E+00 0. -1.
     999902    2    1    2    0    0 -0.50126728981E-02  0.22096326267E-01 -0.96543044587E-02  0.10193011527E+01  0.10190035622E+01 0.  0.
     999903    2    3    3    0    0 -0.62345170436E-01 -0.10395876700E+00  0.33780713370E-01  0.12741354624E+00  0.19968216146E-01 0.  0.
         14    1    1    2    0    0  0.50126728981E-02 -0.22096326267E-01  0.96543044587E-02  0.24628847286E-01  0.00000000000E+00 0. -1.
     999901    1    3    3    0    0  0.57332497538E-01  0.12605509327E+00 -0.43435017829E-01  0.89188760648E+00  0.88000000000E+00 0. -1.
        -11    1    4    4    0    0 -0.13953126110E-01 -0.21346299799E-01 -0.10558811802E-02  0.25529007999E-01  0.51100000000E-03 0. -1.
         11    1    4    4    0    0 -0.48392044326E-01 -0.82612467201E-01  0.34836594551E-01  0.10188453824E+00  0.51100000000E-03 0.  1.
</event>
<event>
 8    1  0.1081309E+005  0.1043930E+01  0.7957747E-01            NaN
         13   -1    0    0    0    0  0.00000000000E+00  0.00000000000E+00  0.74505805969E-08  0.10566000000E+00  0.10566000000E+00 0. -1.
     999900   -1    0    0    0    0 -0.00000000000E+00 -0.00000000000E+00 -0.74505805969E-08  0.93827000000E+00  0.93827000000E+00 0.  1.
     999902    2    1    2    0    0 -0.20309163720E-01 -0.93040096875E-02 -0.20083130457E-01  0.10138907115E+01  0.10134456157E+01 0.  0.
     999903    2    3    3    0    0 -0.87245862376E-01  0.65155358335E-01  0.58124344522E-01  0.12476691341E+00  0.18201154736E-01 0.  0.
         14    1    1    2    0    0  0.20309163720E-01  0.93040096875E-02  0.20083130457E-01  0.30039288544E-01  0.00000000000E+00 0. -1.
     999901    1    3    3    0    0  0.66936698656E-01 -0.74459368023E-01 -0.78207474979E-01  0.88912379805E+00  0.88000000000E+00 0. -1.
        -11    1    4    4    0    0 -0.52839040003E-01  0.45214510335E-01  0.45222005376E-01  0.82955451807E-01  0.51100000000E-03 0. -1.
         11    1    4    4    0    0 -0.34406822373E-01  0.19940848000E-01  0.12902339146E-01  0.41811461601E-01  0.51100000000E-03 0.  1.
</event>
<event>
 8    1  0.1081309E+005  0.1043930E+01  0.7957747E-01            NaN
         13   -1    0    0    0    0  0.00000000000E+00  0.00000000000E+00  0.74505805969E-08  0.10566000000E+00  0.10566000000E+00 0.  1.
     999900   -1    0    0    0    0 -0.00000000000E+00 -0.00000000000E+00 -0.74505805969E-08  0.93827000000E+00  0.93827000000E+00 0. -1.
     999902    2    1    2    0    0 -0.21230863572E-01 -0.11672321860E-02  0.10727703174E-01  0.10201141310E+01  0.10198360872E+01 0.  0.
     999903    2    3    3    0    0  0.17134817934E-01 -0.43714185948E-01 -0.11845035818E+00  0.12884024478E+00  0.19099457656E-01 0.  0.
         14    1    1    2    0    0  0.21230863572E-01  0.11672321860E-02 -0.10727703174E-01  0.23815868961E-01  0.00000000000E+00 0. -1.
     999901    1    3    3    0    0 -0.38365681506E-01  0.42546953762E-01  0.12917806136E+00  0.89127388626E+00  0.88000000000E+00 0. -1.
        -11    1    4    4    0    0  0.19476621464E-01 -0.24667412771E-01 -0.70524078574E-01  0.77212219345E-01  0.51100000000E-03 0.  1.
         11    1    4    4    0    0 -0.23418035305E-02 -0.19046773176E-01 -0.47926279607E-01  0.51628025434E-01  0.51100000000E-03 0. -1.
</event>
<event>
 8    1  0.1081309E+005  0.1043930E+01  0.7957747E-01            NaN
         13   -1    0    0    0    0  0.00000000000E+00  0.00000000000E+00  0.74505805969E-08  0.10566000000E+00  0.10566000000E+00 0.  1.
     999900   -1    0    0    0    0 -0.00000000000E+00 -0.00000000000E+00 -0.74505805969E-08  0.93827000000E+00  0.93827000000E+00 0.  1.
     999902    2    1    2    0    0 -0.10535512898E-01 -0.10733433625E-01  0.17072163915E-01  0.10211778043E+01  0.10209243094E+01 0.  0.
     999903    2    3    3    0    0 -0.81074165011E-01  0.73994009654E-01  0.71584592773E-01  0.13262502251E+00  0.20418349020E-01 0.  0.
         14    1    1    2    0    0  0.10535512898E-01  0.10733433625E-01 -0.17072163915E-01  0.22752195721E-01  0.00000000000E+00 0. -1.
     999901    1    3    3    0    0  0.70538652113E-01 -0.84727443279E-01 -0.54512428858E-01  0.88855278177E+00  0.88000000000E+00 0.  1.
        -11    1    4    4    0    0 -0.27138724542E-01  0.15529224203E-01  0.27709104689E-01  0.41781847467E-01  0.51100000000E-03 0. -1.
         11    1    4    4    0    0 -0.53935440469E-01  0.58464785451E-01  0.43875488084E-01  0.90843175044E-01  0.51100000000E-03 0.  1.
</event>
<event>
 8    1  0.1081309E+005  0.1043930E+01  0.7957747E-01            NaN
         13   -1    0    0    0    0  0.00000000000E+00  0.00000000000E+00  0.74505805969E-08  0.10566000000E+00  0.10566000000E+00 0. -1.
     999900   -1    0    0    0    0 -0.00000000000E+00 -0.00000000000E+00 -0.74505805969E-08  0.93827000000E+00  0.93827000000E+00 0. -1.
     999902    2    1    2    0    0 -0.21175041607E-01 -0.69511512578E-02 -0.67739133388E-02  0.10206365075E+01  0.10203706648E+01 0.  0.
     999903    2    3    3    0    0 -0.27140643482E-01 -0.47200693228E-01 -0.11923779887E+00  0.13254656860E+00  0.19657573514E-01 0.  0.
         14    1    1    2    0    0  0.21175041607E-01  0.69511512578E-02  0.67739133388E-02  0.23293492499E-01  0.00000000000E+00 0. -1.
     999901    1    3    3    0    0  0.59656018751E-02  0.40249541971E-01  0.11246388554E+00  0.88808993890E+00  0.88000000000E+00 0.  1.
        -11    1    4    4    0    0 -0.28635770906E-01 -0.38445756855E-01 -0.89825924543E-01  0.10181866939E+00  0.51100000000E-03 0.  1.
         11    1    4    4    0    0  0.14951274236E-02 -0.87549363737E-02 -0.29411874331E-01  0.30727899205E-01  0.51100000000E-03 0. -1.
</event>
<event>
 8    1  0.1081309E+005  0.1043930E+01  0.7957747E-01            NaN
         13   -1    0    0    0    0  0.00000000000E+00  0.00000000000E+00  0.74505805969E-08  0.10566000000E+00  0.10566000000E+00 0. -1.
     999900   -1    0    0    0    0 -0.00000000000E+00 -0.00000000000E+00 -0.74505805969E-08  0.93827000000E+00  0.93827000000E+00 0.  1.
     999902    2    1    2    0    0  0.21093249944E-01 -0.20111512033E-03 -0.99515414060E-02  0.10206062178E+01  0.10203396753E+01 0.  0.
     999903    2    3    3    0    0  0.12728848767E+00  0.29559680909E-01 -0.20129795860E-01  0.13366386883E+00  0.19613447446E-01 0.  0.
         14    1    1    2    0    0 -0.21093249944E-01  0.20111512033E-03  0.99515414060E-02  0.23323782216E-01  0.00000000000E+00 0. -1.
     999901    1    3    3    0    0 -0.10619523773E+00 -0.29760796030E-01  0.10178254454E-01  0.88694234895E+00  0.88000000000E+00 0. -1.
        -11    1    4    4    0    0  0.84860153718E-01  0.16895037544E-01 -0.22215955988E-01  0.89333631988E-01  0.51100000000E-03 0.  1.
         11    1    4    4    0    0  0.42428333955E-01  0.12664643366E-01  0.20861601274E-02  0.44330236846E-01  0.51100000000E-03 0. -1.
</event>
<event>
 8    1  0.1081309E+005  0.1043930E+01  0.7957747E-01            NaN
         13   -1    0    0    0    0  0.00000000000E+00  0.00000000000E+00  0.74505805969E-08  0.10566000000E+00  0.10566000000E+00 0. -1.
     999900   -1    0    0    0    0 -0.00000000000E+00 -0.00000000000E+00 -0.74505805969E-08  0.93827000000E+00  0.93827000000E+00 0.  1.
     999902    2    1    2    0    0 -0.16956306841E-01 -0.49624113525E-02  0.18635338538E-01  0.10182508701E+01  0.10179270194E+01 0.  0.
     999903    2    3    3    0    0  0.81073144712E-01 -0.67616502507E-01  0.71733457709E-01  0.12900696728E+00  0.18768655971E-01 0.  0.
         14    1    1    2    0    0  0.16956306841E-01  0.49624113525E-02 -0.18635338538E-01  0.25679129863E-01  0.00000000000E+00 0.  1.
     999901    1    3    3    0    0 -0.98029451553E-01  0.62654091154E-01 -0.53098119171E-01  0.88924390286E+00  0.88000000000E+00 0.  1.
        -11    1    4    4    0    0  0.15594464399E-01 -0.48147826165E-02  0.84300199657E-02  0.18376501548E-01  0.51100000000E-03 0. -1.
         11    1    4    4    0    0  0.65478680313E-01 -0.62801719890E-01  0.63303437743E-01  0.11063046573E+00  0.51100000000E-03 0.  1.
</event>
<event>
 8    1  0.1081309E+005  0.1043930E+01  0.7957747E-01            NaN
         13   -1    0    0    0    0  0.00000000000E+00  0.00000000000E+00  0.74505805969E-08  0.10566000000E+00  0.10566000000E+00 0.  1.
     999900   -1    0    0    0    0 -0.00000000000E+00 -0.00000000000E+00 -0.74505805969E-08  0.93827000000E+00  0.93827000000E+00 0.  1.
     999902    2    1    2    0    0  0.15005679400E-01 -0.32679267784E-02 -0.16624243377E-01  0.10212978276E+01  0.10210470300E+01 0.  0.
     999903    2    3    3    0    0  0.57756641570E-01 -0.92541281729E-01  0.70706466881E-01  0.13145288064E+00  0.19512480649E-01 0.  0.
         14    1    1    2    0    0 -0.15005679400E-01  0.32679267784E-02  0.16624243377E-01  0.22632172400E-01  0.00000000000E+00 0.  1.
     999901    1    3    3    0    0 -0.42750962170E-01  0.89273354950E-01 -0.87330710258E-01  0.88984494696E+00  0.88000000000E+00 0. -1.
        -11    1    4    4    0    0  0.30822287858E-01 -0.35910564832E-01  0.38181521156E-01  0.60808484393E-01  0.51100000000E-03 0. -1.
         11    1    4    4    0    0  0.26934353712E-01 -0.56630716897E-01  0.32524945724E-01  0.70644396250E-01  0.51100000000E-03 0.  1.
</event>
<event>
 8    1  0.1191007E+005  0.1043930E+01  0.7957747E-01            NaN
         13   -1    0    0    0    0  0.00000000000E+00  0.00000000000E+00  0.74505805969E-08  0.10566000000E+00  0.10566000000E+00 0. -1.
     999900   -1    0    0    0    0 -0.00000000000E+00 -0.00000000000E+00 -0.74505805969E-08  0.93827000000E+00  0.93827000000E+00 0. -1.
     999902    2    1    2    0    0 -0.19972663687E-01  0.11184275308E-01  0.54685307045E-02  0.10203949169E+01  0.10201234662E+01 0.  0.
     999903    2    3    3    0    0  0.33282359919E-02  0.70747911024E-01  0.10974611929E+00  0.13193300206E+00  0.18594683778E-01 0.  0.
         14    1    1    2    0    0  0.19972663687E-01 -0.11184275308E-01 -0.54685307045E-02  0.23535083110E-01  0.00000000000E+00 0.  1.
     999901    1    3    3    0    0 -0.23300899679E-01 -0.59563635716E-01 -0.10427758858E+00  0.88846191483E+00  0.88000000000E+00 0.  1.
        -11    1    4    4    0    0  0.89022885897E-02  0.48652544979E-01  0.64626244088E-01  0.81382635869E-01  0.51100000000E-03 0.  1.
         11    1    4    4    0    0 -0.55740525978E-02  0.22095366045E-01  0.45119875198E-01  0.50550366189E-01  0.51100000000E-03 0. -1.
</event>
<event>
 8    1  0.1081309E+005  0.1043930E+01  0.7957747E-01            NaN
         13   -1    0    0    0    0  0.00000000000E+00  0.00000000000E+00  0.74505805969E-08  0.10566000000E+00  0.10566000000E+00 0. -1.
     999900   -1    0    0    0    0 -0.00000000000E+00 -0.00000000000E+00 -0.74505805969E-08  0.93827000000E+00  0.93827000000E+00 0. -1.
     999902    2    1    2    0    0 -0.17929697481E-01  0.12920497243E-01  0.11070084563E-02  0.10218022173E+01  0.10215625935E+01 0.  0.
     999903    2    3    3    0    0  0.11649219916E+00  0.50776704106E-01 -0.22243646968E-01  0.13048432123E+00  0.19562006854E-01 0.  0.
         14    1    1    2    0    0  0.17929697481E-01 -0.12920497243E-01 -0.11070084563E-02  0.22127782728E-01  0.00000000000E+00 0. -1.
     999901    1    3    3    0    0 -0.13442189664E+00 -0.37856206863E-01  0.23350655425E-01  0.89131789604E+00  0.88000000000E+00 0.  1.
        -11    1    4    4    0    0  0.73848198326E-01  0.27173595966E-01 -0.22122374609E-01  0.81741184804E-01  0.51100000000E-03 0. -1.
         11    1    4    4    0    0  0.42644000831E-01  0.23603108139E-01 -0.12127235942E-03  0.48743136427E-01  0.51100000000E-03 0.  1.
</event>
<event>
 8    1  0.1081309E+005  0.1043930E+01  0.7957747E-01            NaN
         13   -1    0    0    0    0  0.00000000000E+00  0.00000000000E+00  0.74505805969E-08  0.10566000000E+00  0.10566000000E+00 0.  1.
     999900   -1    0    0    0    0 -0.00000000000E+00 -0.00000000000E+00 -0.74505805969E-08  0.93827000000E+00  0.93827000000E+00 0.  1.
     999902    2    1    2    0    0 -0.59490645082E-02  0.21636668335E-01  0.74474352472E-02  0.10202867964E+01  0.10200128165E+01 0.  0.
     999903    2    3    3    0    0 -0.12230023406E-01 -0.39423705143E-01 -0.12038207357E+00  0.12893490012E+00  0.20701759194E-01 0.  0.
         14    1    1    2    0    0  0.59490645082E-02 -0.21636668335E-01 -0.74474352472E-02  0.23643203610E-01  0.00000000000E+00 0.  1.
     999901    1    3    3    0    0  0.62809588978E-02  0.61060373478E-01  0.12782950882E+00  0.89135189627E+00  0.88000000000E+00 0. -1.
        -11    1    4    4    0    0 -0.57846237313E-02 -0.37363930265E-01 -0.86870215242E-01  0.94742918331E-01  0.51100000000E-03 0.  1.
         11    1    4    4    0    0 -0.64453996748E-02 -0.20597748781E-02 -0.33511858325E-01  0.34191981793E-01  0.51100000000E-03 0. -1.
</event>
<event>
 8    1  0.1081309E+005  0.1043930E+01  0.7957747E-01            NaN
         13   -1    0    0    0    0  0.00000000000E+00  0.00000000000E+00  0.74505805969E-08  0.10566000000E+00  0.10566000000E+00 0.  1.
     999900   -1    0    0    0    0 -0.00000000000E+00 -0.00000000000E+00 -0.74505805969E-08  0.93827000000E+00  0.93827000000E+00 0.  1.
     999902    2    1    2    0    0 -0.21861738871E-01  0.63994759252E-02 -0.81996979780E-02  0.10197200028E+01  0.10194325677E+01 0.  0.
     999903    2    3    3    0    0  0.63457571031E-01  0.10892786660E+00  0.20863624989E-01  0.12919424106E+00  0.19071382585E-01 0.  0.
         14    1    1    2    0    0  0.21861738871E-01 -0.63994759252E-02  0.81996979780E-02  0.24209997222E-01  0.00000000000E+00 0.  1.
     999901    1    3    3    0    0 -0.85319309901E-01 -0.10252839067E+00 -0.29063322967E-01  0.89052576171E+00  0.88000000000E+00 0.  1.
        -11    1    4    4    0    0  0.21652839550E-01  0.46598704538E-01  0.16679917474E-01  0.54025600350E-01  0.51100000000E-03 0.  1.
         11    1    4    4    0    0  0.41804731480E-01  0.62329162059E-01  0.41837075148E-02  0.75168640713E-01  0.51100000000E-03 0. -1.
</event>
<event>
 8    1  0.1081309E+005  0.1043930E+01  0.7957747E-01            NaN
         13   -1    0    0    0    0  0.00000000000E+00  0.00000000000E+00  0.74505805969E-08  0.10566000000E+00  0.10566000000E+00 0. -1.
     999900   -1    0    0    0    0 -0.00000000000E+00 -0.00000000000E+00 -0.74505805969E-08  0.93827000000E+00  0.93827000000E+00 0. -1.
     999902    2    1    2    0    0  0.20267358568E-02  0.20012824545E-01 -0.13130997131E-01  0.10199082621E+01  0.10196253328E+01 0.  0.
     999903    2    3    3    0    0  0.79939713579E-01  0.61461932687E-01  0.80459777524E-01  0.13055586080E+00  0.20078097829E-01 0.  0.
         14    1    1    2    0    0 -0.20267358568E-02 -0.20012824545E-01  0.13130997131E-01  0.24021737867E-01  0.00000000000E+00 0.  1.
     999901    1    3    3    0    0 -0.77912977722E-01 -0.41449108142E-01 -0.93590774655E-01  0.88935240134E+00  0.88000000000E+00 0. -1.
        -11    1    4    4    0    0  0.14062340022E-01  0.20905997193E-01  0.15925942782E-01  0.29811187498E-01  0.51100000000E-03 0.  1.
         11    1    4    4    0    0  0.65877373557E-01  0.40555935493E-01  0.64533834742E-01  0.10074467330E+00  0.51100000000E-03 0. -1.
</event>
<event>
 8    1  0.1081309E+005  0.1043930E+01  0.7957747E-01            NaN
         13   -1    0    0    0    0  0.00000000000E+00  0.00000000000E+00  0.74505805969E-08  0.10566000000E+00  0.10566000000E+00 0. -1.
     999900   -1    0    0    0    0 -0.00000000000E+00 -0.00000000000E+00 -0.74505805969E-08  0.93827000000E+00  0.93827000000E+00 0. -1.
     999902    2    1    2    0    0 -0.27508526624E-02  0.18356234318E-01 -0.49270180360E-02  0.10247259891E+01  0.10245460256E+01 0.  0.
     999903    2    3    3    0    0 -0.10574899766E-01  0.10813448485E+00  0.79430671032E-01  0.13611045372E+00  0.20296028945E-01 0.  0.
         14    1    1    2    0    0  0.27508526624E-02 -0.18356234318E-01  0.49270180360E-02  0.19204010921E-01  0.00000000000E+00 0. -1.
     999901    1    3    3    0    0  0.78240471035E-02 -0.89778250535E-01 -0.84357689068E-01  0.88861553536E+00  0.88000000000E+00 0. -1.
        -11    1    4    4    0    0 -0.89131038520E-02  0.40913659893E-01  0.41263474452E-01  0.58790360017E-01  0.51100000000E-03 0. -1.
         11    1    4    4    0    0 -0.16617959139E-02  0.67220824960E-01  0.38167196581E-01  0.77320093700E-01  0.51100000000E-03 0.  1.
</event>
<event>
 8    1  0.1081309E+005  0.1043930E+01  0.7957747E-01            NaN
         13   -1    0    0    0    0  0.00000000000E+00  0.00000000000E+00  0.74505805969E-08  0.10566000000E+00  0.10566000000E+00 0.  1.
     999900   -1    0    0    0    0 -0.00000000000E+00 -0.00000000000E+00 -0.74505805969E-08  0.93827000000E+00  0.93827000000E+00 0.  1.
     999902    2    1    2    0    0 -0.19130930480E-01  0.10854094886E-01  0.23758047360E-01  0.10115533311E+01  0.10110350602E+01 0.  0.
     999903    2    3    3    0    0  0.77051929728E-01 -0.30502717807E-01 -0.83006783561E-01  0.11893904837E+00  0.19721953292E-01 0.  0.
         14    1    1    2    0    0  0.19130930480E-01 -0.10854094886E-01 -0.23758047360E-01  0.32376668933E-01  0.00000000000E+00 0. -1.
     999901    1    3    3    0    0 -0.96182860208E-01  0.41356812692E-01  0.10676483092E+00  0.89261428270E+00  0.88000000000E+00 0. -1.
        -11    1    4    4    0    0  0.45809836357E-01 -0.17975656877E-01 -0.35357359334E-01  0.60597601662E-01  0.51100000000E-03 0.  1.
         11    1    4    4    0    0  0.31242093372E-01 -0.12527060930E-01 -0.47649424227E-01  0.58341446708E-01  0.51100000000E-03 0. -1.
</event>
<event>
 8    1  0.1081309E+005  0.1043930E+01  0.7957747E-01            NaN
         13   -1    0    0    0    0  0.00000000000E+00  0.00000000000E+00  0.74505805969E-08  0.10566000000E+00  0.10566000000E+00 0.  1.
     999900   -1    0    0    0    0 -0.00000000000E+00 -0.00000000000E+00 -0.74505805969E-08  0.93827000000E+00  0.93827000000E+00 0.  1.
     999902    2    1    2    0    0  0.50531871781E-02 -0.23327399972E-01  0.10598998441E-02  0.10200380416E+01  0.10197581971E+01 0.  0.
     999903    2    3    3    0    0 -0.37520522257E-01  0.76945209511E-01  0.89785080125E-01  0.12889311813E+00  0.34981715676E-01 0.  0.
         14    1    1    2    0    0 -0.50531871781E-02  0.23327399972E-01 -0.10598998441E-02  0.23891958433E-01  0.00000000000E+00 0. -1.
     999901    1    3    3    0    0  0.42573709435E-01 -0.10027260948E+00 -0.88725180281E-01  0.89114492343E+00  0.88000000000E+00 0.  1.
        -11    1    4    4    0    0 -0.16840570609E-01  0.17952303874E-01  0.47251828133E-01  0.53281201336E-01  0.51100000000E-03 0. -1.
         11    1    4    4    0    0 -0.20679951647E-01  0.58992905637E-01  0.42533251992E-01  0.75611916796E-01  0.51100000000E-03 0.  1.
</event>
<event>
 8    1  0.1081309E+005  0.1043930E+01  0.7957747E-01            NaN
         13   -1    0    0    0    0  0.00000000000E+00  0.00000000000E+00  0.74505805969E-08  0.10566000000E+00  0.10566000000E+00 0. -1.
     999900   -1    0    0    0    0 -0.00000000000E+00 -0.00000000000E+00 -0.74505805969E-08  0.93827000000E+00  0.93827000000E+00 0.  1.
     999902    2    1    2    0    0 -0.52975843615E-02 -0.13340165311E-01 -0.18285146368E-01  0.10206841189E+01  0.10204193744E+01 0.  0.
     999903    2    3    3    0    0  0.22014251416E-01 -0.12428215223E-01 -0.12960613464E+00  0.13325010419E+00  0.17853636346E-01 0.  0.
         14    1    1    2    0    0  0.52975843615E-02  0.13340165311E-01  0.18285146368E-01  0.23245881104E-01  0.00000000000E+00 0. -1.
     999901    1    3    3    0    0 -0.27311835778E-01 -0.91195008794E-03  0.11132098827E+00  0.88743401471E+00  0.88000000000E+00 0. -1.
        -11    1    4    4    0    0  0.80573289423E-02  0.42766169472E-02 -0.41415309978E-01  0.42411071948E-01  0.51100000000E-03 0. -1.
         11    1    4    4    0    0  0.13956922474E-01 -0.16704832170E-01 -0.88190824664E-01  0.90839032242E-01  0.51100000000E-03 0.  1.
</event>
<event>
 8    1  0.1081309E+005  0.1043930E+01  0.7957747E-01            NaN
         13   -1    0    0    0    0  0.00000000000E+00  0.00000000000E+00  0.74505805969E-08  0.10566000000E+00  0.10566000000E+00 0.  1.
     999900   -1    0    0    0    0 -0.00000000000E+00 -0.00000000000E+00 -0.74505805969E-08  0.93827000000E+00  0.93827000000E+00 0.  1.
     999902    2    1    2    0    0  0.19136759354E-01 -0.32171299812E-02  0.13651547184E-01  0.10202038494E+01  0.10199279210E+01 0.  0.
     999903    2    3    3    0    0 -0.67740169818E-01 -0.10195000022E+00 -0.35641809153E-01  0.12906658974E+00  0.20132383778E-01 0.  0.
         14    1    1    2    0    0 -0.19136759354E-01  0.32171299812E-02 -0.13651547184E-01  0.23726150645E-01  0.00000000000E+00 0. -1.
     999901    1    3    3    0    0  0.86876929172E-01  0.98732870239E-01  0.49293356337E-01  0.89113725961E+00  0.88000000000E+00 0. -1.
        -11    1    4    4    0    0 -0.12975793854E-01 -0.36089564257E-01 -0.95760849393E-02  0.39532143860E-01  0.51100000000E-03 0. -1.
         11    1    4    4    0    0 -0.54764375964E-01 -0.65860435963E-01 -0.26065724213E-01  0.89534445884E-01  0.51100000000E-03 0.  1.
</event>
<event>
 8    1  0.1081309E+005  0.1043930E+01  0.7957747E-01            NaN
         13   -1    0    0    0    0  0.00000000000E+00  0.00000000000E+00  0.74505805969E-08  0.10566000000E+00  0.10566000000E+00 0.  1.
     999900   -1    0    0    0    0 -0.00000000000E+00 -0.00000000000E+00 -0.74505805969E-08  0.93827000000E+00  0.93827000000E+00 0.  1.
     999902    2    1    2    0    0  0.28686332147E-03  0.22773992257E-02 -0.25821633310E-01  0.10180065437E+01  0.10176764208E+01 0.  0.
     999903    2    3    3    0    0 -0.12365481742E+00  0.29049547863E-01 -0.65789017611E-02  0.12870987171E+00  0.19711900545E-01 0.  0.
         14    1    1    2    0    0 -0.28686332147E-03 -0.22773992257E-02  0.25821633310E-01  0.25923456262E-01  0.00000000000E+00 0.  1.
     999901    1    3    3    0    0  0.12394168075E+00 -0.26772148637E-01 -0.19242731549E-01  0.88929667203E+00  0.88000000000E+00 0. -1.
        -11    1    4    4    0    0 -0.25907989390E-01  0.11813563182E-01  0.45192089030E-02  0.28835196538E-01  0.51100000000E-03 0. -1.
         11    1    4    4    0    0 -0.97746828034E-01  0.17235984681E-01 -0.11098110664E-01  0.99874675168E-01  0.51100000000E-03 0.  1.
</event>
<event>
 8    1  0.1081309E+005  0.1043930E+01  0.7957747E-01            NaN
         13   -1    0    0    0    0  0.00000000000E+00  0.00000000000E+00  0.74505805969E-08  0.10566000000E+00  0.10566000000E+00 0.  1.
     999900   -1    0    0    0    0 -0.00000000000E+00 -0.00000000000E+00 -0.74505805969E-08  0.93827000000E+00  0.93827000000E+00 0. -1.
     999902    2    1    2    0    0 -0.15049651469E-01 -0.17005657601E-01 -0.35371364072E-02  0.10209474907E+01  0.10206887787E+01 0.  0.
     999903    2    3    3    0    0 -0.11811165115E-01  0.87755904506E-01  0.92420466296E-01  0.12954784172E+00  0.20012453782E-01 0.  0.
         14    1    1    2    0    0  0.15049651469E-01  0.17005657601E-01  0.35371364072E-02  0.22982509300E-01  0.00000000000E+00 0.  1.
     999901    1    3    3    0    0 -0.32384863538E-02 -0.10476156211E+00 -0.95957602703E-01  0.89139964898E+00  0.88000000000E+00 0. -1.
        -11    1    4    4    0    0 -0.67503771983E-02  0.25063752409E-01  0.39912531424E-01  0.47613344378E-01  0.51100000000E-03 0.  1.
         11    1    4    4    0    0 -0.50607879168E-02  0.62692152097E-01  0.52507934872E-01  0.81934497340E-01  0.51100000000E-03 0. -1.
</event>
<event>
 8    1  0.1081309E+005  0.1043930E+01  0.7957747E-01            NaN
         13   -1    0    0    0    0  0.00000000000E+00  0.00000000000E+00  0.74505805969E-08  0.10566000000E+00  0.10566000000E+00 0.  1.
     999900   -1    0    0    0    0 -0.00000000000E+00 -0.00000000000E+00 -0.74505805969E-08  0.93827000000E+00  0.93827000000E+00 0. -1.
     999902    2    1    2    0    0  0.22274884612E-01  0.20097789769E-02 -0.10174311729E-01  0.10193591572E+01  0.10190629839E+01 0.  0.
     999903    2    3    3    0    0  0.80873424556E-01  0.20469333439E-01 -0.10123739210E+00  0.13252939416E+00  0.18855406318E-01 0.  0.
         14    1    1    2    0    0 -0.22274884612E-01 -0.20097789769E-02  0.10174311729E-01  0.24570842785E-01  0.00000000000E+00 0.  1.
     999901    1    3    3    0    0 -0.58598539944E-01 -0.18459554462E-01  0.91063080367E-01  0.88682976306E+00  0.88000000000E+00 0.  1.
        -11    1    4    4    0    0  0.22755022532E-01  0.73995410264E-02 -0.43047722315E-01  0.49253545815E-01  0.51100000000E-03 0. -1.
         11    1    4    4    0    0  0.58118402024E-01  0.13069792413E-01 -0.58189669780E-01  0.83275848345E-01  0.51100000000E-03 0.  1.
</event>
<event>
 8    1  0.1081309E+005  0.1043930E+01  0.7957747E-01            NaN
         13   -1    0    0    0    0  0.00000000000E+00  0.00000000000E+00  0.74505805969E-08  0.10566000000E+00  0.10566000000E+00 0. -1.
     999900   -1    0    0    0    0 -0.00000000000E+00 -0.00000000000E+00 -0.74505805969E-08  0.93827000000E+00  0.93827000000E+00 0. -1.
     999902    2    1    2    0    0  0.21723061390E-01  0.73756651502E-02  0.60822696978E-02  0.10201963564E+01  0.10199202517E+01 0.  0.
     999903    2    3    3    0    0  0.82043902749E-01 -0.43945681282E-01 -0.90442647116E-01  0.13138279664E+00  0.20472956630E-01 0.  0.
         14    1    1    2    0    0 -0.21723061390E-01 -0.73756651502E-02 -0.60822696978E-02  0.23733643573E-01  0.00000000000E+00 0. -1.
     999901    1    3    3    0    0 -0.60320841359E-01  0.51321346432E-01  0.96524916813E-01  0.88881355979E+00  0.88000000000E+00 0.  1.
        -11    1    4    4    0    0  0.41857283640E-01 -0.12389520688E-01 -0.48695782923E-01  0.65399333422E-01  0.51100000000E-03 0. -1.
         11    1    4    4    0    0  0.40186619109E-01 -0.31556160594E-01 -0.41746864192E-01  0.65983463214E-01  0.51100000000E-03 0.  1.
</event>
<event>
 8    1  0.1081309E+005  0.1043930E+01  0.7957747E-01            NaN
         13   -1    0    0    0    0  0.00000000000E+00  0.00000000000E+00  0.74505805969E-08  0.10566000000E+00  0.10566000000E+00 0.  1.
     999900   -1    0    0    0    0 -0.00000000000E+00 -0.00000000000E+00 -0.74505805969E-08  0.93827000000E+00  0.93827000000E+00 0. -1.
     999902    2    1    2    0    0  0.83583498628E-02 -0.16252171283E-01 -0.11258462433E-01  0.10224649573E+01  0.10222396200E+01 0.  0.
     999903    2    3    3    0    0  0.12449840148E+00  0.35800424188E-01  0.24292519749E-01  0.13259875573E+00  0.14518304355E-01 0.  0.
         14    1    1    2    0    0 -0.83583498628E-02  0.16252171283E-01  0.11258462433E-01  0.21465042748E-01  0.00000000000E+00 0.  1.
     999901    1    3    3    0    0 -0.11614005162E+00 -0.52052595471E-01 -0.35550982182E-01  0.88986620153E+00  0.88000000000E+00 0. -1.
        -11    1    4    4    0    0  0.86337348148E-01  0.18767968279E-01  0.12992568879E-01  0.89305331788E-01  0.51100000000E-03 0. -1.
         11    1    4    4    0    0  0.38161053330E-01  0.17032455910E-01  0.11299950870E-01  0.43293423938E-01  0.51100000000E-03 0.  1.
</event>
<event>
 8    1  0.1081309E+005  0.1043930E+01  0.7957747E-01            NaN
         13   -1    0    0    0    0  0.00000000000E+00  0.00000000000E+00  0.74505805969E-08  0.10566000000E+00  0.10566000000E+00 0. -1.
     999900   -1    0    0    0    0 -0.00000000000E+00 -0.00000000000E+00 -0.74505805969E-08  0.93827000000E+00  0.93827000000E+00 0. -1.
     999902    2    1    2    0    0  0.14553586166E-01 -0.12484040755E-01 -0.14010045225E-01  0.10201825894E+01  0.10199061605E+01 0.  0.
     999903    2    3    3    0    0  0.50398795989E-01 -0.21770272432E-01  0.11593192533E+00  0.12987026841E+00  0.20300046978E-01 0.  0.
         14    1    1    2    0    0 -0.14553586166E-01  0.12484040755E-01  0.14010045225E-01  0.23747410618E-01  0.00000000000E+00 0. -1.
     999901    1    3    3    0    0 -0.35845209823E-01  0.92862316767E-02 -0.12994197055E+00  0.89031232097E+00  0.88000000000E+00 0. -1.
        -11    1    4    4    0    0  0.57739981982E-02 -0.11007582790E-01  0.20696202170E-01  0.24147460308E-01  0.51100000000E-03 0.  1.
         11    1    4    4    0    0  0.44624797791E-01 -0.10762689642E-01  0.95235723157E-01  0.10572280810E+00  0.51100000000E-03 0. -1.
</event>
<event>
 8    1  0.1081309E+005  0.1043930E+01  0.7957747E-01            NaN
         13   -1    0    0    0    0  0.00000000000E+00  0.00000000000E+00  0.74505805969E-08  0.10566000000E+00  0.10566000000E+00 0.  1.
     999900   -1    0    0    0    0 -0.00000000000E+00 -0.00000000000E+00 -0.74505805969E-08  0.93827000000E+00  0.93827000000E+00 0.  1.
     999902    2    1    2    0    0  0.91359211921E-02  0.14671980100E-01  0.14633962028E-01  0.10212830377E+01  0.10210319085E+01 0.  0.
     999903    2    3    3    0    0  0.15105181634E-01 -0.12591632552E+00 -0.17016933025E-01  0.12954177316E+00  0.20209092975E-01 0.  0.
         14    1    1    2    0    0 -0.91359211921E-02 -0.14671980100E-01 -0.14633962028E-01  0.22646962285E-01  0.00000000000E+00 0. -1.
     999901    1    3    3    0    0 -0.59692604422E-02  0.14058830562E+00  0.31650895053E-01  0.89174126455E+00  0.88000000000E+00 0.  1.
        -11    1    4    4    0    0  0.13473044737E-01 -0.53193418111E-01 -0.14483313394E-01  0.56754648732E-01  0.51100000000E-03 0. -1.
         11    1    4    4    0    0  0.16321368976E-02 -0.72722907412E-01 -0.25336196306E-02  0.72787124430E-01  0.51100000000E-03 0.  1.
</event>
<event>
 8    1  0.1081309E+005  0.1043930E+01  0.7957747E-01            NaN
         13   -1    0    0    0    0  0.00000000000E+00  0.00000000000E+00  0.74505805969E-08  0.10566000000E+00  0.10566000000E+00 0. -1.
     999900   -1    0    0    0    0 -0.00000000000E+00 -0.00000000000E+00 -0.74505805969E-08  0.93827000000E+00  0.93827000000E+00 0.  1.
     999902    2    1    2    0    0  0.59358781043E-02  0.16805279140E-02  0.23672762681E-01  0.10194665882E+01  0.10191730304E+01 0.  0.
     999903    2    3    3    0    0 -0.43290036073E-01  0.11616650682E+00  0.35488848323E-01  0.13060785373E+00  0.20742916191E-01 0.  0.
         14    1    1    2    0    0 -0.59358781043E-02 -0.16805279140E-02 -0.23672762681E-01  0.24463411779E-01  0.00000000000E+00 0.  1.
     999901    1    3    3    0    0  0.49225914177E-01 -0.11448597891E+00 -0.11816085643E-01  0.88885873449E+00  0.88000000000E+00 0.  1.
        -11    1    4    4    0    0 -0.15064991738E-01  0.31814799419E-01  0.10413578693E-02  0.35220462594E-01  0.51100000000E-03 0.  1.
         11    1    4    4    0    0 -0.28225044335E-01  0.84351707401E-01  0.34447490454E-01  0.95387391141E-01  0.51100000000E-03 0. -1.
</event>
<event>
 8    1  0.1081309E+005  0.1043930E+01  0.7957747E-01            NaN
         13   -1    0    0    0    0  0.00000000000E+00  0.00000000000E+00  0.74505805969E-08  0.10566000000E+00  0.10566000000E+00 0.  1.
     999900   -1    0    0    0    0 -0.00000000000E+00 -0.00000000000E+00 -0.74505805969E-08  0.93827000000E+00  0.93827000000E+00 0.  1.
     999902    2    1    2    0    0  0.15071461242E-01 -0.80352163439E-02 -0.17717725677E-01  0.10193204196E+01  0.10190233002E+01 0.  0.
     999903    2    3    3    0    0 -0.58906402330E-01  0.10709086184E+00  0.29574006727E-01  0.12748901951E+00  0.20985978570E-01 0.  0.
         14    1    1    2    0    0 -0.15071461242E-01  0.80352163439E-02  0.17717725677E-01  0.24609580427E-01  0.00000000000E+00 0.  1.
     999901    1    3    3    0    0  0.73977863572E-01 -0.11512607819E+00 -0.47291732403E-01  0.89183140006E+00  0.88000000000E+00 0.  1.
        -11    1    4    4    0    0 -0.46523512896E-01  0.63707105041E-01  0.18303151683E-01  0.80983325243E-01  0.51100000000E-03 0.  1.
         11    1    4    4    0    0 -0.12382889434E-01  0.43383756804E-01  0.11270855043E-01  0.46505694271E-01  0.51100000000E-03 0. -1.
</event>
<event>
 8    1  0.1081309E+005  0.1043930E+01  0.7957747E-01            NaN
         13   -1    0    0    0    0  0.00000000000E+00  0.00000000000E+00  0.74505805969E-08  0.10566000000E+00  0.10566000000E+00 0.  1.
     999900   -1    0    0    0    0 -0.00000000000E+00 -0.00000000000E+00 -0.74505805969E-08  0.93827000000E+00  0.93827000000E+00 0.  1.
     999902    2    1    2    0    0  0.57692260731E-02  0.19649148327E-01  0.12180660696E-01  0.10201026734E+01  0.10198243588E+01 0.  0.
     999903    2    3    3    0    0  0.12688059253E+00 -0.16447376721E-02  0.27268713731E-01  0.13142441775E+00  0.20673773488E-01 0.  0.
         14    1    1    2    0    0 -0.57692260731E-02 -0.19649148327E-01 -0.12180660696E-01  0.23827326633E-01  0.00000000000E+00 0. -1.
     999901    1    3    3    0    0 -0.12111136645E+00  0.21293885999E-01 -0.15088053034E-01  0.88867825562E+00  0.88000000000E+00 0. -1.
        -11    1    4    4    0    0  0.57992062471E-01 -0.35347596283E-02  0.22625569400E-01  0.62351835153E-01  0.51100000000E-03 0.  1.
         11    1    4    4    0    0  0.68888530055E-01  0.18900219563E-02  0.46431443307E-02  0.69072582595E-01  0.51100000000E-03 0. -1.
</event>
<event>
 8    1  0.1081309E+005  0.1043930E+01  0.7957747E-01            NaN
         13   -1    0    0    0    0  0.00000000000E+00  0.00000000000E+00  0.74505805969E-08  0.10566000000E+00  0.10566000000E+00 0.  1.
     999900   -1    0    0    0    0 -0.00000000000E+00 -0.00000000000E+00 -0.74505805969E-08  0.93827000000E+00  0.93827000000E+00 0.  1.
     999902    2    1    2    0    0  0.12899049333E-01  0.19363233878E-01 -0.36276561258E-02  0.10203825970E+01  0.10201108587E+01 0.  0.
     999903    2    3    3    0    0  0.52318063022E-01  0.79291388374E-01  0.90125553734E-01  0.13250033750E+00  0.20234129914E-01 0.  0.
         14    1    1    2    0    0 -0.12899049333E-01 -0.19363233878E-01  0.36276561258E-02  0.23547403018E-01  0.00000000000E+00 0. -1.
     999901    1    3    3    0    0 -0.39419013689E-01 -0.59928154496E-01 -0.93753209860E-01  0.88788225948E+00  0.88000000000E+00 0.  1.
        -11    1    4    4    0    0  0.39766996319E-01  0.69763942156E-01  0.67392284033E-01  0.10483512145E+00  0.51100000000E-03 0. -1.
         11    1    4    4    0    0  0.12551066703E-01  0.95274462180E-02  0.22733269701E-01  0.27665216050E-01  0.51100000000E-03 0.  1.
</event>
<event>
 8    1  0.1081309E+005  0.1043930E+01  0.7957747E-01            NaN
         13   -1    0    0    0    0  0.00000000000E+00  0.00000000000E+00  0.74505805969E-08  0.10566000000E+00  0.10566000000E+00 0.  1.
     999900   -1    0    0    0    0 -0.00000000000E+00 -0.00000000000E+00 -0.74505805969E-08  0.93827000000E+00  0.93827000000E+00 0. -1.
     999902    2    1    2    0    0 -0.18912254777E-01  0.41522811426E-02  0.13530570542E-01  0.10203081635E+01  0.10200346844E+01 0.  0.
     999903    2    3    3    0    0  0.23627034646E-01  0.53972972054E-01 -0.11290938031E+00  0.12886060278E+00  0.19626724328E-01 0.  0.
         14    1    1    2    0    0  0.18912254777E-01 -0.41522811426E-02 -0.13530570542E-01  0.23621836478E-01  0.00000000000E+00 0. -1.
     999901    1    3    3    0    0 -0.42539289422E-01 -0.49820690912E-01  0.12643995085E+00  0.89144756075E+00  0.88000000000E+00 0.  1.
        -11    1    4    4    0    0  0.23568881833E-01  0.40195804857E-01 -0.98227561016E-01  0.10872032829E+00  0.51100000000E-03 0.  1.
         11    1    4    4    0    0  0.58152812317E-04  0.13777167197E-01 -0.14681819292E-01  0.20140274488E-01  0.51100000000E-03 0. -1.
</event>
<event>
 8    1  0.1081309E+005  0.1043930E+01  0.7957747E-01            NaN
         13   -1    0    0    0    0  0.00000000000E+00  0.00000000000E+00  0.74505805969E-08  0.10566000000E+00  0.10566000000E+00 0.  1.
     999900   -1    0    0    0    0 -0.00000000000E+00 -0.00000000000E+00 -0.74505805969E-08  0.93827000000E+00  0.93827000000E+00 0. -1.
     999902    2    1    2    0    0 -0.15218908093E-01  0.15145062377E-01 -0.11101159777E-01  0.10197592775E+01  0.10194727854E+01 0.  0.
     999903    2    3    3    0    0  0.11114828277E+00  0.60200262619E-01 -0.92558372186E-02  0.12958960647E+00  0.27014499809E-01 0.  0.
         14    1    1    2    0    0  0.15218908093E-01 -0.15145062377E-01  0.11101159777E-01  0.24170722504E-01  0.00000000000E+00 0.  1.
     999901    1    3    3    0    0 -0.12636719087E+00 -0.45055200242E-01 -0.18453225587E-02  0.89016967102E+00  0.88000000000E+00 0. -1.
        -11    1    4    4    0    0  0.67766908007E-01  0.41009407567E-01 -0.18296010954E-01  0.81296558768E-01  0.51100000000E-03 0.  1.
         11    1    4    4    0    0  0.43381374767E-01  0.19190855052E-01  0.90401737349E-02  0.48293047703E-01  0.51100000000E-03 0. -1.
</event>
<event>
 8    1  0.1081309E+005  0.1043930E+01  0.7957747E-01            NaN
         13   -1    0    0    0    0  0.00000000000E+00  0.00000000000E+00  0.74505805969E-08  0.10566000000E+00  0.10566000000E+00 0.  1.
     999900   -1    0    0    0    0 -0.00000000000E+00 -0.00000000000E+00 -0.74505805969E-08  0.93827000000E+00  0.93827000000E+00 0.  1.
     999902    2    1    2    0    0  0.60239444736E-02 -0.21884017026E-01  0.89889112750E-02  0.10195169167E+01  0.10192245802E+01 0.  0.
     999903    2    3    3    0    0  0.88136868791E-01  0.83325547759E-01  0.29273606456E-01  0.12922311483E+00  0.33621642173E-01 0.  0.
         14    1    1    2    0    0 -0.60239444736E-02  0.21884017026E-01 -0.89889112750E-02  0.24413083257E-01  0.00000000000E+00 0. -1.
     999901    1    3    3    0    0 -0.82112924317E-01 -0.10520956478E+00 -0.20284695181E-01  0.89029380191E+00  0.88000000000E+00 0. -1.
        -11    1    4    4    0    0  0.69566846721E-01  0.77662323485E-01  0.15494050415E-01  0.10541019576E+00  0.51100000000E-03 0.  1.
         11    1    4    4    0    0  0.18570022070E-01  0.56632242738E-02  0.13779556041E-01  0.23812919068E-01  0.51100000000E-03 0. -1.
</event>
<event>
 8    1  0.1081309E+005  0.1043930E+01  0.7957747E-01            NaN
         13   -1    0    0    0    0  0.00000000000E+00  0.00000000000E+00  0.74505805969E-08  0.10566000000E+00  0.10566000000E+00 0. -1.
     999900   -1    0    0    0    0 -0.00000000000E+00 -0.00000000000E+00 -0.74505805969E-08  0.93827000000E+00  0.93827000000E+00 0.  1.
     999902    2    1    2    0    0 -0.55159814090E-04  0.17735402471E-01 -0.15945568467E-01  0.10200802894E+01  0.10198014454E+01 0.  0.
     999903    2    3    3    0    0 -0.38074923113E-01  0.12456550717E+00 -0.16198345884E-01  0.13280455006E+00  0.20208828781E-01 0.  0.
         14    1    1    2    0    0  0.55159814090E-04 -0.17735402471E-01  0.15945568467E-01  0.23849710630E-01  0.00000000000E+00 0. -1.
     999901    1    3    3    0    0  0.38019763299E-01 -0.10683010470E+00  0.25277741768E-03  0.88727573931E+00  0.88000000000E+00 0.  1.
        -11    1    4    4    0    0 -0.99331095845E-02  0.63662360804E-01 -0.35672274321E-02  0.64533317610E-01  0.51100000000E-03 0. -1.
         11    1    4    4    0    0 -0.28141813528E-01  0.60903146366E-01 -0.12631118452E-01  0.68271232450E-01  0.51100000000E-03 0.  1.
</event>
<event>
 8    1  0.1081309E+005  0.1043930E+01  0.7957747E-01            NaN
         13   -1    0    0    0    0  0.00000000000E+00  0.00000000000E+00  0.74505805969E-08  0.10566000000E+00  0.10566000000E+00 0.  1.
     999900   -1    0    0    0    0 -0.00000000000E+00 -0.00000000000E+00 -0.74505805969E-08  0.93827000000E+00  0.93827000000E+00 0. -1.
     999902    2    1    2    0    0  0.19030630190E-01 -0.17085682608E-02  0.15406083179E-01  0.10193855202E+01  0.10190899898E+01 0.  0.
     999903    2    3    3    0    0 -0.11834310975E-01  0.14121039722E-02  0.12944641480E+00  0.13148486108E+00  0.19744605197E-01 0.  0.
         14    1    1    2    0    0 -0.19030630190E-01  0.17085682608E-02 -0.15406083179E-01  0.24544479824E-01  0.00000000000E+00 0.  1.
     999901    1    3    3    0    0  0.30864941165E-01 -0.31206722330E-02 -0.11404033162E+00  0.88790065910E+00  0.88000000000E+00 0. -1.
        -11    1    4    4    0    0 -0.16586675986E-02  0.81550582679E-02  0.25631838696E-01  0.26953820313E-01  0.51100000000E-03 0. -1.
         11    1    4    4    0    0 -0.10175643377E-01 -0.67429542958E-02  0.10381457610E+00  0.10453104077E+00  0.51100000000E-03 0.  1.
</event>
<event>
 8    1  0.1081309E+005  0.1043930E+01  0.7957747E-01            NaN
         13   -1    0    0    0    0  0.00000000000E+00  0.00000000000E+00  0.74505805969E-08  0.10566000000E+00  0.10566000000E+00 0. -1.
     999900   -1    0    0    0    0 -0.00000000000E+00 -0.00000000000E+00 -0.74505805969E-08  0.93827000000E+00  0.93827000000E+00 0. -1.
     999902    2    1    2    0    0 -0.14812110268E-01  0.49036613372E-02  0.17631808539E-01  0.10203858887E+01  0.10201142273E+01 0.  0.
     999903    2    3    3    0    0 -0.53769381687E-01 -0.11357471132E+00  0.32717872326E-01  0.13146385436E+00  0.20540797845E-01 0.  0.
         14    1    1    2    0    0  0.14812110268E-01 -0.49036613372E-02 -0.17631808539E-01  0.23544111312E-01  0.00000000000E+00 0.  1.
     999901    1    3    3    0    0  0.38957271418E-01  0.11847837266E+00 -0.15086063787E-01  0.88892203432E+00  0.88000000000E+00 0. -1.
        -11    1    4    4    0    0 -0.35691709402E-01 -0.62606144280E-01  0.98160941761E-02  0.72732690363E-01  0.51100000000E-03 0.  1.
         11    1    4    4    0    0 -0.18077672285E-01 -0.50968567042E-01  0.22901778150E-01  0.58731164002E-01  0.51100000000E-03 0. -1.
</event>
<event>
 8    1  0.1081309E+005  0.1043930E+01  0.7957747E-01            NaN
         13   -1    0    0    0    0  0.00000000000E+00  0.00000000000E+00  0.74505805969E-08  0.10566000000E+00  0.10566000000E+00 0.  1.
     999900   -1    0    0    0    0 -0.00000000000E+00 -0.00000000000E+00 -0.74505805969E-08  0.93827000000E+00  0.93827000000E+00 0. -1.
     999902    2    1    2    0    0 -0.13960331077E-02 -0.12300311655E-01  0.20539797452E-01  0.10199481349E+01  0.10196661552E+01 0.  0.
     999903    2    3    3    0    0 -0.48534079242E-01  0.11749857050E+00 -0.34479117683E-02  0.12885602101E+00  0.20748858703E-01 0.  0.
         14    1    1    2    0    0  0.13960331077E-02  0.12300311655E-01 -0.20539797452E-01  0.23981865120E-01  0.00000000000E+00 0. -1.
     999901    1    3    3    0    0  0.47138046134E-01 -0.12979888216E+00  0.23987709220E-01  0.89109211387E+00  0.88000000000E+00 0. -1.
        -11    1    4    4    0    0 -0.36980710098E-01  0.64749432887E-01 -0.58821215893E-02  0.74799214260E-01  0.51100000000E-03 0.  1.
         11    1    4    4    0    0 -0.11553369144E-01  0.52749137616E-01  0.24342098210E-02  0.54056806753E-01  0.51100000000E-03 0. -1.
</event>
<event>
 8    1  0.1081309E+005  0.1043930E+01  0.7957747E-01            NaN
         13   -1    0    0    0    0  0.00000000000E+00  0.00000000000E+00  0.74505805969E-08  0.10566000000E+00  0.10566000000E+00 0.  1.
     999900   -1    0    0    0    0 -0.00000000000E+00 -0.00000000000E+00 -0.74505805969E-08  0.93827000000E+00  0.93827000000E+00 0.  1.
     999902    2    1    2    0    0  0.97819141035E-02  0.16466936850E-01  0.13904676035E-01  0.10202617540E+01  0.10199871866E+01 0.  0.
     999903    2    3    3    0    0  0.94354934616E-01  0.17701579559E-01 -0.86156515541E-01  0.13056160103E+00  0.20178872343E-01 0.  0.
         14    1    1    2    0    0 -0.97819141035E-02 -0.16466936850E-01 -0.13904676035E-01  0.23668245993E-01  0.00000000000E+00 0. -1.
     999901    1    3    3    0    0 -0.84573020512E-01 -0.12346427086E-02  0.10006119158E+00  0.88970015297E+00  0.88000000000E+00 0. -1.
        -11    1    4    4    0    0  0.53737648954E-01  0.20087400960E-01 -0.52161707952E-01  0.77539302872E-01  0.51100000000E-03 0.  1.
         11    1    4    4    0    0  0.40617285662E-01 -0.23858214010E-02 -0.33994807588E-01  0.53022298161E-01  0.51100000000E-03 0. -1.
</event>
<event>
 8    1  0.1081309E+005  0.1043930E+01  0.7957747E-01            NaN
         13   -1    0    0    0    0  0.00000000000E+00  0.00000000000E+00  0.74505805969E-08  0.10566000000E+00  0.10566000000E+00 0. -1.
     999900   -1    0    0    0    0 -0.00000000000E+00 -0.00000000000E+00 -0.74505805969E-08  0.93827000000E+00  0.93827000000E+00 0.  1.
     999902    2    1    2    0    0  0.12957638146E-01  0.18652229143E-01 -0.12626678182E-01  0.10179446380E+01  0.10176129161E+01 0.  0.
     999903    2    3    3    0    0 -0.10850352489E+00 -0.39458280222E-02  0.61736181282E-01  0.12620851041E+00  0.18128638905E-01 0.  0.
         14    1    1    2    0    0 -0.12957638146E-01 -0.18652229143E-01  0.12626678182E-01  0.25985362038E-01  0.00000000000E+00 0. -1.
     999901    1    3    3    0    0  0.12146116304E+00  0.22598057166E-01 -0.74362859464E-01  0.89173612755E+00  0.88000000000E+00 0.  1.
        -11    1    4    4    0    0 -0.38436812342E-01  0.70724485906E-02  0.19895347633E-01  0.43857656692E-01  0.51100000000E-03 0.  1.
         11    1    4    4    0    0 -0.70066712547E-01 -0.11018276613E-01  0.41840833649E-01  0.82350853718E-01  0.51100000000E-03 0. -1.
</event>
<event>
 8    1  0.1081309E+005  0.1043930E+01  0.7957747E-01            NaN
         13   -1    0    0    0    0  0.00000000000E+00  0.00000000000E+00  0.74505805969E-08  0.10566000000E+00  0.10566000000E+00 0.  1.
     999900   -1    0    0    0    0 -0.00000000000E+00 -0.00000000000E+00 -0.74505805969E-08  0.93827000000E+00  0.93827000000E+00 0.  1.
     999902    2    1    2    0    0 -0.21080053573E-01  0.10627517524E-01 -0.15276250024E-02  0.10202731527E+01  0.10199988528E+01 0.  0.
     999903    2    3    3    0    0 -0.95908994036E-01  0.32903098699E-01 -0.83795981341E-01  0.13299436091E+00  0.19610826223E-01 0.  0.
         14    1    1    2    0    0  0.21080053573E-01 -0.10627517524E-01  0.15276250024E-02  0.23656847328E-01  0.00000000000E+00 0. -1.
     999901    1    3    3    0    0  0.74828940462E-01 -0.22275581175E-01  0.82268356339E-01  0.88727879176E+00  0.88000000000E+00 0. -1.
        -11    1    4    4    0    0 -0.54172594435E-01  0.11835179452E-01 -0.54891002834E-01  0.78025795565E-01  0.51100000000E-03 0. -1.
         11    1    4    4    0    0 -0.41736399601E-01  0.21067919247E-01 -0.28904978508E-01  0.54968565349E-01  0.51100000000E-03 0.  1.
</event>
<event>
 8    1  0.1081309E+005  0.1043930E+01  0.7957747E-01            NaN
         13   -1    0    0    0    0  0.00000000000E+00  0.00000000000E+00  0.74505805969E-08  0.10566000000E+00  0.10566000000E+00 0. -1.
     999900   -1    0    0    0    0 -0.00000000000E+00 -0.00000000000E+00 -0.74505805969E-08  0.93827000000E+00  0.93827000000E+00 0.  1.
     999902    2    1    2    0    0 -0.11635774521E-01 -0.40115135595E-02  0.19090277207E-01  0.10212160797E+01  0.10209634466E+01 0.  0.
     999903    2    3    3    0    0  0.11742024774E+00 -0.27659609825E-01  0.48195115071E-01  0.13101285523E+00  0.17000897731E-01 0.  0.
         14    1    1    2    0    0  0.11635774521E-01  0.40115135595E-02 -0.19090277207E-01  0.22713920260E-01  0.00000000000E+00 0.  1.
     999901    1    3    3    0    0 -0.12905602226E+00  0.23648096265E-01 -0.29104837865E-01  0.89020322451E+00  0.88000000000E+00 0.  1.
        -11    1    4    4    0    0  0.82062690988E-01 -0.19610131385E-01  0.25145747926E-01  0.88042105069E-01  0.51100000000E-03 0.  1.
         11    1    4    4    0    0  0.35357556754E-01 -0.80494784396E-02  0.23049367145E-01  0.42970750163E-01  0.51100000000E-03 0. -1.
</event>
<event>
 8    1  0.1081309E+005  0.1043930E+01  0.7957747E-01            NaN
         13   -1    0    0    0    0  0.00000000000E+00  0.00000000000E+00  0.74505805969E-08  0.10566000000E+00  0.10566000000E+00 0.  1.
     999900   -1    0    0    0    0 -0.00000000000E+00 -0.00000000000E+00 -0.74505805969E-08  0.93827000000E+00  0.93827000000E+00 0. -1.
     999902    2    1    2    0    0  0.11820950767E-01  0.37211292044E-02  0.18623389203E-01  0.10215601027E+01  0.10213151478E+01 0.  0.
     999903    2    3    3    0    0 -0.78157793388E-01  0.88989141326E-01 -0.50539996010E-01  0.13018454653E+00  0.19131571223E-01 0.  0.
         14    1    1    2    0    0 -0.11820950767E-01 -0.37211292044E-02 -0.18623389203E-01  0.22369897295E-01  0.00000000000E+00 0. -1.
     999901    1    3    3    0    0  0.89978744155E-01 -0.85268012122E-01  0.69163385213E-01  0.89137555617E+00  0.88000000000E+00 0.  1.
        -11    1    4    4    0    0 -0.19399234308E-01  0.35706403232E-01 -0.16203948086E-01  0.43750503746E-01  0.51100000000E-03 0.  1.
         11    1    4    4    0    0 -0.58758559080E-01  0.53282738094E-01 -0.34336047924E-01  0.86434042784E-01  0.51100000000E-03 0. -1.
</event>
<event>
 8    1  0.1081309E+005  0.1043930E+01  0.7957747E-01            NaN
         13   -1    0    0    0    0  0.00000000000E+00  0.00000000000E+00  0.74505805969E-08  0.10566000000E+00  0.10566000000E+00 0. -1.
     999900   -1    0    0    0    0 -0.00000000000E+00 -0.00000000000E+00 -0.74505805969E-08  0.93827000000E+00  0.93827000000E+00 0. -1.
     999902    2    1    2    0    0 -0.18836965436E-01 -0.12687322029E-01  0.54064857865E-02  0.10205841332E+01  0.10203170799E+01 0.  0.
     999903    2    3    3    0    0  0.12301420981E+00  0.29042504283E-01 -0.70542955763E-02  0.12816136043E+00  0.19990206402E-01 0.  0.
         14    1    1    2    0    0  0.18836965436E-01  0.12687322029E-01 -0.54064857865E-02  0.23345866779E-01  0.00000000000E+00 0. -1.
     999901    1    3    3    0    0 -0.14185117524E+00 -0.41729826312E-01  0.12460781363E-01  0.89242277279E+00  0.88000000000E+00 0. -1.
        -11    1    4    4    0    0  0.61124128306E-01  0.24622649412E-01 -0.25548706563E-02  0.65948634635E-01  0.51100000000E-03 0.  1.
         11    1    4    4    0    0  0.61890081502E-01  0.44198548712E-02 -0.44994249200E-02  0.62212725796E-01  0.51100000000E-03 0. -1.
</event>
<event>
 8    1  0.1081309E+005  0.1043930E+01  0.7957747E-01            NaN
         13   -1    0    0    0    0  0.00000000000E+00  0.00000000000E+00  0.74505805969E-08  0.10566000000E+00  0.10566000000E+00 0.  1.
     999900   -1    0    0    0    0 -0.00000000000E+00 -0.00000000000E+00 -0.74505805969E-08  0.93827000000E+00  0.93827000000E+00 0. -1.
     999902    2    1    2    0    0 -0.11986424342E-01  0.17635327344E-01  0.84058613693E-02  0.10210097547E+01  0.10207524585E+01 0.  0.
     999903    2    3    3    0    0  0.69223441584E-01  0.85498823706E-01  0.70986813676E-01  0.13246213524E+00  0.20128483228E-01 0.  0.
         14    1    1    2    0    0  0.11986424342E-01 -0.17635327344E-01 -0.84058613693E-02  0.22920245296E-01  0.00000000000E+00 0. -1.
     999901    1    3    3    0    0 -0.81209865926E-01 -0.67863496361E-01 -0.62580952306E-01  0.88854761946E+00  0.88000000000E+00 0. -1.
        -11    1    4    4    0    0  0.42703783027E-01  0.59600731468E-01  0.56879137619E-01  0.92797401330E-01  0.51100000000E-03 0. -1.
         11    1    4    4    0    0  0.26519658557E-01  0.25898092238E-01  0.14107676057E-01  0.39664733911E-01  0.51100000000E-03 0.  1.
</event>
<event>
 8    1  0.1081309E+005  0.1043930E+01  0.7957747E-01            NaN
         13   -1    0    0    0    0  0.00000000000E+00  0.00000000000E+00  0.74505805969E-08  0.10566000000E+00  0.10566000000E+00 0.  1.
     999900   -1    0    0    0    0 -0.00000000000E+00 -0.00000000000E+00 -0.74505805969E-08  0.93827000000E+00  0.93827000000E+00 0.  1.
     999902    2    1    2    0    0 -0.10754362746E-01 -0.22067436793E-01  0.37814773413E-03  0.10193786033E+01  0.10190829043E+01 0.  0.
     999903    2    3    3    0    0 -0.41840363299E-01 -0.92933805624E-01 -0.81787769775E-01  0.13216971038E+00  0.19806181564E-01 0.  0.
         14    1    1    2    0    0  0.10754362746E-01  0.22067436793E-01 -0.37814773413E-03  0.24551396710E-01  0.00000000000E+00 0. -1.
     999901    1    3    3    0    0  0.31086000553E-01  0.70866368830E-01  0.82165917509E-01  0.88720889291E+00  0.88000000000E+00 0. -1.
        -11    1    4    4    0    0 -0.37767680729E-01 -0.79532990568E-01 -0.61054897771E-01  0.10714408971E+00  0.51100000000E-03 0. -1.
         11    1    4    4    0    0 -0.40726825695E-02 -0.13400815056E-01 -0.20732872004E-01  0.25025620672E-01  0.51100000000E-03 0.  1.
</event>
<event>
 8    1  0.1081309E+005  0.1043930E+01  0.7957747E-01            NaN
         13   -1    0    0    0    0  0.00000000000E+00  0.00000000000E+00  0.74505805969E-08  0.10566000000E+00  0.10566000000E+00 0. -1.
     999900   -1    0    0    0    0 -0.00000000000E+00 -0.00000000000E+00 -0.74505805969E-08  0.93827000000E+00  0.93827000000E+00 0. -1.
     999902    2    1    2    0    0 -0.45170552356E-02  0.15447564581E-03 -0.22642514650E-01  0.10208408008E+01  0.10205796536E+01 0.  0.
     999903    2    3    3    0    0 -0.10141424565E+00 -0.24748338780E-01 -0.80502998780E-01  0.13328401314E+00  0.19661277972E-01 0.  0.
         14    1    1    2    0    0  0.45170552356E-02 -0.15447564581E-03  0.22642514650E-01  0.23089199215E-01  0.00000000000E+00 0. -1.
     999901    1    3    3    0    0  0.96897190417E-01  0.24902814426E-01  0.57860484131E-01  0.88755678765E+00  0.88000000000E+00 0. -1.
        -11    1    4    4    0    0 -0.73566982064E-01 -0.95653020132E-02 -0.51585778736E-01  0.90360110344E-01  0.51100000000E-03 0. -1.
         11    1    4    4    0    0 -0.27847263589E-01 -0.15183036767E-01 -0.28917220044E-01  0.42923902792E-01  0.51100000000E-03 0.  1.
</event>
<event>
 8    1  0.1081309E+005  0.1043930E+01  0.7957747E-01            NaN
         13   -1    0    0    0    0  0.00000000000E+00  0.00000000000E+00  0.74505805969E-08  0.10566000000E+00  0.10566000000E+00 0.  1.
     999900   -1    0    0    0    0 -0.00000000000E+00 -0.00000000000E+00 -0.74505805969E-08  0.93827000000E+00  0.93827000000E+00 0.  1.
     999902    2    1    2    0    0  0.21065145223E-01 -0.97375430068E-02 -0.63688063262E-02  0.10198650508E+01  0.10195810905E+01 0.  0.
     999903    2    3    3    0    0 -0.12363019841E+00  0.11881430392E-01 -0.27558421562E-01  0.12753488639E+00  0.89490949595E-02 0.  0.
         14    1    1    2    0    0 -0.21065145223E-01  0.97375430068E-02  0.63688063262E-02  0.24064949223E-01  0.00000000000E+00 0.  1.
     999901    1    3    3    0    0  0.14469534363E+00 -0.21618973398E-01  0.21189615236E-01  0.89233016439E+00  0.88000000000E+00 0.  1.
        -11    1    4    4    0    0 -0.58005130728E-01  0.13749467508E-02 -0.14362249521E-01  0.59774752209E-01  0.51100000000E-03 0.  1.
         11    1    4    4    0    0 -0.65625067683E-01  0.10506483641E-01 -0.13196172041E-01  0.67760134182E-01  0.51100000000E-03 0. -1.
</event>
<event>
 8    1  0.1081309E+005  0.1043930E+01  0.7957747E-01            NaN
         13   -1    0    0    0    0  0.00000000000E+00  0.00000000000E+00  0.74505805969E-08  0.10566000000E+00  0.10566000000E+00 0. -1.
     999900   -1    0    0    0    0 -0.00000000000E+00 -0.00000000000E+00 -0.74505805969E-08  0.93827000000E+00  0.93827000000E+00 0.  1.
     999902    2    1    2    0    0 -0.14049632936E-01 -0.15775344353E-01  0.11507515768E-01  0.10198743023E+01  0.10195905628E+01 0.  0.
     999903    2    3    3    0    0  0.14797121255E-01 -0.11033335104E+00 -0.66171788781E-01  0.13093818182E+00  0.19331287568E-01 0.  0.
         14    1    1    2    0    0  0.14049632936E-01  0.15775344353E-01 -0.11507515768E-01  0.24055697750E-01  0.00000000000E+00 0.  1.
     999901    1    3    3    0    0 -0.28846754191E-01  0.94558006682E-01  0.77679304549E-01  0.88893612043E+00  0.88000000000E+00 0. -1.
        -11    1    4    4    0    0  0.11496215096E-01 -0.70147422479E-01 -0.31477267762E-01  0.77742545293E-01  0.51100000000E-03 0.  1.
         11    1    4    4    0    0  0.33009061592E-02 -0.40185928556E-01 -0.34694521020E-01  0.53195636524E-01  0.51100000000E-03 0. -1.
</event>
<event>
 8    1  0.1081309E+005  0.1043930E+01  0.7957747E-01            NaN
         13   -1    0    0    0    0  0.00000000000E+00  0.00000000000E+00  0.74505805969E-08  0.10566000000E+00  0.10566000000E+00 0. -1.
     999900   -1    0    0    0    0 -0.00000000000E+00 -0.00000000000E+00 -0.74505805969E-08  0.93827000000E+00  0.93827000000E+00 0.  1.
     999902    2    1    2    0    0  0.19244142006E-01 -0.13896061616E-01  0.20976303826E-02  0.10201006571E+01  0.10198222948E+01 0.  0.
     999903    2    3    3    0    0  0.12735851792E-01 -0.91969820924E-03 -0.12819958375E+00  0.13038828343E+00  0.20072952338E-01 0.  0.
         14    1    1    2    0    0 -0.19244142006E-01  0.13896061616E-01 -0.20976303826E-02  0.23829342903E-01  0.00000000000E+00 0.  1.
     999901    1    3    3    0    0  0.65082902142E-02 -0.12976363407E-01  0.13029721413E+00  0.88971237367E+00  0.88000000000E+00 0. -1.
        -11    1    4    4    0    0  0.37693585089E-02  0.87009014980E-02 -0.35052875375E-01  0.36316372940E-01  0.51100000000E-03 0. -1.
         11    1    4    4    0    0  0.89664932827E-02 -0.96205997072E-02 -0.93146708376E-01  0.94071910488E-01  0.51100000000E-03 0.  1.
</event>
<event>
 8    1  0.1081309E+005  0.1043930E+01  0.7957747E-01            NaN
         13   -1    0    0    0    0  0.00000000000E+00  0.00000000000E+00  0.74505805969E-08  0.10566000000E+00  0.10566000000E+00 0.  1.
     999900   -1    0    0    0    0 -0.00000000000E+00 -0.00000000000E+00 -0.74505805969E-08  0.93827000000E+00  0.93827000000E+00 0.  1.
     999902    2    1    2    0    0  0.78559637023E-02  0.17410900915E-02  0.28512104054E-01  0.10143042065E+01  0.10138714592E+01 0.  0.
     999903    2    3    3    0    0  0.53239926838E-01  0.85143144415E-01 -0.69676765457E-01  0.12376691879E+00  0.19482137784E-01 0.  0.
         14    1    1    2    0    0 -0.78559637023E-02 -0.17410900915E-02 -0.28512104054E-01  0.29625793457E-01  0.00000000000E+00 0. -1.
     999901    1    3    3    0    0 -0.45383963136E-01 -0.83402054323E-01  0.98188869511E-01  0.89053728775E+00  0.88000000000E+00 0.  1.
        -11    1    4    4    0    0  0.17366188455E-01  0.14983121050E-01 -0.10558817203E-01  0.25255260038E-01  0.51100000000E-03 0. -1.
         11    1    4    4    0    0  0.35873738383E-01  0.70160023364E-01 -0.59117948254E-01  0.98511658756E-01  0.51100000000E-03 0.  1.
</event>
<event>
 8    1  0.1081309E+005  0.1043930E+01  0.7957747E-01            NaN
         13   -1    0    0    0    0  0.00000000000E+00  0.00000000000E+00  0.74505805969E-08  0.10566000000E+00  0.10566000000E+00 0.  1.
     999900   -1    0    0    0    0 -0.00000000000E+00 -0.00000000000E+00 -0.74505805969E-08  0.93827000000E+00  0.93827000000E+00 0. -1.
     999902    2    1    2    0    0  0.65626236577E-02 -0.44926186782E-02  0.22340792736E-01  0.10202158129E+01  0.10199401660E+01 0.  0.
     999903    2    3    3    0    0  0.29233060986E-01  0.12363190988E+00  0.22912759406E-01  0.13064840636E+00  0.20114436255E-01 0.  0.
         14    1    1    2    0    0 -0.65626236577E-02  0.44926186782E-02 -0.22340792736E-01  0.23714187145E-01  0.00000000000E+00 0. -1.
     999901    1    3    3    0    0 -0.22670437328E-01 -0.12812452856E+00 -0.57196667038E-03  0.88956740649E+00  0.88000000000E+00 0.  1.
        -11    1    4    4    0    0  0.96040294343E-02  0.58754476170E-01  0.14725663709E-02  0.59554642339E-01  0.51100000000E-03 0. -1.
         11    1    4    4    0    0  0.19629031551E-01  0.64877433712E-01  0.21440193036E-01  0.71093764024E-01  0.51100000000E-03 0.  1.
</event>
<event>
 8    1  0.1081309E+005  0.1043930E+01  0.7957747E-01            NaN
         13   -1    0    0    0    0  0.00000000000E+00  0.00000000000E+00  0.74505805969E-08  0.10566000000E+00  0.10566000000E+00 0. -1.
     999900   -1    0    0    0    0 -0.00000000000E+00 -0.00000000000E+00 -0.74505805969E-08  0.93827000000E+00  0.93827000000E+00 0. -1.
     999902    2    1    2    0    0  0.20149921297E-01 -0.87222104567E-02  0.87737829460E-02  0.10202852215E+01  0.10200112047E+01 0.  0.
     999903    2    3    3    0    0 -0.94077251512E-01 -0.74063866975E-01  0.45860728120E-01  0.12972763178E+00  0.19750099269E-01 0.  0.
         14    1    1    2    0    0 -0.20149921297E-01  0.87222104567E-02 -0.87737829460E-02  0.23644778509E-01  0.00000000000E+00 0.  1.
     999901    1    3    3    0    0  0.11422717281E+00  0.65341656518E-01 -0.37086945174E-01  0.89055758971E+00  0.88000000000E+00 0.  1.
        -11    1    4    4    0    0 -0.10885797072E-01 -0.75907245098E-02  0.12232074332E-01  0.18055593038E-01  0.51100000000E-03 0. -1.
         11    1    4    4    0    0 -0.83191454440E-01 -0.66473142465E-01  0.33628653787E-01  0.11167203875E+00  0.51100000000E-03 0.  1.
</event>
<event>
 8    1  0.1081309E+005  0.1043930E+01  0.7957747E-01            NaN
         13   -1    0    0    0    0  0.00000000000E+00  0.00000000000E+00  0.74505805969E-08  0.10566000000E+00  0.10566000000E+00 0. -1.
     999900   -1    0    0    0    0 -0.00000000000E+00 -0.00000000000E+00 -0.74505805969E-08  0.93827000000E+00  0.93827000000E+00 0.  1.
     999902    2    1    2    0    0 -0.95238649247E-02 -0.20212672662E-01 -0.53075902224E-02  0.10209642287E+01  0.10207058977E+01 0.  0.
     999903    2    3    3    0    0  0.21352180283E-01  0.11841772590E+00 -0.41406317423E-01  0.12884605506E+00  0.20202707026E-01 0.  0.
         14    1    1    2    0    0  0.95238649247E-02  0.20212672662E-01  0.53075902224E-02  0.22965771339E-01  0.00000000000E+00 0. -1.
     999901    1    3    3    0    0 -0.30876045208E-01 -0.13863039856E+00  0.36098727200E-01  0.89211817361E+00  0.88000000000E+00 0. -1.
        -11    1    4    4    0    0  0.67975648000E-02  0.72002777227E-01 -0.16449989499E-01  0.74171895561E-01  0.51100000000E-03 0.  1.
         11    1    4    4    0    0  0.14554615483E-01  0.46414948671E-01 -0.24956327924E-01  0.54674159494E-01  0.51100000000E-03 0. -1.
</event>
<event>
 8    1  0.1081309E+005  0.1043930E+01  0.7957747E-01            NaN
         13   -1    0    0    0    0  0.00000000000E+00  0.00000000000E+00  0.74505805969E-08  0.10566000000E+00  0.10566000000E+00 0. -1.
     999900   -1    0    0    0    0 -0.00000000000E+00 -0.00000000000E+00 -0.74505805969E-08  0.93827000000E+00  0.93827000000E+00 0.  1.
     999902    2    1    2    0    0 -0.16588686603E-01  0.16252543369E-01  0.62555687361E-02  0.10198787666E+01  0.10195951337E+01 0.  0.
     999903    2    3    3    0    0 -0.11551789945E+00 -0.13149726088E-01 -0.58001318471E-01  0.13152048854E+00  0.20400626735E-01 0.  0.
         14    1    1    2    0    0  0.16588686603E-01 -0.16252543369E-01 -0.62555687361E-02  0.24051233428E-01  0.00000000000E+00 0. -1.
     999901    1    3    3    0    0  0.98929212845E-01  0.29402269457E-01  0.64256887207E-01  0.88835827804E+00  0.88000000000E+00 0. -1.
        -11    1    4    4    0    0 -0.28509385773E-01 -0.12227926900E-01 -0.15261049713E-01  0.34575540961E-01  0.51100000000E-03 0. -1.
         11    1    4    4    0    0 -0.87008513675E-01 -0.92179918774E-03 -0.42740268758E-01  0.96944947574E-01  0.51100000000E-03 0.  1.
</event>
<event>
 8    1  0.1081309E+005  0.1043930E+01  0.7957747E-01            NaN
         13   -1    0    0    0    0  0.00000000000E+00  0.00000000000E+00  0.74505805969E-08  0.10566000000E+00  0.10566000000E+00 0.  1.
     999900   -1    0    0    0    0 -0.00000000000E+00 -0.00000000000E+00 -0.74505805969E-08  0.93827000000E+00  0.93827000000E+00 0.  1.
     999902    2    1    2    0    0 -0.20026585413E-01  0.96699015914E-02 -0.16807366177E-03  0.10216904099E+01  0.10214483317E+01 0.  0.
     999903    2    3    3    0    0 -0.90147979243E-01  0.91858199194E-01  0.33095457769E-01  0.13445966838E+00  0.20481849888E-01 0.  0.
         14    1    1    2    0    0  0.20026585413E-01 -0.96699015914E-02  0.16807366177E-03  0.22239590123E-01  0.00000000000E+00 0.  1.
     999901    1    3    3    0    0  0.70121393830E-01 -0.82188297603E-01 -0.33263531431E-01  0.88723074150E+00  0.88000000000E+00 0.  1.
        -11    1    4    4    0    0 -0.83679337687E-01  0.85829077333E-01  0.35962727518E-01  0.12514967424E+00  0.51100000000E-03 0. -1.
         11    1    4    4    0    0 -0.64686415561E-02  0.60291218616E-02 -0.28672697491E-02  0.93099941363E-02  0.51100000000E-03 0.  1.
</event>
<event>
 8    1  0.1081309E+005  0.1043930E+01  0.7957747E-01            NaN
         13   -1    0    0    0    0  0.00000000000E+00  0.00000000000E+00  0.74505805969E-08  0.10566000000E+00  0.10566000000E+00 0. -1.
     999900   -1    0    0    0    0 -0.00000000000E+00 -0.00000000000E+00 -0.74505805969E-08  0.93827000000E+00  0.93827000000E+00 0. -1.
     999902    2    1    2    0    0  0.21125374082E-01  0.11733820140E-01 -0.59223607162E-03  0.10197573976E+01  0.10194708604E+01 0.  0.
     999903    2    3    3    0    0 -0.64205814465E-01  0.46460824881E-01 -0.10035856113E+00  0.12934137333E+00  0.19399876362E-01 0.  0.
         14    1    1    2    0    0 -0.21125374082E-01 -0.11733820140E-01  0.59223607162E-03  0.24172602440E-01  0.00000000000E+00 0. -1.
     999901    1    3    3    0    0  0.85331188547E-01 -0.34727004741E-01  0.99766325054E-01  0.89041602423E+00  0.88000000000E+00 0.  1.
        -11    1    4    4    0    0 -0.15608753246E-01  0.14166960348E-01 -0.14728067259E-01  0.25719895598E-01  0.51100000000E-03 0.  1.
         11    1    4    4    0    0 -0.48597061219E-01  0.32293864533E-01 -0.85630493867E-01  0.10362147773E+00  0.51100000000E-03 0. -1.
</event>
<event>
 8    1  0.1081309E+005  0.1043930E+01  0.7957747E-01            NaN
         13   -1    0    0    0    0  0.00000000000E+00  0.00000000000E+00  0.74505805969E-08  0.10566000000E+00  0.10566000000E+00 0. -1.
     999900   -1    0    0    0    0 -0.00000000000E+00 -0.00000000000E+00 -0.74505805969E-08  0.93827000000E+00  0.93827000000E+00 0.  1.
     999902    2    1    2    0    0  0.33760041268E-02 -0.15659158806E-01  0.20797957623E-01  0.10176781106E+01  0.10173394591E+01 0.  0.
     999903    2    3    3    0    0 -0.37234382308E-01  0.11147260485E+00  0.44667303715E-01  0.12729536448E+00  0.19909820139E-01 0.  0.
         14    1    1    2    0    0 -0.33760041268E-02  0.15659158806E-01 -0.20797957623E-01  0.26251889450E-01  0.00000000000E+00 0.  1.
     999901    1    3    3    0    0  0.40610386435E-01 -0.12713176366E+00 -0.23869346092E-01  0.89038274607E+00  0.88000000000E+00 0.  1.
        -11    1    4    4    0    0 -0.34234630389E-01  0.76795249836E-01  0.27373219450E-01  0.88425531264E-01  0.51100000000E-03 0. -1.
         11    1    4    4    0    0 -0.29997519185E-02  0.34677355019E-01  0.17294084265E-01  0.38869833216E-01  0.51100000000E-03 0.  1.
</event>
<event>
 8    1  0.1081309E+005  0.1043930E+01  0.7957747E-01            NaN
         13   -1    0    0    0    0  0.00000000000E+00  0.00000000000E+00  0.74505805969E-08  0.10566000000E+00  0.10566000000E+00 0. -1.
     999900   -1    0    0    0    0 -0.00000000000E+00 -0.00000000000E+00 -0.74505805969E-08  0.93827000000E+00  0.93827000000E+00 0.  1.
     999902    2    1    2    0    0 -0.21875335679E-01 -0.58376321724E-02  0.66275126704E-02  0.10203390656E+01  0.10200663099E+01 0.  0.
     999903    2    3    3    0    0 -0.90257347359E-01 -0.55884830527E-02 -0.94019752523E-01  0.13196637717E+00  0.19944697164E-01 0.  0.
         14    1    1    2    0    0  0.21875335679E-01  0.58376321724E-02 -0.66275126704E-02  0.23590934374E-01  0.00000000000E+00 0. -1.
     999901    1    3    3    0    0  0.68382011680E-01 -0.24914911971E-03  0.10064726519E+00  0.88837268845E+00  0.88000000000E+00 0. -1.
        -11    1    4    4    0    0 -0.72529669378E-01 -0.10671941497E-01 -0.81759417664E-01  0.10981487501E+00  0.51100000000E-03 0. -1.
         11    1    4    4    0    0 -0.17727677981E-01  0.50834584441E-02 -0.12260334859E-01  0.22151502166E-01  0.51100000000E-03 0.  1.
</event>
<event>
 8    1  0.1081309E+005  0.1043930E+01  0.7957747E-01            NaN
         13   -1    0    0    0    0  0.00000000000E+00  0.00000000000E+00  0.74505805969E-08  0.10566000000E+00  0.10566000000E+00 0. -1.
     999900   -1    0    0    0    0 -0.00000000000E+00 -0.00000000000E+00 -0.74505805969E-08  0.93827000000E+00  0.93827000000E+00 0. -1.
     999902    2    1    2    0    0  0.15916265158E-02  0.23433734874E-01  0.46159778541E-03  0.10204377400E+01  0.10201672878E+01 0.  0.
     999903    2    3    3    0    0 -0.94081767124E-01  0.59777585155E-01 -0.67799738991E-01  0.13188054785E+00  0.19259691140E-01 0.  0.
         14    1    1    2    0    0 -0.15916265158E-02 -0.23433734874E-01 -0.46159778541E-03  0.23492259951E-01  0.00000000000E+00 0. -1.
     999901    1    3    3    0    0  0.95673393640E-01 -0.36343850281E-01  0.68261336776E-01  0.88855719220E+00  0.88000000000E+00 0.  1.
        -11    1    4    4    0    0 -0.27481835944E-01  0.21924847877E-01 -0.12172547757E-01  0.37207288281E-01  0.51100000000E-03 0.  1.
         11    1    4    4    0    0 -0.66599931180E-01  0.37852737277E-01 -0.55627191234E-01  0.94673259573E-01  0.51100000000E-03 0. -1.
</event>
<event>
 8    1  0.1081309E+005  0.1043930E+01  0.7957747E-01            NaN
         13   -1    0    0    0    0  0.00000000000E+00  0.00000000000E+00  0.74505805969E-08  0.10566000000E+00  0.10566000000E+00 0.  1.
     999900   -1    0    0    0    0 -0.00000000000E+00 -0.00000000000E+00 -0.74505805969E-08  0.93827000000E+00  0.93827000000E+00 0. -1.
     999902    2    1    2    0    0 -0.19475263634E-02 -0.19912782924E-01  0.73823150153E-02  0.10226037167E+01  0.10223813140E+01 0.  0.
     999903    2    3    3    0    0  0.84670198604E-01 -0.10024308823E+00 -0.20539222685E-01  0.13427089595E+00  0.19725479970E-01 0.  0.
         14    1    1    2    0    0  0.19475263634E-02  0.19912782924E-01 -0.73823150153E-02  0.21326283260E-01  0.00000000000E+00 0. -1.
     999901    1    3    3    0    0 -0.86617724967E-01  0.80330305308E-01  0.27921537700E-01  0.88833282079E+00  0.88000000000E+00 0. -1.
        -11    1    4    4    0    0  0.38608141717E-01 -0.30973943458E-01 -0.72148831603E-02  0.50022889163E-01  0.51100000000E-03 0.  1.
         11    1    4    4    0    0  0.46062056886E-01 -0.69269144774E-01 -0.13324339525E-01  0.84248006784E-01  0.51100000000E-03 0. -1.
</event>
<event>
 8    1  0.1120360E+005  0.1043930E+01  0.7957747E-01            NaN
         13   -1    0    0    0    0  0.00000000000E+00  0.00000000000E+00  0.74505805969E-08  0.10566000000E+00  0.10566000000E+00 0.  1.
     999900   -1    0    0    0    0 -0.00000000000E+00 -0.00000000000E+00 -0.74505805969E-08  0.93827000000E+00  0.93827000000E+00 0. -1.
     999902    2    1    2    0    0  0.18195419569E-01  0.29248439717E-04 -0.15734082481E-01  0.10198751564E+01  0.10195914374E+01 0.  0.
     999903    2    3    3    0    0  0.32310678559E-01 -0.10978193948E+00  0.58162886220E-01  0.12986476348E+00  0.19643861054E-01 0.  0.
         14    1    1    2    0    0 -0.18195419569E-01 -0.29248439717E-04  0.15734082481E-01  0.24054843593E-01  0.00000000000E+00 0. -1.
     999901    1    3    3    0    0 -0.14115258989E-01  0.10981118792E+00 -0.73896968701E-01  0.89001039292E+00  0.88000000000E+00 0. -1.
        -11    1    4    4    0    0  0.16133158881E-01 -0.57951869591E-01  0.41439590051E-01  0.73049289861E-01  0.51100000000E-03 0.  1.
         11    1    4    4    0    0  0.16177519677E-01 -0.51830069886E-01  0.16723296169E-01  0.56815473623E-01  0.51100000000E-03 0. -1.
</event>
<event>
 8    1  0.1081309E+005  0.1043930E+01  0.7957747E-01            NaN
         13   -1    0    0    0    0  0.00000000000E+00  0.00000000000E+00  0.74505805969E-08  0.10566000000E+00  0.10566000000E+00 0. -1.
     999900   -1    0    0    0    0 -0.00000000000E+00 -0.00000000000E+00 -0.74505805969E-08  0.93827000000E+00  0.93827000000E+00 0. -1.
     999902    2    1    2    0    0  0.69842081547E-03 -0.47990662923E-02  0.24208435386E-01  0.10192405858E+01  0.10189415119E+01 0.  0.
     999903    2    3    3    0    0 -0.66138499956E-01  0.78418228384E-01 -0.72994999901E-01  0.12747783713E+00  0.19965200466E-01 0.  0.
         14    1    1    2    0    0 -0.69842081547E-03  0.47990662923E-02 -0.24208435386E-01  0.24689414184E-01  0.00000000000E+00 0.  1.
     999901    1    3    3    0    0  0.66836920771E-01 -0.83217294676E-01  0.97203435287E-01  0.89176274869E+00  0.88000000000E+00 0.  1.
        -11    1    4    4    0    0 -0.34670680726E-01  0.38769312823E-01 -0.24955333302E-01  0.57690081470E-01  0.51100000000E-03 0.  1.
         11    1    4    4    0    0 -0.31467819229E-01  0.39648915561E-01 -0.48039666598E-01  0.69787755660E-01  0.51100000000E-03 0. -1.
</event>
<event>
 8    1  0.1081309E+005  0.1043930E+01  0.7957747E-01            NaN
         13   -1    0    0    0    0  0.00000000000E+00  0.00000000000E+00  0.74505805969E-08  0.10566000000E+00  0.10566000000E+00 0.  1.
     999900   -1    0    0    0    0 -0.00000000000E+00 -0.00000000000E+00 -0.74505805969E-08  0.93827000000E+00  0.93827000000E+00 0.  1.
     999902    2    1    2    0    0 -0.17457858639E-01  0.16916964719E-01  0.39346216214E-02  0.10193039615E+01  0.10190064397E+01 0.  0.
     999903    2    3    3    0    0 -0.87616992109E-01 -0.66363997326E-01  0.67127877045E-01  0.13034310177E+00  0.20056292156E-01 0.  0.
         14    1    1    2    0    0  0.17457858639E-01 -0.16916964719E-01 -0.39346216214E-02  0.24626038473E-01  0.00000000000E+00 0.  1.
     999901    1    3    3    0    0  0.70159133470E-01  0.83280962045E-01 -0.63193255424E-01  0.88896085976E+00  0.88000000000E+00 0.  1.
        -11    1    4    4    0    0 -0.10030308224E-01 -0.59903161465E-02  0.74213706028E-03  0.11717630265E-01  0.51100000000E-03 0.  1.
         11    1    4    4    0    0 -0.77586683885E-01 -0.60373681180E-01  0.66385739985E-01  0.11862547151E+00  0.51100000000E-03 0. -1.
</event>
<event>
 8    1  0.1081309E+005  0.1043930E+01  0.7957747E-01            NaN
         13   -1    0    0    0    0  0.00000000000E+00  0.00000000000E+00  0.74505805969E-08  0.10566000000E+00  0.10566000000E+00 0. -1.
     999900   -1    0    0    0    0 -0.00000000000E+00 -0.00000000000E+00 -0.74505805969E-08  0.93827000000E+00  0.93827000000E+00 0.  1.
     999902    2    1    2    0    0  0.70214291009E-02  0.15642873100E-02  0.30911572555E-01  0.10121924390E+01  0.10116947468E+01 0.  0.
     999903    2    3    3    0    0  0.15312689945E-01 -0.11281558841E+00 -0.39238585144E-01  0.12198316831E+00  0.19452283263E-01 0.  0.
         14    1    1    2    0    0 -0.70214291009E-02 -0.15642873100E-02 -0.30911572555E-01  0.31737561016E-01  0.00000000000E+00 0.  1.
     999901    1    3    3    0    0 -0.82912608440E-02  0.11437987572E+00  0.70150157699E-01  0.89020927068E+00  0.88000000000E+00 0. -1.
        -11    1    4    4    0    0  0.97553553283E-02 -0.38595841666E-01 -0.52394780577E-02  0.40156185113E-01  0.51100000000E-03 0.  1.
         11    1    4    4    0    0  0.55573346166E-02 -0.74219746744E-01 -0.33999107086E-01  0.81826983193E-01  0.51100000000E-03 0. -1.
</event>
<event>
 8    1  0.1081309E+005  0.1043930E+01  0.7957747E-01            NaN
         13   -1    0    0    0    0  0.00000000000E+00  0.00000000000E+00  0.74505805969E-08  0.10566000000E+00  0.10566000000E+00 0. -1.
     999900   -1    0    0    0    0 -0.00000000000E+00 -0.00000000000E+00 -0.74505805969E-08  0.93827000000E+00  0.93827000000E+00 0.  1.
     999902    2    1    2    0    0  0.13843863711E-01 -0.18989282044E-01  0.26951323701E-02  0.10202760546E+01  0.10200018228E+01 0.  0.
     999903    2    3    3    0    0 -0.44688306796E-02 -0.11846735580E+00 -0.55751488632E-01  0.13255580054E+00  0.20207101093E-01 0.  0.
         14    1    1    2    0    0 -0.13843863711E-01  0.18989282044E-01 -0.26951323701E-02  0.23653945411E-01  0.00000000000E+00 0.  1.
     999901    1    3    3    0    0  0.18312694391E-01  0.99478073760E-01  0.58446621002E-01  0.88772025404E+00  0.88000000000E+00 0. -1.
        -11    1    4    4    0    0 -0.11914315682E-01 -0.54077105063E-01 -0.27838492566E-01  0.61980053239E-01  0.51100000000E-03 0.  1.
         11    1    4    4    0    0  0.74454850026E-02 -0.64390250740E-01 -0.27912996066E-01  0.70575747305E-01  0.51100000000E-03 0. -1.
</event>
<event>
 8    1  0.1081309E+005  0.1043930E+01  0.7957747E-01            NaN
         13   -1    0    0    0    0  0.00000000000E+00  0.00000000000E+00  0.74505805969E-08  0.10566000000E+00  0.10566000000E+00 0. -1.
     999900   -1    0    0    0    0 -0.00000000000E+00 -0.00000000000E+00 -0.74505805969E-08  0.93827000000E+00  0.93827000000E+00 0. -1.
     999902    2    1    2    0    0 -0.16850394028E-01  0.17236622880E-01 -0.36842844926E-03  0.10198224766E+01  0.10195374986E+01 0.  0.
     999903    2    3    3    0    0 -0.33320549352E-01 -0.53855957244E-01 -0.11175968667E+00  0.12980369396E+00  0.18656051596E-01 0.  0.
         14    1    1    2    0    0  0.16850394028E-01 -0.17236622880E-01  0.36842844926E-03  0.24107523446E-01  0.00000000000E+00 0.  1.
     999901    1    3    3    0    0  0.16470155324E-01  0.71092580124E-01  0.11139125822E+00  0.89001878260E+00  0.88000000000E+00 0.  1.
        -11    1    4    4    0    0 -0.33579342799E-01 -0.44108649248E-01 -0.10141574120E+00  0.11557923207E+00  0.51100000000E-03 0.  1.
         11    1    4    4    0    0  0.25879344740E-03 -0.97473079958E-02 -0.10343945472E-01  0.14224461893E-01  0.51100000000E-03 0. -1.
</event>
<event>
 8    1  0.1081309E+005  0.1043930E+01  0.7957747E-01            NaN
         13   -1    0    0    0    0  0.00000000000E+00  0.00000000000E+00  0.74505805969E-08  0.10566000000E+00  0.10566000000E+00 0.  1.
     999900   -1    0    0    0    0 -0.00000000000E+00 -0.00000000000E+00 -0.74505805969E-08  0.93827000000E+00  0.93827000000E+00 0. -1.
     999902    2    1    2    0    0 -0.10698774882E-01  0.14360025999E-01 -0.18029114305E-01  0.10185189179E+01  0.10182018773E+01 0.  0.
     999903    2    3    3    0    0 -0.39428557508E-01 -0.11263516340E+00 -0.41557610184E-01  0.12862748146E+00  0.24014638065E-01 0.  0.
         14    1    1    2    0    0  0.10698774882E-01 -0.14360025999E-01  0.18029114305E-01  0.25411082096E-01  0.00000000000E+00 0. -1.
     999901    1    3    3    0    0  0.28729782626E-01  0.12699518940E+00  0.23528495879E-01  0.88989143644E+00  0.88000000000E+00 0.  1.
        -11    1    4    4    0    0 -0.13370298517E-01 -0.49432682194E-01 -0.59824754206E-02  0.51559733170E-01  0.51100000000E-03 0.  1.
         11    1    4    4    0    0 -0.26058258991E-01 -0.63202481203E-01 -0.35575134763E-01  0.77067748289E-01  0.51100000000E-03 0. -1.
</event>
<event>
 8    1  0.1081309E+005  0.1043930E+01  0.7957747E-01            NaN
         13   -1    0    0    0    0  0.00000000000E+00  0.00000000000E+00  0.74505805969E-08  0.10566000000E+00  0.10566000000E+00 0.  1.
     999900   -1    0    0    0    0 -0.00000000000E+00 -0.00000000000E+00 -0.74505805969E-08  0.93827000000E+00  0.93827000000E+00 0.  1.
     999902    2    1    2    0    0 -0.17981026947E-01  0.84732814762E-02 -0.12151854454E-01  0.10206323307E+01  0.10203663916E+01 0.  0.
     999903    2    3    3    0    0  0.72788088563E-01 -0.91278168179E-01  0.48972920261E-01  0.12826154333E+00  0.20563724240E-01 0.  0.
         14    1    1    2    0    0  0.17981026947E-01 -0.84732814762E-02  0.12151854454E-01  0.23297669320E-01  0.00000000000E+00 0.  1.
     999901    1    3    3    0    0 -0.90769115510E-01  0.99751449656E-01 -0.61124774716E-01  0.89237078735E+00  0.88000000000E+00 0.  1.
        -11    1    4    4    0    0  0.63896094235E-01 -0.71252553535E-01  0.33370544808E-01  0.10135823413E+00  0.51100000000E-03 0.  1.
         11    1    4    4    0    0  0.88919943279E-02 -0.20025614644E-01  0.15602375454E-01  0.26903309198E-01  0.51100000000E-03 0. -1.
</event>
<event>
 8    1  0.1081309E+005  0.1043930E+01  0.7957747E-01            NaN
         13   -1    0    0    0    0  0.00000000000E+00  0.00000000000E+00  0.74505805969E-08  0.10566000000E+00  0.10566000000E+00 0. -1.
     999900   -1    0    0    0    0 -0.00000000000E+00 -0.00000000000E+00 -0.74505805969E-08  0.93827000000E+00  0.93827000000E+00 0.  1.
     999902    2    1    2    0    0 -0.13970153873E-01  0.17392806267E-01  0.46314731417E-02  0.10211456753E+01  0.10208914559E+01 0.  0.
     999903    2    3    3    0    0  0.14719925966E-01  0.12486096807E+00 -0.35795593983E-01  0.13322288910E+00  0.25691945489E-01 0.  0.
         14    1    1    2    0    0  0.13970153873E-01 -0.17392806267E-01 -0.46314731417E-02  0.22784324711E-01  0.00000000000E+00 0.  1.
     999901    1    3    3    0    0 -0.28690079839E-01 -0.10746816180E+00  0.40427067125E-01  0.88792278619E+00  0.88000000000E+00 0. -1.
        -11    1    4    4    0    0  0.18888136548E-02  0.38464512600E-01 -0.23231498275E-01  0.44978327888E-01  0.51100000000E-03 0.  1.
         11    1    4    4    0    0  0.12831112311E-01  0.86396455470E-01 -0.12564095708E-01  0.88244561208E-01  0.51100000000E-03 0. -1.
</event>
<event>
 8    1  0.1081309E+005  0.1043930E+01  0.7957747E-01            NaN
         13   -1    0    0    0    0  0.00000000000E+00  0.00000000000E+00  0.74505805969E-08  0.10566000000E+00  0.10566000000E+00 0. -1.
     999900   -1    0    0    0    0 -0.00000000000E+00 -0.00000000000E+00 -0.74505805969E-08  0.93827000000E+00  0.93827000000E+00 0. -1.
     999902    2    1    2    0    0  0.14863366086E-01  0.84271975923E-02 -0.15340462982E-01  0.10209677023E+01  0.10207094504E+01 0.  0.
     999903    2    3    3    0    0 -0.61678937877E-01 -0.23054976839E-01 -0.11282430063E+00  0.13172479387E+00  0.16919668238E-01 0.  0.
         14    1    1    2    0    0 -0.14863366086E-01 -0.84271975923E-02  0.15340462982E-01  0.22962297689E-01  0.00000000000E+00 0. -1.
     999901    1    3    3    0    0  0.76542303963E-01  0.31482174431E-01  0.97483837650E-01  0.88924290844E+00  0.88000000000E+00 0.  1.
        -11    1    4    4    0    0 -0.57148793779E-01 -0.24015040797E-01 -0.11003165100E+00  0.12629304081E+00  0.51100000000E-03 0.  1.
         11    1    4    4    0    0 -0.45301440987E-02  0.96006395816E-03 -0.27926496331E-02  0.54317530625E-02  0.51100000000E-03 0. -1.
</event>
<event>
 8    1  0.1081309E+005  0.1043930E+01  0.7957747E-01            NaN
         13   -1    0    0    0    0  0.00000000000E+00  0.00000000000E+00  0.74505805969E-08  0.10566000000E+00  0.10566000000E+00 0. -1.
     999900   -1    0    0    0    0 -0.00000000000E+00 -0.00000000000E+00 -0.74505805969E-08  0.93827000000E+00  0.93827000000E+00 0.  1.
     999902    2    1    2    0    0  0.20102312288E-02  0.45559025905E-02 -0.23360315726E-01  0.10200448241E+01  0.10197651404E+01 0.  0.
     999903    2    3    3    0    0 -0.13938196628E-01  0.11065058056E+00 -0.68546490344E-01  0.13237809415E+00  0.19685379571E-01 0.  0.
         14    1    1    2    0    0 -0.20102312288E-02 -0.45559025905E-02  0.23360315726E-01  0.23885175922E-01  0.00000000000E+00 0. -1.
     999901    1    3    3    0    0  0.15948427856E-01 -0.10609467797E+00  0.45186174618E-01  0.88766672993E+00  0.88000000000E+00 0. -1.
        -11    1    4    4    0    0 -0.11435355974E-01  0.60466679570E-01 -0.27107108001E-01  0.67246138400E-01  0.51100000000E-03 0.  1.
         11    1    4    4    0    0 -0.25028406535E-02  0.50183900990E-01 -0.41439382343E-01  0.65131955750E-01  0.51100000000E-03 0. -1.
</event>
<event>
 8    1  0.1081309E+005  0.1043930E+01  0.7957747E-01            NaN
         13   -1    0    0    0    0  0.00000000000E+00  0.00000000000E+00  0.74505805969E-08  0.10566000000E+00  0.10566000000E+00 0. -1.
     999900   -1    0    0    0    0 -0.00000000000E+00 -0.00000000000E+00 -0.74505805969E-08  0.93827000000E+00  0.93827000000E+00 0.  1.
     999902    2    1    2    0    0 -0.13941117731E-01  0.20067974800E-01  0.69374646179E-02  0.10185290789E+01  0.10182122951E+01 0.  0.
     999903    2    3    3    0    0  0.59407369287E-02  0.82547213131E-01 -0.98304515064E-01  0.12983632119E+00  0.18556881919E-01 0.  0.
         14    1    1    2    0    0  0.13941117731E-01 -0.20067974800E-01 -0.69374646179E-02  0.25400921075E-01  0.00000000000E+00 0.  1.
     999901    1    3    3    0    0 -0.19881854660E-01 -0.62479238331E-01  0.10524197968E+00  0.88869275774E+00  0.88000000000E+00 0. -1.
        -11    1    4    4    0    0  0.53905463716E-02  0.51290159118E-01 -0.74168366725E-01  0.90337955236E-01  0.51100000000E-03 0.  1.
         11    1    4    4    0    0  0.55019055713E-03  0.31257054012E-01 -0.24136148340E-01  0.39498365952E-01  0.51100000000E-03 0. -1.
</event>
<event>
 8    1  0.1081309E+005  0.1043930E+01  0.7957747E-01            NaN
         13   -1    0    0    0    0  0.00000000000E+00  0.00000000000E+00  0.74505805969E-08  0.10566000000E+00  0.10566000000E+00 0. -1.
     999900   -1    0    0    0    0 -0.00000000000E+00 -0.00000000000E+00 -0.74505805969E-08  0.93827000000E+00  0.93827000000E+00 0.  1.
     999902    2    1    2    0    0  0.61107622067E-02  0.13789948754E-01  0.17158755993E-01  0.10210842781E+01  0.10208286712E+01 0.  0.
     999903    2    3    3    0    0  0.12279259177E+00  0.30834511873E-01  0.35796188311E-01  0.13302317640E+00  0.19621688177E-01 0.  0.
         14    1    1    2    0    0 -0.61107622067E-02 -0.13789948754E-01 -0.17158755993E-01  0.22845721888E-01  0.00000000000E+00 0. -1.
     999901    1    3    3    0    0 -0.11668182956E+00 -0.17044563119E-01 -0.18637432318E-01  0.88806110171E+00  0.88000000000E+00 0.  1.
        -11    1    4    4    0    0  0.55529616398E-01  0.49590174318E-02  0.11163001406E-01  0.56859509958E-01  0.51100000000E-03 0.  1.
         11    1    4    4    0    0  0.67262975372E-01  0.25875494441E-01  0.24633186905E-01  0.76163666447E-01  0.51100000000E-03 0. -1.
</event>
<event>
 8    1  0.1081309E+005  0.1043930E+01  0.7957747E-01            NaN
         13   -1    0    0    0    0  0.00000000000E+00  0.00000000000E+00  0.74505805969E-08  0.10566000000E+00  0.10566000000E+00 0.  1.
     999900   -1    0    0    0    0 -0.00000000000E+00 -0.00000000000E+00 -0.74505805969E-08  0.93827000000E+00  0.93827000000E+00 0. -1.
     999902    2    1    2    0    0  0.13662686999E-01  0.19103928352E-01 -0.21018020849E-02  0.10203493582E+01  0.10200768433E+01 0.  0.
     999903    2    3    3    0    0  0.17665477707E-03 -0.76508706323E-01  0.10190090761E+00  0.12897950648E+00  0.19957574282E-01 0.  0.
         14    1    1    2    0    0 -0.13662686999E-01 -0.19103928352E-01  0.21018020849E-02  0.23580641775E-01  0.00000000000E+00 0.  1.
     999901    1    3    3    0    0  0.13486032222E-01  0.95612634675E-01 -0.10400270969E+00  0.89136985174E+00  0.88000000000E+00 0. -1.
        -11    1    4    4    0    0 -0.27994821876E-02 -0.51126139290E-01  0.52379906293E-01  0.73250494356E-01  0.51100000000E-03 0.  1.
         11    1    4    4    0    0  0.29761369647E-02 -0.25382567033E-01  0.49521001313E-01  0.55729012125E-01  0.51100000000E-03 0. -1.
</event>
<event>
 8    1  0.1081309E+005  0.1043930E+01  0.7957747E-01            NaN
         13   -1    0    0    0    0  0.00000000000E+00  0.00000000000E+00  0.74505805969E-08  0.10566000000E+00  0.10566000000E+00 0.  1.
     999900   -1    0    0    0    0 -0.00000000000E+00 -0.00000000000E+00 -0.74505805969E-08  0.93827000000E+00  0.93827000000E+00 0.  1.
     999902    2    1    2    0    0  0.34724900949E-02  0.14781330551E-01  0.18412845263E-01  0.10200641501E+01  0.10197849242E+01 0.  0.
     999903    2    3    3    0    0  0.75342228929E-01 -0.55039362010E-01 -0.85586080763E-01  0.12829289856E+00  0.20695597865E-01 0.  0.
         14    1    1    2    0    0 -0.34724900949E-02 -0.14781330551E-01 -0.18412845263E-01  0.23865849890E-01  0.00000000000E+00 0. -1.
     999901    1    3    3    0    0 -0.71869738835E-01  0.69820692560E-01  0.10399892603E+00  0.89177125155E+00  0.88000000000E+00 0. -1.
        -11    1    4    4    0    0  0.28982636691E-01 -0.15750353424E-01 -0.18695619094E-01  0.37919047415E-01  0.51100000000E-03 0.  1.
         11    1    4    4    0    0  0.46359592238E-01 -0.39289008585E-01 -0.66890461669E-01  0.90373851149E-01  0.51100000000E-03 0. -1.
</event>
<event>
 8    1  0.1081309E+005  0.1043930E+01  0.7957747E-01            NaN
         13   -1    0    0    0    0  0.00000000000E+00  0.00000000000E+00  0.74505805969E-08  0.10566000000E+00  0.10566000000E+00 0. -1.
     999900   -1    0    0    0    0 -0.00000000000E+00 -0.00000000000E+00 -0.74505805969E-08  0.93827000000E+00  0.93827000000E+00 0.  1.
     999902    2    1    2    0    0  0.14466573406E-01 -0.21122465293E-01 -0.10998192954E-01  0.10160660352E+01  0.10156839013E+01 0.  0.
     999903    2    3    3    0    0  0.39451180034E-01  0.90072473004E-01  0.74495637884E-01  0.12460782531E+00  0.17551753907E-01 0.  0.
         14    1    1    2    0    0 -0.14466573406E-01  0.21122465293E-01  0.10998192954E-01  0.27863964801E-01  0.00000000000E+00 0. -1.
     999901    1    3    3    0    0 -0.24984606628E-01 -0.11119493830E+00 -0.85493830838E-01  0.89145820989E+00  0.88000000000E+00 0.  1.
        -11    1    4    4    0    0  0.58755833060E-02  0.33825577720E-01  0.23879759101E-01  0.41823393012E-01  0.51100000000E-03 0.  1.
         11    1    4    4    0    0  0.33575596728E-01  0.56246895284E-01  0.50615878782E-01  0.82784432296E-01  0.51100000000E-03 0. -1.
</event>
<event>
 8    1  0.1081309E+005  0.1043930E+01  0.7957747E-01            NaN
         13   -1    0    0    0    0  0.00000000000E+00  0.00000000000E+00  0.74505805969E-08  0.10566000000E+00  0.10566000000E+00 0. -1.
     999900   -1    0    0    0    0 -0.00000000000E+00 -0.00000000000E+00 -0.74505805969E-08  0.93827000000E+00  0.93827000000E+00 0.  1.
     999902    2    1    2    0    0 -0.15853050969E-01  0.26296692027E-02  0.17156317009E-01  0.10204231159E+01  0.10201523229E+01 0.  0.
     999903    2    3    3    0    0 -0.10057372684E+00  0.20699060450E-01 -0.79029412732E-01  0.13095372893E+00  0.18965901216E-01 0.  0.
         14    1    1    2    0    0  0.15853050969E-01 -0.26296692027E-02 -0.17156317009E-01  0.23506884065E-01  0.00000000000E+00 0. -1.
     999901    1    3    3    0    0  0.84720675870E-01 -0.18069391247E-01  0.96185729740E-01  0.88946938701E+00  0.88000000000E+00 0. -1.
        -11    1    4    4    0    0 -0.79583211224E-01  0.16242900949E-01 -0.71485004851E-01  0.10820206273E+00  0.51100000000E-03 0. -1.
         11    1    4    4    0    0 -0.20990515616E-01  0.44561595004E-02 -0.75444078805E-02  0.22751666194E-01  0.51100000000E-03 0.  1.
</event>
<event>
 8    1  0.1081309E+005  0.1043930E+01  0.7957747E-01            NaN
         13   -1    0    0    0    0  0.00000000000E+00  0.00000000000E+00  0.74505805969E-08  0.10566000000E+00  0.10566000000E+00 0. -1.
     999900   -1    0    0    0    0 -0.00000000000E+00 -0.00000000000E+00 -0.74505805969E-08  0.93827000000E+00  0.93827000000E+00 0.  1.
     999902    2    1    2    0    0 -0.20395880358E-01  0.96052536433E-02  0.78748036986E-03  0.10213717873E+01  0.10211226445E+01 0.  0.
     999903    2    3    3    0    0 -0.71396386101E-01 -0.40231386387E-01  0.10250511804E+00  0.13264729680E+00  0.19287242508E-01 0.  0.
         14    1    1    2    0    0  0.20395880358E-01 -0.96052536433E-02 -0.78748036986E-03  0.22558212661E-01  0.00000000000E+00 0.  1.
     999901    1    3    3    0    0  0.51000505744E-01  0.49836640030E-01 -0.10171763767E+00  0.88872449054E+00  0.88000000000E+00 0.  1.
        -11    1    4    4    0    0 -0.57237664179E-01 -0.25680925438E-01  0.67316367500E-01  0.92018555664E-01  0.51100000000E-03 0.  1.
         11    1    4    4    0    0 -0.14158721922E-01 -0.14550460949E-01  0.35188750543E-01  0.40628741133E-01  0.51100000000E-03 0. -1.
</event>
<event>
 8    1  0.1081309E+005  0.1043930E+01  0.7957747E-01            NaN
         13   -1    0    0    0    0  0.00000000000E+00  0.00000000000E+00  0.74505805969E-08  0.10566000000E+00  0.10566000000E+00 0. -1.
     999900   -1    0    0    0    0 -0.00000000000E+00 -0.00000000000E+00 -0.74505805969E-08  0.93827000000E+00  0.93827000000E+00 0.  1.
     999902    2    1    2    0    0 -0.11162634650E-01  0.17147298554E-01  0.10264074052E-01  0.10210392710E+01  0.10207826445E+01 0.  0.
     999903    2    3    3    0    0  0.77204843023E-01  0.25833515532E-01  0.10183529936E+00  0.13184325726E+00  0.19602499275E-01 0.  0.
         14    1    1    2    0    0  0.11162634650E-01 -0.17147298554E-01 -0.10264074052E-01  0.22890729044E-01  0.00000000000E+00 0.  1.
     999901    1    3    3    0    0 -0.88367477674E-01 -0.86862169781E-02 -0.91571225305E-01  0.88919601370E+00  0.88000000000E+00 0.  1.
        -11    1    4    4    0    0  0.29106587313E-01  0.65905114305E-02  0.52000934998E-01  0.59958207341E-01  0.51100000000E-03 0.  1.
         11    1    4    4    0    0  0.48098255710E-01  0.19243004101E-01  0.49834364359E-01  0.71885049915E-01  0.51100000000E-03 0. -1.
</event>
<event>
 8    1  0.1081309E+005  0.1043930E+01  0.7957747E-01            NaN
         13   -1    0    0    0    0  0.00000000000E+00  0.00000000000E+00  0.74505805969E-08  0.10566000000E+00  0.10566000000E+00 0. -1.
     999900   -1    0    0    0    0 -0.00000000000E+00 -0.00000000000E+00 -0.74505805969E-08  0.93827000000E+00  0.93827000000E+00 0. -1.
     999902    2    1    2    0    0  0.33342055974E-02 -0.23520468259E-01  0.41729839647E-02  0.10198106478E+01  0.10195253868E+01 0.  0.
     999903    2    3    3    0    0  0.83726038293E-01  0.55422682845E-01 -0.77984187144E-01  0.12883103603E+00  0.20836965669E-01 0.  0.
         14    1    1    2    0    0 -0.33342055974E-02  0.23520468259E-01 -0.41729839647E-02  0.24119352173E-01  0.00000000000E+00 0.  1.
     999901    1    3    3    0    0 -0.80391832696E-01 -0.78943151104E-01  0.82157171109E-01  0.89097961180E+00  0.88000000000E+00 0.  1.
        -11    1    4    4    0    0  0.71410679109E-01  0.37187499578E-01 -0.60140160947E-01  0.10049624518E+00  0.51100000000E-03 0. -1.
         11    1    4    4    0    0  0.12315359185E-01  0.18235183267E-01 -0.17844026197E-01  0.28334790851E-01  0.51100000000E-03 0.  1.
</event>
<event>
 8    1  0.1081309E+005  0.1043930E+01  0.7957747E-01            NaN
         13   -1    0    0    0    0  0.00000000000E+00  0.00000000000E+00  0.74505805969E-08  0.10566000000E+00  0.10566000000E+00 0.  1.
     999900   -1    0    0    0    0 -0.00000000000E+00 -0.00000000000E+00 -0.74505805969E-08  0.93827000000E+00  0.93827000000E+00 0. -1.
     999902    2    1    2    0    0 -0.22301230896E-01 -0.99591815370E-02 -0.68107765348E-03  0.10194965380E+01  0.10192037073E+01 0.  0.
     999903    2    3    3    0    0  0.12106531694E-01 -0.12815529187E+00  0.11615832182E-01  0.13084282111E+00  0.20360975774E-01 0.  0.
         14    1    1    2    0    0  0.22301230896E-01  0.99591815370E-02  0.68107765348E-03  0.24433461956E-01  0.00000000000E+00 0. -1.
     999901    1    3    3    0    0 -0.34407762591E-01  0.11819611034E+00 -0.12296909836E-01  0.88865371693E+00  0.88000000000E+00 0. -1.
        -11    1    4    4    0    0  0.14334610054E-01 -0.48731940686E-01  0.24267548939E-02  0.50856989182E-01  0.51100000000E-03 0. -1.
         11    1    4    4    0    0 -0.22280783599E-02 -0.79423351188E-01  0.91890772883E-02  0.79985831930E-01  0.51100000000E-03 0.  1.
</event>
<event>
 8    1  0.1081309E+005  0.1043930E+01  0.7957747E-01            NaN
         13   -1    0    0    0    0  0.00000000000E+00  0.00000000000E+00  0.74505805969E-08  0.10566000000E+00  0.10566000000E+00 0. -1.
     999900   -1    0    0    0    0 -0.00000000000E+00 -0.00000000000E+00 -0.74505805969E-08  0.93827000000E+00  0.93827000000E+00 0. -1.
     999902    2    1    2    0    0 -0.17083182572E-01 -0.56691670581E-02 -0.54112757445E-02  0.10251348813E+01  0.10249625692E+01 0.  0.
     999903    2    3    3    0    0 -0.12956255335E+00  0.33078022595E-01  0.20798615432E-01  0.13674312539E+00  0.19633877061E-01 0.  0.
         14    1    1    2    0    0  0.17083182572E-01  0.56691670581E-02  0.54112757445E-02  0.18795118704E-01  0.00000000000E+00 0.  1.
     999901    1    3    3    0    0  0.11247937078E+00 -0.38747189653E-01 -0.26209891177E-01  0.88839175590E+00  0.88000000000E+00 0. -1.
        -11    1    4    4    0    0 -0.85627447410E-01  0.31063896365E-01  0.11838175242E-01  0.91855478451E-01  0.51100000000E-03 0. -1.
         11    1    4    4    0    0 -0.43935105944E-01  0.20141262296E-02  0.89604401902E-02  0.44887646944E-01  0.51100000000E-03 0.  1.
</event>
<event>
 8    1  0.1081309E+005  0.1043930E+01  0.7957747E-01            NaN
         13   -1    0    0    0    0  0.00000000000E+00  0.00000000000E+00  0.74505805969E-08  0.10566000000E+00  0.10566000000E+00 0.  1.
     999900   -1    0    0    0    0 -0.00000000000E+00 -0.00000000000E+00 -0.74505805969E-08  0.93827000000E+00  0.93827000000E+00 0.  1.
     999902    2    1    2    0    0 -0.18585257401E-01  0.80441198929E-02  0.14038586420E-01  0.10192885397E+01  0.10189906406E+01 0.  0.
     999903    2    3    3    0    0 -0.11117033073E+00  0.68667584069E-01 -0.17913534457E-02  0.13221594559E+00  0.20093973837E-01 0.  0.
         14    1    1    2    0    0  0.18585257401E-01 -0.80441198929E-02 -0.14038586420E-01  0.24641460310E-01  0.00000000000E+00 0. -1.
     999901    1    3    3    0    0  0.92585073326E-01 -0.60623464176E-01  0.15829939866E-01  0.88707259410E+00  0.88000000000E+00 0. -1.
        -11    1    4    4    0    0 -0.91285758636E-01  0.51031835026E-01 -0.80936702039E-02  0.10489569359E+00  0.51100000000E-03 0. -1.
         11    1    4    4    0    0 -0.19884572092E-01  0.17635749043E-01  0.63023167582E-02  0.27320251995E-01  0.51100000000E-03 0.  1.
</event>
<event>
 8    1  0.1081309E+005  0.1043930E+01  0.7957747E-01            NaN
         13   -1    0    0    0    0  0.00000000000E+00  0.00000000000E+00  0.74505805969E-08  0.10566000000E+00  0.10566000000E+00 0. -1.
     999900   -1    0    0    0    0 -0.00000000000E+00 -0.00000000000E+00 -0.74505805969E-08  0.93827000000E+00  0.93827000000E+00 0. -1.
     999902    2    1    2    0    0  0.62633137821E-02 -0.10718477655E-01  0.20168512920E-01  0.10202470150E+01  0.10199721016E+01 0.  0.
     999903    2    3    3    0    0 -0.62744217951E-01 -0.60018625068E-01  0.98508756830E-01  0.13270561444E+00  0.19176357620E-01 0.  0.
         14    1    1    2    0    0 -0.62633137821E-02  0.10718477655E-01 -0.20168512920E-01  0.23682984951E-01  0.00000000000E+00 0.  1.
     999901    1    3    3    0    0  0.69007531733E-01  0.49300147414E-01 -0.78340243910E-01  0.88754140060E+00  0.88000000000E+00 0.  1.
        -11    1    4    4    0    0 -0.40728410296E-01 -0.27036170905E-01  0.48299791252E-01  0.68723277704E-01  0.51100000000E-03 0.  1.
         11    1    4    4    0    0 -0.22015807655E-01 -0.32982454163E-01  0.50208965579E-01  0.63982336741E-01  0.51100000000E-03 0. -1.
</event>
<event>
 8    1  0.1081309E+005  0.1043930E+01  0.7957747E-01            NaN
         13   -1    0    0    0    0  0.00000000000E+00  0.00000000000E+00  0.74505805969E-08  0.10566000000E+00  0.10566000000E+00 0. -1.
     999900   -1    0    0    0    0 -0.00000000000E+00 -0.00000000000E+00 -0.74505805969E-08  0.93827000000E+00  0.93827000000E+00 0. -1.
     999902    2    1    2    0    0 -0.15311760131E-01 -0.12602331059E-01 -0.13162390961E-01  0.10201283765E+01  0.10198506691E+01 0.  0.
     999903    2    3    3    0    0  0.12799959340E-01 -0.12426970424E-01  0.12592431792E+00  0.12876121750E+00  0.20105937803E-01 0.  0.
         14    1    1    2    0    0  0.15311760131E-01  0.12602331059E-01  0.13162390961E-01  0.23801623520E-01  0.00000000000E+00 0. -1.
     999901    1    3    3    0    0 -0.28111719470E-01 -0.17536063475E-03 -0.13908670888E+00  0.89136715898E+00  0.88000000000E+00 0. -1.
        -11    1    4    4    0    0  0.12413810965E-01 -0.16635092621E-02  0.34564633123E-01  0.36767444155E-01  0.51100000000E-03 0.  1.
         11    1    4    4    0    0  0.38614837503E-03 -0.10763461162E-01  0.91359684797E-01  0.91993773343E-01  0.51100000000E-03 0. -1.
</event>
<event>
 8    1  0.1081309E+005  0.1043930E+01  0.7957747E-01            NaN
         13   -1    0    0    0    0  0.00000000000E+00  0.00000000000E+00  0.74505805969E-08  0.10566000000E+00  0.10566000000E+00 0.  1.
     999900   -1    0    0    0    0 -0.00000000000E+00 -0.00000000000E+00 -0.74505805969E-08  0.93827000000E+00  0.93827000000E+00 0.  1.
     999902    2    1    2    0    0 -0.11651563605E-01 -0.21269001968E-01  0.48530563077E-02  0.10191978037E+01  0.10188976796E+01 0.  0.
     999903    2    3    3    0    0 -0.92246356362E-01 -0.71600292566E-01 -0.58766287138E-01  0.13179925720E+00  0.16780212688E-01 0.  0.
         14    1    1    2    0    0  0.11651563605E-01  0.21269001968E-01 -0.48530563077E-02  0.24732196318E-01  0.00000000000E+00 0.  1.
     999901    1    3    3    0    0  0.80594792757E-01  0.50331290597E-01  0.63619343446E-01  0.88739854648E+00  0.88000000000E+00 0. -1.
        -11    1    4    4    0    0 -0.61296602886E-01 -0.55532362771E-01 -0.36400993482E-01  0.90368192899E-01  0.51100000000E-03 0. -1.
         11    1    4    4    0    0 -0.30949753476E-01 -0.16067929795E-01 -0.22365293656E-01  0.41431064305E-01  0.51100000000E-03 0.  1.
</event>
<event>
 8    1  0.1081309E+005  0.1043930E+01  0.7957747E-01            NaN
         13   -1    0    0    0    0  0.00000000000E+00  0.00000000000E+00  0.74505805969E-08  0.10566000000E+00  0.10566000000E+00 0.  1.
     999900   -1    0    0    0    0 -0.00000000000E+00 -0.00000000000E+00 -0.74505805969E-08  0.93827000000E+00  0.93827000000E+00 0. -1.
     999902    2    1    2    0    0  0.14171032681E-02 -0.19396169383E-01 -0.14152769538E-01  0.10198775479E+01  0.10195938859E+01 0.  0.
     999903    2    3    3    0    0 -0.50756848721E-02 -0.79019196999E-01 -0.10528492432E+00  0.13314075977E+00  0.19280833787E-01 0.  0.
         14    1    1    2    0    0 -0.14171032681E-02  0.19396169383E-01  0.14152769538E-01  0.24052452141E-01  0.00000000000E+00 0.  1.
     999901    1    3    3    0    0  0.64927881403E-02  0.59623027617E-01  0.91132154780E-01  0.88673678809E+00  0.88000000000E+00 0.  1.
        -11    1    4    4    0    0 -0.11998679512E-01 -0.36880674036E-01 -0.50623713646E-01  0.63774398717E-01  0.51100000000E-03 0. -1.
         11    1    4    4    0    0  0.69229946394E-02 -0.42138522964E-01 -0.54661210672E-01  0.69366361051E-01  0.51100000000E-03 0.  1.
</event>
<event>
 8    1  0.1081309E+005  0.1043930E+01  0.7957747E-01            NaN
         13   -1    0    0    0    0  0.00000000000E+00  0.00000000000E+00  0.74505805969E-08  0.10566000000E+00  0.10566000000E+00 0.  1.
     999900   -1    0    0    0    0 -0.00000000000E+00 -0.00000000000E+00 -0.74505805969E-08  0.93827000000E+00  0.93827000000E+00 0. -1.
     999902    2    1    2    0    0 -0.11379681695E-01 -0.12302670367E-01  0.16955346025E-01  0.10200901885E+01  0.10198115787E+01 0.  0.
     999903    2    3    3    0    0 -0.11430879088E+00  0.27554405999E-01  0.57104115430E-01  0.13228676896E+00  0.20326442917E-01 0.  0.
         14    1    1    2    0    0  0.11379681695E-01  0.12302670367E-01 -0.16955346025E-01  0.23839811502E-01  0.00000000000E+00 0. -1.
     999901    1    3    3    0    0  0.10292910918E+00 -0.39857076366E-01 -0.40148769406E-01  0.88780341954E+00  0.88000000000E+00 0.  1.
        -11    1    4    4    0    0 -0.74899315569E-01  0.18650291937E-01  0.47909355958E-01  0.90847720783E-01  0.51100000000E-03 0.  1.
         11    1    4    4    0    0 -0.39409475309E-01  0.89041140617E-02  0.91947594717E-02  0.41439048180E-01  0.51100000000E-03 0. -1.
</event>
<event>
 8    1  0.1081309E+005  0.1043930E+01  0.7957747E-01            NaN
         13   -1    0    0    0    0  0.00000000000E+00  0.00000000000E+00  0.74505805969E-08  0.10566000000E+00  0.10566000000E+00 0. -1.
     999900   -1    0    0    0    0 -0.00000000000E+00 -0.00000000000E+00 -0.74505805969E-08  0.93827000000E+00  0.93827000000E+00 0. -1.
     999902    2    1    2    0    0 -0.14265559610E-01 -0.84789784896E-02 -0.17419530761E-01  0.10198709202E+01  0.10195871001E+01 0.  0.
     999903    2    3    3    0    0  0.11747320127E+00 -0.41950903319E-01  0.24542819190E-01  0.12844716596E+00  0.18343749976E-01 0.  0.
         14    1    1    2    0    0  0.14265559610E-01  0.84789784896E-02  0.17419530761E-01  0.24059079765E-01  0.00000000000E+00 0. -1.
     999901    1    3    3    0    0 -0.13173876088E+00  0.33471924829E-01 -0.41962349951E-01  0.89142375427E+00  0.88000000000E+00 0.  1.
        -11    1    4    4    0    0  0.52933869164E-01 -0.10666756350E-01  0.15330476863E-01  0.56134292884E-01  0.51100000000E-03 0.  1.
         11    1    4    4    0    0  0.64539332108E-01 -0.31284146969E-01  0.92123423278E-02  0.72312873077E-01  0.51100000000E-03 0. -1.
</event>
<event>
 8    1  0.1081309E+005  0.1043930E+01  0.7957747E-01            NaN
         13   -1    0    0    0    0  0.00000000000E+00  0.00000000000E+00  0.74505805969E-08  0.10566000000E+00  0.10566000000E+00 0. -1.
     999900   -1    0    0    0    0 -0.00000000000E+00 -0.00000000000E+00 -0.74505805969E-08  0.93827000000E+00  0.93827000000E+00 0. -1.
     999902    2    1    2    0    0  0.22132927502E-01  0.13119106218E-01 -0.41295419533E-02  0.10178717855E+01  0.10175381767E+01 0.  0.
     999903    2    3    3    0    0 -0.44529576604E-01  0.36902934871E-01 -0.11284249733E+00  0.12836177056E+00  0.19965098087E-01 0.  0.
         14    1    1    2    0    0 -0.22132927502E-01 -0.13119106218E-01  0.41295419533E-02  0.26058214531E-01  0.00000000000E+00 0. -1.
     999901    1    3    3    0    0  0.66662504107E-01 -0.23783828653E-01  0.10871295538E+00  0.88951001491E+00  0.88000000000E+00 0.  1.
        -11    1    4    4    0    0 -0.23748463551E-01  0.78783687045E-02 -0.54348412047E-01  0.59833679709E-01  0.51100000000E-03 0. -1.
         11    1    4    4    0    0 -0.20781113054E-01  0.29024566167E-01 -0.58494085287E-01  0.68528090849E-01  0.51100000000E-03 0.  1.
</event>
<event>
 8    1  0.1081309E+005  0.1043930E+01  0.7957747E-01            NaN
         13   -1    0    0    0    0  0.00000000000E+00  0.00000000000E+00  0.74505805969E-08  0.10566000000E+00  0.10566000000E+00 0.  1.
     999900   -1    0    0    0    0 -0.00000000000E+00 -0.00000000000E+00 -0.74505805969E-08  0.93827000000E+00  0.93827000000E+00 0. -1.
     999902    2    1    2    0    0  0.22757921602E-01 -0.38502933432E-03  0.55671678912E-02  0.10204978724E+01  0.10202288190E+01 0.  0.
     999903    2    3    3    0    0 -0.10294097223E+00  0.52382303398E-01 -0.51957159544E-01  0.12814499855E+00  0.19515244072E-01 0.  0.
         14    1    1    2    0    0 -0.22757921602E-01  0.38502933432E-03 -0.55671678912E-02  0.23432127551E-01  0.00000000000E+00 0.  1.
     999901    1    3    3    0    0  0.12569889383E+00 -0.52767332733E-01  0.57524327435E-01  0.89235287390E+00  0.88000000000E+00 0. -1.
        -11    1    4    4    0    0 -0.25325505866E-01  0.53327894543E-02 -0.67788134089E-02  0.26758798982E-01  0.51100000000E-03 0.  1.
         11    1    4    4    0    0 -0.77615466366E-01  0.47049513944E-01 -0.45178346135E-01  0.10138619956E+00  0.51100000000E-03 0. -1.
</event>
<event>
 8    1  0.1081309E+005  0.1043930E+01  0.7957747E-01            NaN
         13   -1    0    0    0    0  0.00000000000E+00  0.00000000000E+00  0.74505805969E-08  0.10566000000E+00  0.10566000000E+00 0.  1.
     999900   -1    0    0    0    0 -0.00000000000E+00 -0.00000000000E+00 -0.74505805969E-08  0.93827000000E+00  0.93827000000E+00 0. -1.
     999902    2    1    2    0    0 -0.55463458405E-02  0.80683774223E-02  0.21315541947E-01  0.10204733806E+01  0.10202037578E+01 0.  0.
     999903    2    3    3    0    0  0.35683393784E-01 -0.82326929849E-01  0.94380987008E-01  0.13187349183E+00  0.20780259137E-01 0.  0.
         14    1    1    2    0    0  0.55463458405E-02 -0.80683774223E-02 -0.21315541947E-01  0.23456619426E-01  0.00000000000E+00 0. -1.
     999901    1    3    3    0    0 -0.41229739625E-01  0.90395307271E-01 -0.73065445061E-01  0.88859988874E+00  0.88000000000E+00 0. -1.
        -11    1    4    4    0    0  0.25100162668E-01 -0.49056526993E-01  0.43713048101E-01  0.70339552898E-01  0.51100000000E-03 0. -1.
         11    1    4    4    0    0  0.10583231116E-01 -0.33270402855E-01  0.50667938906E-01  0.61533938936E-01  0.51100000000E-03 0.  1.
</event>
<event>
 8    1  0.1081309E+005  0.1043930E+01  0.7957747E-01            NaN
         13   -1    0    0    0    0  0.00000000000E+00  0.00000000000E+00  0.74505805969E-08  0.10566000000E+00  0.10566000000E+00 0.  1.
     999900   -1    0    0    0    0 -0.00000000000E+00 -0.00000000000E+00 -0.74505805969E-08  0.93827000000E+00  0.93827000000E+00 0.  1.
     999902    2    1    2    0    0 -0.13390531265E-01  0.18503829591E-01  0.46109363861E-02  0.10206285243E+01  0.10203624972E+01 0.  0.
     999903    2    3    3    0    0 -0.95926091815E-01 -0.62820311495E-02  0.88360361186E-01  0.13246163465E+00  0.22299152892E-01 0.  0.
         14    1    1    2    0    0  0.13390531265E-01 -0.18503829591E-01 -0.46109363861E-02  0.23301475736E-01  0.00000000000E+00 0. -1.
     999901    1    3    3    0    0  0.82535560550E-01  0.24785860741E-01 -0.83749424799E-01  0.88816688961E+00  0.88000000000E+00 0. -1.
        -11    1    4    4    0    0 -0.19697141610E-01 -0.48068567404E-05  0.73048189779E-02  0.21014254972E-01  0.51100000000E-03 0. -1.
         11    1    4    4    0    0 -0.76228950205E-01 -0.62772242927E-02  0.81055542208E-01  0.11144737968E+00  0.51100000000E-03 0.  1.
</event>
<event>
 8    1  0.1081309E+005  0.1043930E+01  0.7957747E-01            NaN
         13   -1    0    0    0    0  0.00000000000E+00  0.00000000000E+00  0.74505805969E-08  0.10566000000E+00  0.10566000000E+00 0.  1.
     999900   -1    0    0    0    0 -0.00000000000E+00 -0.00000000000E+00 -0.74505805969E-08  0.93827000000E+00  0.93827000000E+00 0.  1.
     999902    2    1    2    0    0 -0.50766897398E-03 -0.16823806114E-01 -0.20071151008E-01  0.10177355486E+01  0.10173983967E+01 0.  0.
     999903    2    3    3    0    0 -0.30306427369E-01  0.85470688544E-01  0.83992288718E-01  0.12522149881E+00  0.20049964068E-01 0.  0.
         14    1    1    2    0    0  0.50766897398E-03  0.16823806114E-01  0.20071151008E-01  0.26194451373E-01  0.00000000000E+00 0.  1.
     999901    1    3    3    0    0  0.29798758395E-01 -0.10229449466E+00 -0.10406343973E+00  0.89251404982E+00  0.88000000000E+00 0. -1.
        -11    1    4    4    0    0 -0.27283458223E-01  0.48901425910E-01  0.46926093515E-01  0.73062000535E-01  0.51100000000E-03 0. -1.
         11    1    4    4    0    0 -0.30229691460E-02  0.36569262634E-01  0.37066195204E-01  0.52159498272E-01  0.51100000000E-03 0.  1.
</event>
<event>
 8    1  0.1081309E+005  0.1043930E+01  0.7957747E-01            NaN
         13   -1    0    0    0    0  0.00000000000E+00  0.00000000000E+00  0.74505805969E-08  0.10566000000E+00  0.10566000000E+00 0.  1.
     999900   -1    0    0    0    0 -0.00000000000E+00 -0.00000000000E+00 -0.74505805969E-08  0.93827000000E+00  0.93827000000E+00 0. -1.
     999902    2    1    2    0    0  0.20028415120E-01 -0.10224527364E-01 -0.71088794860E-03  0.10214314726E+01  0.10211836610E+01 0.  0.
     999903    2    3    3    0    0  0.31439591798E-01  0.11418382401E+00 -0.52942283038E-01  0.13107436929E+00  0.18740633731E-01 0.  0.
         14    1    1    2    0    0 -0.20028415120E-01  0.10224527364E-01  0.71088794860E-03  0.22498527367E-01  0.00000000000E+00 0. -1.
     999901    1    3    3    0    0 -0.11411176678E-01 -0.12440835137E+00  0.52231395089E-01  0.89035710335E+00  0.88000000000E+00 0.  1.
        -11    1    4    4    0    0  0.17301398196E-01  0.31077505415E-01 -0.17102698545E-01  0.39470408420E-01  0.51100000000E-03 0.  1.
         11    1    4    4    0    0  0.14138193602E-01  0.83106318596E-01 -0.35839584492E-01  0.91603960867E-01  0.51100000000E-03 0. -1.
</event>
<event>
 8    1  0.1081309E+005  0.1043930E+01  0.7957747E-01            NaN
         13   -1    0    0    0    0  0.00000000000E+00  0.00000000000E+00  0.74505805969E-08  0.10566000000E+00  0.10566000000E+00 0.  1.
     999900   -1    0    0    0    0 -0.00000000000E+00 -0.00000000000E+00 -0.74505805969E-08  0.93827000000E+00  0.93827000000E+00 0.  1.
     999902    2    1    2    0    0 -0.11723946602E-01 -0.14927264989E-01  0.20409564825E-01  0.10160584285E+01  0.10156760830E+01 0.  0.
     999903    2    3    3    0    0 -0.11699758697E+00 -0.49916407627E-01 -0.43417043446E-02  0.12874822070E+00  0.19420886446E-01 0.  0.
         14    1    1    2    0    0  0.11723946602E-01  0.14927264989E-01 -0.20409564825E-01  0.27871571544E-01  0.00000000000E+00 0. -1.
     999901    1    3    3    0    0  0.10527364037E+00  0.34989142638E-01  0.24751269170E-01  0.88731020775E+00  0.88000000000E+00 0. -1.
        -11    1    4    4    0    0 -0.73425008967E-01 -0.40913519930E-01 -0.55168006404E-02  0.84236834373E-01  0.51100000000E-03 0. -1.
         11    1    4    4    0    0 -0.43572578002E-01 -0.90028876971E-02  0.11750962958E-02  0.44511386329E-01  0.51100000000E-03 0.  1.
</event>
<event>
 8    1  0.1081309E+005  0.1043930E+01  0.7957747E-01            NaN
         13   -1    0    0    0    0  0.00000000000E+00  0.00000000000E+00  0.74505805969E-08  0.10566000000E+00  0.10566000000E+00 0. -1.
     999900   -1    0    0    0    0 -0.00000000000E+00 -0.00000000000E+00 -0.74505805969E-08  0.93827000000E+00  0.93827000000E+00 0.  1.
     999902    2    1    2    0    0 -0.11144368305E-01  0.41220286682E-02 -0.20005487239E-01  0.10206618332E+01  0.10203965750E+01 0.  0.
     999903    2    3    3    0    0 -0.88626571581E-01  0.75717895984E-01 -0.62093364909E-01  0.13336208146E+00  0.18492967403E-01 0.  0.
         14    1    1    2    0    0  0.11144368305E-01 -0.41220286682E-02  0.20005487239E-01  0.23268166772E-01  0.00000000000E+00 0. -1.
     999901    1    3    3    0    0  0.77482203275E-01 -0.71595867316E-01  0.42087877670E-01  0.88729975177E+00  0.88000000000E+00 0. -1.
        -11    1    4    4    0    0 -0.47971970150E-01  0.30891875772E-01 -0.35932771043E-01  0.67431765991E-01  0.51100000000E-03 0. -1.
         11    1    4    4    0    0 -0.40654601431E-01  0.44826020212E-01 -0.26160593865E-01  0.65930315469E-01  0.51100000000E-03 0.  1.
</event>
<event>
 8    1  0.1081309E+005  0.1043930E+01  0.7957747E-01            NaN
         13   -1    0    0    0    0  0.00000000000E+00  0.00000000000E+00  0.74505805969E-08  0.10566000000E+00  0.10566000000E+00 0.  1.
     999900   -1    0    0    0    0 -0.00000000000E+00 -0.00000000000E+00 -0.74505805969E-08  0.93827000000E+00  0.93827000000E+00 0. -1.
     999902    2    1    2    0    0 -0.12794580616E-01  0.11140376154E-01 -0.18981322530E-01  0.10184721941E+01  0.10181539718E+01 0.  0.
     999903    2    3    3    0    0  0.88192902206E-01  0.87683509577E-01 -0.29534630391E-01  0.12933289388E+00  0.19705765566E-01 0.  0.
         14    1    1    2    0    0  0.12794580616E-01 -0.11140376154E-01  0.18981322530E-01  0.25457805856E-01  0.00000000000E+00 0.  1.
     999901    1    3    3    0    0 -0.10098748282E+00 -0.76543133423E-01  0.10553307861E-01  0.88913930026E+00  0.88000000000E+00 0. -1.
        -11    1    4    4    0    0  0.11264003499E-01  0.93516296024E-02  0.27244911620E-02  0.14900158527E-01  0.51100000000E-03 0. -1.
         11    1    4    4    0    0  0.76928898707E-01  0.78331879975E-01 -0.32259121553E-01  0.11443273536E+00  0.51100000000E-03 0.  1.
</event>
<event>
 8    1  0.1081309E+005  0.1043930E+01  0.7957747E-01            NaN
         13   -1    0    0    0    0  0.00000000000E+00  0.00000000000E+00  0.74505805969E-08  0.10566000000E+00  0.10566000000E+00 0.  1.
     999900   -1    0    0    0    0 -0.00000000000E+00 -0.00000000000E+00 -0.74505805969E-08  0.93827000000E+00  0.93827000000E+00 0.  1.
     999902    2    1    2    0    0 -0.16769908847E-01  0.14790840676E-01 -0.25349601403E-01  0.10101276169E+01  0.10095618858E+01 0.  0.
     999903    2    3    3    0    0  0.83017736446E-01 -0.75155041048E-01  0.30774887095E-01  0.11816472868E+00  0.21807903796E-01 0.  0.
         14    1    1    2    0    0  0.16769908847E-01 -0.14790840676E-01  0.25349601403E-01  0.33802383081E-01  0.00000000000E+00 0.  1.
     999901    1    3    3    0    0 -0.99787645294E-01  0.89945881723E-01 -0.56124488498E-01  0.89196288824E+00  0.88000000000E+00 0.  1.
        -11    1    4    4    0    0  0.60808802547E-01 -0.54896728941E-01  0.12208704400E-01  0.82829191109E-01  0.51100000000E-03 0.  1.
         11    1    4    4    0    0  0.22208933899E-01 -0.20258312107E-01  0.18566182695E-01  0.35335537568E-01  0.51100000000E-03 0. -1.
</event>
<event>
 8    1  0.1081309E+005  0.1043930E+01  0.7957747E-01            NaN
         13   -1    0    0    0    0  0.00000000000E+00  0.00000000000E+00  0.74505805969E-08  0.10566000000E+00  0.10566000000E+00 0. -1.
     999900   -1    0    0    0    0 -0.00000000000E+00 -0.00000000000E+00 -0.74505805969E-08  0.93827000000E+00  0.93827000000E+00 0. -1.
     999902    2    1    2    0    0  0.82119938320E-02 -0.48252319774E-02  0.21063015490E-01  0.10208135485E+01  0.10205517775E+01 0.  0.
     999903    2    3    3    0    0 -0.75565255385E-02  0.12284340529E+00  0.40643618494E-01  0.13124549204E+00  0.20636670135E-01 0.  0.
         14    1    1    2    0    0 -0.82119938320E-02  0.48252319774E-02 -0.21063015490E-01  0.23116451455E-01  0.00000000000E+00 0.  1.
     999901    1    3    3    0    0  0.15768519371E-01 -0.12766863727E+00 -0.19580603004E-01  0.88956805651E+00  0.88000000000E+00 0. -1.
        -11    1    4    4    0    0  0.51593626534E-02  0.62643850594E-01  0.15250531514E-01  0.64681611550E-01  0.51100000000E-03 0. -1.
         11    1    4    4    0    0 -0.12715888192E-01  0.60199554697E-01  0.25393086981E-01  0.66563880488E-01  0.51100000000E-03 0.  1.
</event>
<event>
 8    1  0.1142456E+005  0.1043930E+01  0.7957747E-01            NaN
         13   -1    0    0    0    0  0.00000000000E+00  0.00000000000E+00  0.74505805969E-08  0.10566000000E+00  0.10566000000E+00 0. -1.
     999900   -1    0    0    0    0 -0.00000000000E+00 -0.00000000000E+00 -0.74505805969E-08  0.93827000000E+00  0.93827000000E+00 0. -1.
     999902    2    1    2    0    0  0.72311527544E-02  0.30928109559E-02 -0.22347516230E-01  0.10202389356E+01  0.10199638323E+01 0.  0.
     999903    2    3    3    0    0  0.10621584705E-01  0.13202047816E-01 -0.13123092646E+00  0.13346428064E+00  0.17436915409E-01 0.  0.
         14    1    1    2    0    0 -0.72311527544E-02 -0.30928109559E-02  0.22347516230E-01  0.23691064379E-01  0.00000000000E+00 0. -1.
     999901    1    3    3    0    0 -0.33904319509E-02 -0.10109236860E-01  0.10888341023E+00  0.88677465498E+00  0.88000000000E+00 0.  1.
        -11    1    4    4    0    0  0.84526559792E-02 -0.16761320110E-02 -0.63406284186E-01  0.63991208825E-01  0.51100000000E-03 0.  1.
         11    1    4    4    0    0  0.21689287260E-02  0.14878179827E-01 -0.67824642272E-01  0.69473071812E-01  0.51100000000E-03 0. -1.
</event>
<event>
 8    1  0.1081309E+005  0.1043930E+01  0.7957747E-01            NaN
         13   -1    0    0    0    0  0.00000000000E+00  0.00000000000E+00  0.74505805969E-08  0.10566000000E+00  0.10566000000E+00 0. -1.
     999900   -1    0    0    0    0 -0.00000000000E+00 -0.00000000000E+00 -0.74505805969E-08  0.93827000000E+00  0.93827000000E+00 0. -1.
     999902    2    1    2    0    0  0.11883550042E-01  0.20278417842E-01 -0.44098479077E-02  0.10200159926E+01  0.10197356252E+01 0.  0.
     999903    2    3    3    0    0 -0.98113731713E-01  0.53107603643E-01  0.63581363773E-01  0.12995983577E+00  0.20006178504E-01 0.  0.
         14    1    1    2    0    0 -0.11883550042E-01 -0.20278417842E-01  0.44098479077E-02  0.23914007409E-01  0.00000000000E+00 0. -1.
     999901    1    3    3    0    0  0.10999728175E+00 -0.32829185801E-01 -0.67991211681E-01  0.89005615682E+00  0.88000000000E+00 0. -1.
        -11    1    4    4    0    0 -0.33244445303E-01  0.24888188810E-01  0.15070105570E-01  0.44181266263E-01  0.51100000000E-03 0. -1.
         11    1    4    4    0    0 -0.64869286410E-01  0.28219414833E-01  0.48511258203E-01  0.85778569505E-01  0.51100000000E-03 0.  1.
</event>
<event>
 8    1  0.1081309E+005  0.1043930E+01  0.7957747E-01            NaN
         13   -1    0    0    0    0  0.00000000000E+00  0.00000000000E+00  0.74505805969E-08  0.10566000000E+00  0.10566000000E+00 0. -1.
     999900   -1    0    0    0    0 -0.00000000000E+00 -0.00000000000E+00 -0.74505805969E-08  0.93827000000E+00  0.93827000000E+00 0. -1.
     999902    2    1    2    0    0  0.89904611778E-02  0.21067170908E-01  0.10231652871E-02  0.10210018307E+01  0.10207443545E+01 0.  0.
     999903    2    3    3    0    0  0.34932088616E-01  0.16427165748E-01  0.12460910694E+00  0.13197540661E+00  0.19999395697E-01 0.  0.
         14    1    1    2    0    0 -0.89904611778E-02 -0.21067170908E-01 -0.10231652871E-02  0.22928169344E-01  0.00000000000E+00 0. -1.
     999901    1    3    3    0    0 -0.25941627438E-01  0.46400051603E-02 -0.12358594165E+00  0.88902642405E+00  0.88000000000E+00 0. -1.
        -11    1    4    4    0    0  0.17998639762E-01  0.19931669507E-02  0.81165131739E-01  0.83162271968E-01  0.51100000000E-03 0.  1.
         11    1    4    4    0    0  0.16933448853E-01  0.14433998797E-01  0.43443975198E-01  0.48813134640E-01  0.51100000000E-03 0. -1.
</event>
<event>
 8    1  0.1081309E+005  0.1043930E+01  0.7957747E-01            NaN
         13   -1    0    0    0    0  0.00000000000E+00  0.00000000000E+00  0.74505805969E-08  0.10566000000E+00  0.10566000000E+00 0.  1.
     999900   -1    0    0    0    0 -0.00000000000E+00 -0.00000000000E+00 -0.74505805969E-08  0.93827000000E+00  0.93827000000E+00 0. -1.
     999902    2    1    2    0    0 -0.16345755022E-01 -0.13711540383E-02 -0.17007450047E-01  0.10203012648E+01  0.10200276240E+01 0.  0.
     999903    2    3    3    0    0  0.82437607648E-01 -0.55108422468E-01  0.78559067026E-01  0.12801274310E+00  0.19566246473E-01 0.  0.
         14    1    1    2    0    0  0.16345755022E-01  0.13711540383E-02  0.17007450047E-01  0.23628735212E-01  0.00000000000E+00 0.  1.
     999901    1    3    3    0    0 -0.98783362670E-01  0.53737268430E-01 -0.95566517073E-01  0.89228852169E+00  0.88000000000E+00 0. -1.
        -11    1    4    4    0    0  0.21529332782E-01 -0.17266086051E-01  0.11731079040E-01  0.29991819452E-01  0.51100000000E-03 0. -1.
         11    1    4    4    0    0  0.60908274866E-01 -0.37842336417E-01  0.66827987986E-01  0.98020923644E-01  0.51100000000E-03 0.  1.
</event>
<event>
 8    1  0.1081309E+005  0.1043930E+01  0.7957747E-01            NaN
         13   -1    0    0    0    0  0.00000000000E+00  0.00000000000E+00  0.74505805969E-08  0.10566000000E+00  0.10566000000E+00 0. -1.
     999900   -1    0    0    0    0 -0.00000000000E+00 -0.00000000000E+00 -0.74505805969E-08  0.93827000000E+00  0.93827000000E+00 0. -1.
     999902    2    1    2    0    0  0.73580597227E-02  0.20384592781E-01 -0.65759544130E-02  0.10212823546E+01  0.10210312101E+01 0.  0.
     999903    2    3    3    0    0 -0.41655158425E-01  0.11248685134E+00 -0.55587164332E-01  0.13376490672E+00  0.20363533185E-01 0.  0.
         14    1    1    2    0    0 -0.73580597227E-02 -0.20384592781E-01  0.65759544130E-02  0.22647645401E-01  0.00000000000E+00 0. -1.
     999901    1    3    3    0    0  0.49013218148E-01 -0.92102258562E-01  0.49011209919E-01  0.88751744788E+00  0.88000000000E+00 0. -1.
        -11    1    4    4    0    0 -0.21870362841E-01  0.79023943145E-01 -0.44714385634E-01  0.93395576794E-01  0.51100000000E-03 0. -1.
         11    1    4    4    0    0 -0.19784795584E-01  0.33462908199E-01 -0.10872778698E-01  0.40369329930E-01  0.51100000000E-03 0.  1.
</event>
<event>
 8    1  0.1081309E+005  0.1043930E+01  0.7957747E-01            NaN
         13   -1    0    0    0    0  0.00000000000E+00  0.00000000000E+00  0.74505805969E-08  0.10566000000E+00  0.10566000000E+00 0. -1.
     999900   -1    0    0    0    0 -0.00000000000E+00 -0.00000000000E+00 -0.74505805969E-08  0.93827000000E+00  0.93827000000E+00 0. -1.
     999902    2    1    2    0    0  0.21898101151E-01  0.94086052083E-02  0.65361529317E-02  0.10192162390E+01  0.10189165677E+01 0.  0.
     999903    2    3    3    0    0  0.11715620691E+00 -0.29343287193E-01  0.49445007162E-01  0.13218919004E+00  0.21037298025E-01 0.  0.
         14    1    1    2    0    0 -0.21898101151E-01 -0.94086052083E-02 -0.65361529317E-02  0.24713760967E-01  0.00000000000E+00 0.  1.
     999901    1    3    3    0    0 -0.95258105761E-01  0.38751892401E-01 -0.42908854230E-01  0.88702704900E+00  0.88000000000E+00 0.  1.
        -11    1    4    4    0    0  0.37412275401E-01 -0.85259758926E-02  0.54379393843E-02  0.38758262621E-01  0.51100000000E-03 0. -1.
         11    1    4    4    0    0  0.79743931511E-01 -0.20817311300E-01  0.44007067778E-01  0.93430927417E-01  0.51100000000E-03 0.  1.
</event>
<event>
 8    1  0.1081309E+005  0.1043930E+01  0.7957747E-01            NaN
         13   -1    0    0    0    0  0.00000000000E+00  0.00000000000E+00  0.74505805969E-08  0.10566000000E+00  0.10566000000E+00 0. -1.
     999900   -1    0    0    0    0 -0.00000000000E+00 -0.00000000000E+00 -0.74505805969E-08  0.93827000000E+00  0.93827000000E+00 0. -1.
     999902    2    1    2    0    0 -0.19698654777E-03  0.21857339282E-01  0.78437271521E-02  0.10207070342E+01  0.10204428174E+01 0.  0.
     999903    2    3    3    0    0 -0.93094234645E-01  0.91939583894E-01 -0.11216374737E-01  0.13284178138E+00  0.20042659664E-01 0.  0.
         14    1    1    2    0    0  0.19698654777E-03 -0.21857339282E-01 -0.78437271521E-02  0.23222965785E-01  0.00000000000E+00 0.  1.
     999901    1    3    3    0    0  0.92897248097E-01 -0.70082244611E-01  0.19060101889E-01  0.88786525284E+00  0.88000000000E+00 0. -1.
        -11    1    4    4    0    0 -0.56847462099E-01  0.68217525637E-01 -0.37412389713E-02  0.88879259342E-01  0.51100000000E-03 0. -1.
         11    1    4    4    0    0 -0.36246772546E-01  0.23722058257E-01 -0.74751357652E-02  0.43962522035E-01  0.51100000000E-03 0.  1.
</event>
<event>
 8    1  0.1081309E+005  0.1043930E+01  0.7957747E-01            NaN
         13   -1    0    0    0    0  0.00000000000E+00  0.00000000000E+00  0.74505805969E-08  0.10566000000E+00  0.10566000000E+00 0.  1.
     999900   -1    0    0    0    0 -0.00000000000E+00 -0.00000000000E+00 -0.74505805969E-08  0.93827000000E+00  0.93827000000E+00 0. -1.
     999902    2    1    2    0    0 -0.16268196105E-01 -0.16576817738E-01  0.57633780401E-03  0.10206968931E+01  0.10204324428E+01 0.  0.
     999903    2    3    3    0    0 -0.10405484497E+00  0.89121037558E-02 -0.78825784149E-01  0.13240590598E+00  0.20272723921E-01 0.  0.
         14    1    1    2    0    0  0.16268196105E-01  0.16576817738E-01 -0.57633780401E-03  0.23233106897E-01  0.00000000000E+00 0.  1.
     999901    1    3    3    0    0  0.87786648868E-01 -0.25488921494E-01  0.79402121953E-01  0.88829098713E+00  0.88000000000E+00 0.  1.
        -11    1    4    4    0    0 -0.31851461819E-01  0.12031804523E-01 -0.27347237106E-01  0.43673933168E-01  0.51100000000E-03 0.  1.
         11    1    4    4    0    0 -0.72203383155E-01 -0.31197007676E-02 -0.51478547043E-01  0.88731972808E-01  0.51100000000E-03 0. -1.
</event>
<event>
 8    1  0.1081309E+005  0.1043930E+01  0.7957747E-01            NaN
         13   -1    0    0    0    0  0.00000000000E+00  0.00000000000E+00  0.74505805969E-08  0.10566000000E+00  0.10566000000E+00 0.  1.
     999900   -1    0    0    0    0 -0.00000000000E+00 -0.00000000000E+00 -0.74505805969E-08  0.93827000000E+00  0.93827000000E+00 0. -1.
     999902    2    1    2    0    0 -0.20067035037E-01 -0.11635239400E-01 -0.57539643881E-03  0.10207266431E+01  0.10204628774E+01 0.  0.
     999903    2    3    3    0    0  0.69002579930E-01 -0.32325048381E-01 -0.10348630443E+00  0.13002348294E+00  0.19759203460E-01 0.  0.
         14    1    1    2    0    0  0.20067035037E-01  0.11635239400E-01  0.57539643881E-03  0.23203356915E-01  0.00000000000E+00 0. -1.
     999901    1    3    3    0    0 -0.89069614967E-01  0.20689808981E-01  0.10291090799E+00  0.89070316014E+00  0.88000000000E+00 0.  1.
        -11    1    4    4    0    0  0.18826172167E-01 -0.16244526920E-01 -0.23342874090E-01  0.34109533932E-01  0.51100000000E-03 0.  1.
         11    1    4    4    0    0  0.50176407763E-01 -0.16080521461E-01 -0.80143430342E-01  0.95913949009E-01  0.51100000000E-03 0. -1.
</event>
<event>
 8    1  0.1081309E+005  0.1043930E+01  0.7957747E-01            NaN
         13   -1    0    0    0    0  0.00000000000E+00  0.00000000000E+00  0.74505805969E-08  0.10566000000E+00  0.10566000000E+00 0. -1.
     999900   -1    0    0    0    0 -0.00000000000E+00 -0.00000000000E+00 -0.74505805969E-08  0.93827000000E+00  0.93827000000E+00 0.  1.
     999902    2    1    2    0    0  0.13784335991E-02 -0.19629691425E-01  0.13889452853E-01  0.10198438678E+01  0.10195594014E+01 0.  0.
     999903    2    3    3    0    0 -0.98089860230E-01 -0.65190206140E-01 -0.52845019956E-01  0.13056146503E+00  0.19552911832E-01 0.  0.
         14    1    1    2    0    0 -0.13784335991E-02  0.19629691425E-01 -0.13889452853E-01  0.24086132217E-01  0.00000000000E+00 0. -1.
     999901    1    3    3    0    0  0.99468293829E-01  0.45560514715E-01  0.66734472809E-01  0.88928240275E+00  0.88000000000E+00 0. -1.
        -11    1    4    4    0    0 -0.55534176968E-01 -0.29852070763E-01 -0.19621734344E-01  0.66033813459E-01  0.51100000000E-03 0.  1.
         11    1    4    4    0    0 -0.42555683262E-01 -0.35338135378E-01 -0.33223285612E-01  0.64527651574E-01  0.51100000000E-03 0. -1.
</event>
<event>
 8    1  0.1081309E+005  0.1043930E+01  0.7957747E-01            NaN
         13   -1    0    0    0    0  0.00000000000E+00  0.00000000000E+00  0.74505805969E-08  0.10566000000E+00  0.10566000000E+00 0.  1.
     999900   -1    0    0    0    0 -0.00000000000E+00 -0.00000000000E+00 -0.74505805969E-08  0.93827000000E+00  0.93827000000E+00 0.  1.
     999902    2    1    2    0    0  0.11850925910E-01  0.19338657134E-01 -0.56497851334E-02  0.10205559080E+01  0.10202882010E+01 0.  0.
     999903    2    3    3    0    0  0.48926729322E-01 -0.10541331994E+00  0.55496155189E-01  0.12888528664E+00  0.50794693669E-02 0.  0.
         14    1    1    2    0    0 -0.11850925910E-01 -0.19338657134E-01  0.56497851334E-02  0.23374091997E-01  0.00000000000E+00 0.  1.
     999901    1    3    3    0    0 -0.37075803412E-01  0.12475197707E+00 -0.61145940322E-01  0.89167062136E+00  0.88000000000E+00 0.  1.
        -11    1    4    4    0    0  0.13790513466E-01 -0.35186860058E-01  0.17711517078E-01  0.41740296364E-01  0.51100000000E-03 0. -1.
         11    1    4    4    0    0  0.35136215856E-01 -0.70226459881E-01  0.37784638111E-01  0.87144990276E-01  0.51100000000E-03 0.  1.
</event>
<event>
 8    1  0.1081309E+005  0.1043930E+01  0.7957747E-01            NaN
         13   -1    0    0    0    0  0.00000000000E+00  0.00000000000E+00  0.74505805969E-08  0.10566000000E+00  0.10566000000E+00 0.  1.
     999900   -1    0    0    0    0 -0.00000000000E+00 -0.00000000000E+00 -0.74505805969E-08  0.93827000000E+00  0.93827000000E+00 0. -1.
     999902    2    1    2    0    0 -0.43477027637E-02 -0.16350761414E-01 -0.70083682449E-02  0.10256169679E+01  0.10254534596E+01 0.  0.
     999903    2    3    3    0    0 -0.12026437260E+00 -0.52783202262E-02  0.58878097231E-01  0.13550444716E+00  0.20085937486E-01 0.  0.
         14    1    1    2    0    0  0.43477027637E-02  0.16350761414E-01  0.70083682449E-02  0.18313032070E-01  0.00000000000E+00 0.  1.
     999901    1    3    3    0    0  0.11591666984E+00 -0.11072441188E-01 -0.65886465476E-01  0.89011252077E+00  0.88000000000E+00 0.  1.
        -11    1    4    4    0    0 -0.73960076328E-01  0.65404469194E-02  0.35411491017E-01  0.82262416409E-01  0.51100000000E-03 0.  1.
         11    1    4    4    0    0 -0.46304296274E-01 -0.11818767146E-01  0.23466606214E-01  0.53242030751E-01  0.51100000000E-03 0. -1.
</event>
<event>
 8    1  0.1081309E+005  0.1043930E+01  0.7957747E-01            NaN
         13   -1    0    0    0    0  0.00000000000E+00  0.00000000000E+00  0.74505805969E-08  0.10566000000E+00  0.10566000000E+00 0. -1.
     999900   -1    0    0    0    0 -0.00000000000E+00 -0.00000000000E+00 -0.74505805969E-08  0.93827000000E+00  0.93827000000E+00 0.  1.
     999902    2    1    2    0    0  0.87738921757E-02 -0.80326875930E-02  0.20365697165E-01  0.10203446894E+01  0.10200720653E+01 0.  0.
     999903    2    3    3    0    0 -0.11722356174E+00 -0.11192415137E-01 -0.48312459987E-01  0.12871582519E+00  0.19158190924E-01 0.  0.
         14    1    1    2    0    0 -0.87738921757E-02  0.80326875930E-02 -0.20365697165E-01  0.23585310574E-01  0.00000000000E+00 0.  1.
     999901    1    3    3    0    0  0.12599745392E+00  0.31597275440E-02  0.68678157152E-01  0.89162886424E+00  0.88000000000E+00 0. -1.
        -11    1    4    4    0    0 -0.58498524547E-01 -0.14976205031E-01 -0.26649853150E-01  0.66006362460E-01  0.51100000000E-03 0. -1.
         11    1    4    4    0    0 -0.58725037196E-01  0.37837898935E-02 -0.21662606838E-01  0.62709462729E-01  0.51100000000E-03 0.  1.
</event>
<event>
 8    1  0.1081309E+005  0.1043930E+01  0.7957747E-01            NaN
         13   -1    0    0    0    0  0.00000000000E+00  0.00000000000E+00  0.74505805969E-08  0.10566000000E+00  0.10566000000E+00 0. -1.
     999900   -1    0    0    0    0 -0.00000000000E+00 -0.00000000000E+00 -0.74505805969E-08  0.93827000000E+00  0.93827000000E+00 0. -1.
     999902    2    1    2    0    0  0.13961388816E-01  0.15330594918E-01 -0.12658491565E-01  0.10196362780E+01  0.10193468274E+01 0.  0.
     999903    2    3    3    0    0 -0.11674677125E+00 -0.34884776732E-01 -0.34216507538E-01  0.12830527627E+00  0.21088344798E-01 0.  0.
         14    1    1    2    0    0 -0.13961388816E-01 -0.15330594918E-01  0.12658491565E-01  0.24293721965E-01  0.00000000000E+00 0.  1.
     999901    1    3    3    0    0  0.13070816006E+00  0.50215371650E-01  0.21558015974E-01  0.89133100177E+00  0.88000000000E+00 0.  1.
        -11    1    4    4    0    0 -0.39529269902E-01 -0.13949307652E-01 -0.17380850450E-02  0.41957459689E-01  0.51100000000E-03 0.  1.
         11    1    4    4    0    0 -0.77217501344E-01 -0.20935469080E-01 -0.32478422493E-01  0.86347816580E-01  0.51100000000E-03 0. -1.
</event>
<event>
 8    1  0.1081309E+005  0.1043930E+01  0.7957747E-01            NaN
         13   -1    0    0    0    0  0.00000000000E+00  0.00000000000E+00  0.74505805969E-08  0.10566000000E+00  0.10566000000E+00 0.  1.
     999900   -1    0    0    0    0 -0.00000000000E+00 -0.00000000000E+00 -0.74505805969E-08  0.93827000000E+00  0.93827000000E+00 0.  1.
     999902    2    1    2    0    0  0.12303592217E-02  0.97979602627E-02 -0.22044412822E-01  0.10197748774E+01  0.10194887595E+01 0.  0.
     999903    2    3    3    0    0 -0.10389593520E-01  0.69038952824E-01 -0.11162051383E+00  0.13316989416E+00  0.20019014570E-01 0.  0.
         14    1    1    2    0    0 -0.12303592217E-02 -0.97979602627E-02  0.22044412822E-01  0.24155122558E-01  0.00000000000E+00 0.  1.
     999901    1    3    3    0    0  0.11619952741E-01 -0.59240992561E-01  0.89576101005E-01  0.88660498328E+00  0.88000000000E+00 0. -1.
        -11    1    4    4    0    0 -0.15799235139E-01  0.39020909445E-01 -0.63073684129E-01  0.75834015821E-01  0.51100000000E-03 0. -1.
         11    1    4    4    0    0  0.54096416199E-02  0.30018043379E-01 -0.48546829698E-01  0.57335878344E-01  0.51100000000E-03 0.  1.
</event>
<event>
 8    1  0.1081309E+005  0.1043930E+01  0.7957747E-01            NaN
         13   -1    0    0    0    0  0.00000000000E+00  0.00000000000E+00  0.74505805969E-08  0.10566000000E+00  0.10566000000E+00 0.  1.
     999900   -1    0    0    0    0 -0.00000000000E+00 -0.00000000000E+00 -0.74505805969E-08  0.93827000000E+00  0.93827000000E+00 0. -1.
     999902    2    1    2    0    0 -0.10727932950E-01 -0.44723087848E-02  0.16385108674E-01  0.10238411504E+01  0.10236440492E+01 0.  0.
     999903    2    3    3    0    0 -0.25737220346E-01 -0.16862785048E-01  0.13166452908E+00  0.13610912589E+00  0.15600894291E-01 0.  0.
         14    1    1    2    0    0  0.10727932950E-01  0.44723087848E-02 -0.16385108674E-01  0.20088849581E-01  0.00000000000E+00 0. -1.
     999901    1    3    3    0    0  0.15009287396E-01  0.12390476263E-01 -0.11527942040E+00  0.88773202453E+00  0.88000000000E+00 0. -1.
        -11    1    4    4    0    0 -0.22300476739E-01 -0.69826712429E-02  0.10219361611E+00  0.10483255818E+00  0.51100000000E-03 0.  1.
         11    1    4    4    0    0 -0.34367436065E-02 -0.98801138053E-02  0.29470912968E-01  0.31276567708E-01  0.51100000000E-03 0. -1.
</event>
<event>
 8    1  0.1081309E+005  0.1043930E+01  0.7957747E-01            NaN
         13   -1    0    0    0    0  0.00000000000E+00  0.00000000000E+00  0.74505805969E-08  0.10566000000E+00  0.10566000000E+00 0. -1.
     999900   -1    0    0    0    0 -0.00000000000E+00 -0.00000000000E+00 -0.74505805969E-08  0.93827000000E+00  0.93827000000E+00 0.  1.
     999902    2    1    2    0    0 -0.86367278189E-03  0.12239491911E-01 -0.20932843505E-01  0.10196661374E+01  0.10193774064E+01 0.  0.
     999903    2    3    3    0    0  0.67959091580E-01 -0.46274201727E-01  0.95366283166E-01  0.12742967089E+00  0.19592171507E-01 0.  0.
         14    1    1    2    0    0  0.86367278189E-03 -0.12239491911E-01  0.20932843505E-01  0.24263862638E-01  0.00000000000E+00 0. -1.
     999901    1    3    3    0    0 -0.68822764362E-01  0.58513693638E-01 -0.11629912667E+00  0.89223646647E+00  0.88000000000E+00 0.  1.
        -11    1    4    4    0    0  0.85381324776E-02 -0.30062226026E-02  0.20963298988E-01  0.22839835945E-01  0.51100000000E-03 0.  1.
         11    1    4    4    0    0  0.59420959103E-01 -0.43267979125E-01  0.74402984178E-01  0.10458983495E+00  0.51100000000E-03 0. -1.
</event>
<event>
 8    1  0.1081309E+005  0.1043930E+01  0.7957747E-01            NaN
         13   -1    0    0    0    0  0.00000000000E+00  0.00000000000E+00  0.74505805969E-08  0.10566000000E+00  0.10566000000E+00 0.  1.
     999900   -1    0    0    0    0 -0.00000000000E+00 -0.00000000000E+00 -0.74505805969E-08  0.93827000000E+00  0.93827000000E+00 0. -1.
     999902    2    1    2    0    0 -0.14430952320E-01  0.17006386890E-01  0.86332500900E-02  0.10200134244E+01  0.10197329961E+01 0.  0.
     999903    2    3    3    0    0 -0.10203438533E+00  0.27189664045E-01 -0.75964403382E-01  0.13156825247E+00  0.19731215291E-01 0.  0.
         14    1    1    2    0    0  0.14430952320E-01 -0.17006386890E-01 -0.86332500900E-02  0.23916575570E-01  0.00000000000E+00 0. -1.
     999901    1    3    3    0    0  0.87603433006E-01 -0.10183277155E-01  0.84597653472E-01  0.88844517196E+00  0.88000000000E+00 0.  1.
        -11    1    4    4    0    0 -0.40072422031E-01  0.19915791859E-01 -0.36457090418E-01  0.57721905162E-01  0.51100000000E-03 0. -1.
         11    1    4    4    0    0 -0.61961963294E-01  0.72738721857E-02 -0.39507312964E-01  0.73846347307E-01  0.51100000000E-03 0.  1.
</event>
<event>
 8    1  0.1081309E+005  0.1043930E+01  0.7957747E-01            NaN
         13   -1    0    0    0    0  0.00000000000E+00  0.00000000000E+00  0.74505805969E-08  0.10566000000E+00  0.10566000000E+00 0. -1.
     999900   -1    0    0    0    0 -0.00000000000E+00 -0.00000000000E+00 -0.74505805969E-08  0.93827000000E+00  0.93827000000E+00 0. -1.
     999902    2    1    2    0    0 -0.40881401352E-02  0.24050827377E-02  0.22883071820E-01  0.10205605266E+01  0.10202929266E+01 0.  0.
     999903    2    3    3    0    0 -0.83378477271E-02  0.76139718557E-01  0.10691941579E+00  0.13347712370E+00  0.22750925949E-01 0.  0.
         14    1    1    2    0    0  0.40881401352E-02 -0.24050827377E-02 -0.22883071820E-01  0.23369473435E-01  0.00000000000E+00 0.  1.
     999901    1    3    3    0    0  0.42497075920E-02 -0.73734635819E-01 -0.84036343969E-01  0.88708340287E+00  0.88000000000E+00 0. -1.
        -11    1    4    4    0    0 -0.89506625165E-02  0.54314633228E-01  0.91353479829E-01  0.10665792582E+00  0.51100000000E-03 0. -1.
         11    1    4    4    0    0  0.61281478942E-03  0.21825085329E-01  0.15565935960E-01  0.26819197879E-01  0.51100000000E-03 0.  1.
</event>
<event>
 8    1  0.1081309E+005  0.1043930E+01  0.7957747E-01            NaN
         13   -1    0    0    0    0  0.00000000000E+00  0.00000000000E+00  0.74505805969E-08  0.10566000000E+00  0.10566000000E+00 0.  1.
     999900   -1    0    0    0    0 -0.00000000000E+00 -0.00000000000E+00 -0.74505805969E-08  0.93827000000E+00  0.93827000000E+00 0.  1.
     999902    2    1    2    0    0 -0.26460124968E-03 -0.69606569596E-02  0.20857479500E-01  0.10219401112E+01  0.10217034969E+01 0.  0.
     999903    2    3    3    0    0 -0.56102854439E-01 -0.10181912153E+00  0.63403301011E-01  0.13406276281E+00  0.20932797461E-01 0.  0.
         14    1    1    2    0    0  0.26460124968E-03  0.69606569596E-02 -0.20857479500E-01  0.21989888818E-01  0.00000000000E+00 0. -1.
     999901    1    3    3    0    0  0.55838253189E-01  0.94858464566E-01 -0.42545821511E-01  0.88787734837E+00  0.88000000000E+00 0. -1.
        -11    1    4    4    0    0 -0.50922128888E-01 -0.93489899386E-01  0.50455859564E-01  0.11781120228E+00  0.51100000000E-03 0.  1.
         11    1    4    4    0    0 -0.51807255507E-02 -0.83292221395E-02  0.12947441447E-01  0.16251560531E-01  0.51100000000E-03 0. -1.
</event>
<event>
 8    1  0.1081309E+005  0.1043930E+01  0.7957747E-01            NaN
         13   -1    0    0    0    0  0.00000000000E+00  0.00000000000E+00  0.74505805969E-08  0.10566000000E+00  0.10566000000E+00 0.  1.
     999900   -1    0    0    0    0 -0.00000000000E+00 -0.00000000000E+00 -0.74505805969E-08  0.93827000000E+00  0.93827000000E+00 0. -1.
     999902    2    1    2    0    0  0.11617614993E-01 -0.87968194888E-02 -0.89235177410E-02  0.10268425139E+01  0.10267003293E+01 0.  0.
     999903    2    3    3    0    0  0.75031749593E-01 -0.90009259632E-01 -0.71455106157E-01  0.13862687995E+00  0.19497419883E-01 0.  0.
         14    1    1    2    0    0 -0.11617614993E-01  0.87968194888E-02  0.89235177410E-02  0.17087486068E-01  0.00000000000E+00 0.  1.
     999901    1    3    3    0    0 -0.63414134600E-01  0.81212440143E-01  0.62531588416E-01  0.88821563398E+00  0.88000000000E+00 0.  1.
        -11    1    4    4    0    0  0.22816989469E-01 -0.21934946922E-01 -0.10378762353E-01  0.33312711296E-01  0.51100000000E-03 0. -1.
         11    1    4    4    0    0  0.52214760125E-01 -0.68074312710E-01 -0.61076343804E-01  0.10531416865E+00  0.51100000000E-03 0.  1.
</event>
<event>
 8    1  0.1081309E+005  0.1043930E+01  0.7957747E-01            NaN
         13   -1    0    0    0    0  0.00000000000E+00  0.00000000000E+00  0.74505805969E-08  0.10566000000E+00  0.10566000000E+00 0. -1.
     999900   -1    0    0    0    0 -0.00000000000E+00 -0.00000000000E+00 -0.74505805969E-08  0.93827000000E+00  0.93827000000E+00 0.  1.
     999902    2    1    2    0    0 -0.11510614297E-01  0.20576104872E-01 -0.34802029571E-03  0.10203505290E+01  0.10200780414E+01 0.  0.
     999903    2    3    3    0    0 -0.69697527526E-01 -0.23148629812E-01  0.10649283679E+00  0.13090545594E+00  0.20047685683E-01 0.  0.
         14    1    1    2    0    0  0.11510614297E-01 -0.20576104872E-01  0.34802029571E-03  0.23579470972E-01  0.00000000000E+00 0. -1.
     999901    1    3    3    0    0  0.58186913229E-01  0.43724734685E-01 -0.10684085709E+00  0.88944507309E+00  0.88000000000E+00 0.  1.
        -11    1    4    4    0    0 -0.36764373510E-01 -0.11234918422E-01  0.72678027771E-01  0.82220431726E-01  0.51100000000E-03 0.  1.
         11    1    4    4    0    0 -0.32933154016E-01 -0.11913711390E-01  0.33814809023E-01  0.48685024215E-01  0.51100000000E-03 0. -1.
</event>
<event>
 8    1  0.1081309E+005  0.1043930E+01  0.7957747E-01            NaN
         13   -1    0    0    0    0  0.00000000000E+00  0.00000000000E+00  0.74505805969E-08  0.10566000000E+00  0.10566000000E+00 0.  1.
     999900   -1    0    0    0    0 -0.00000000000E+00 -0.00000000000E+00 -0.74505805969E-08  0.93827000000E+00  0.93827000000E+00 0. -1.
     999902    2    1    2    0    0 -0.20412326190E-03 -0.62371499674E-02 -0.23047365888E-01  0.10200527141E+01  0.10197732174E+01 0.  0.
     999903    2    3    3    0    0  0.64573473643E-01  0.92995944584E-01  0.57407376426E-01  0.12847192156E+00  0.19785058881E-01 0.  0.
         14    1    1    2    0    0  0.20412326190E-03  0.62371499674E-02  0.23047365888E-01  0.23877285868E-01  0.00000000000E+00 0.  1.
     999901    1    3    3    0    0 -0.64777596905E-01 -0.99233094552E-01 -0.80454742314E-01  0.89158079257E+00  0.88000000000E+00 0. -1.
        -11    1    4    4    0    0  0.10175020945E-01  0.22837664628E-01  0.54059344273E-02  0.25584667770E-01  0.51100000000E-03 0.  1.
         11    1    4    4    0    0  0.54398452697E-01  0.70158279956E-01  0.52001441999E-01  0.10288725379E+00  0.51100000000E-03 0. -1.
</event>
<event>
 8    1  0.1081309E+005  0.1043930E+01  0.7957747E-01            NaN
         13   -1    0    0    0    0  0.00000000000E+00  0.00000000000E+00  0.74505805969E-08  0.10566000000E+00  0.10566000000E+00 0.  1.
     999900   -1    0    0    0    0 -0.00000000000E+00 -0.00000000000E+00 -0.74505805969E-08  0.93827000000E+00  0.93827000000E+00 0. -1.
     999902    2    1    2    0    0  0.37810427332E-02 -0.38792115355E-02 -0.22902530856E-01  0.10203955468E+01  0.10201241108E+01 0.  0.
     999903    2    3    3    0    0 -0.52612072283E-01  0.83717292786E-01  0.78920493600E-01  0.12841950495E+00  0.22056964411E-01 0.  0.
         14    1    1    2    0    0 -0.37810427332E-02  0.38792115355E-02  0.22902530856E-01  0.23534453167E-01  0.00000000000E+00 0.  1.
     999901    1    3    3    0    0  0.56393115016E-01 -0.87596504322E-01 -0.10182302446E+00  0.89197604189E+00  0.88000000000E+00 0. -1.
        -11    1    4    4    0    0 -0.34792556194E-01  0.37843270044E-01  0.47744416139E-01  0.70159998913E-01  0.51100000000E-03 0. -1.
         11    1    4    4    0    0 -0.17819516089E-01  0.45874022743E-01  0.31176077462E-01  0.58259506033E-01  0.51100000000E-03 0.  1.
</event>
<event>
 8    1  0.1081309E+005  0.1043930E+01  0.7957747E-01            NaN
         13   -1    0    0    0    0  0.00000000000E+00  0.00000000000E+00  0.74505805969E-08  0.10566000000E+00  0.10566000000E+00 0. -1.
     999900   -1    0    0    0    0 -0.00000000000E+00 -0.00000000000E+00 -0.74505805969E-08  0.93827000000E+00  0.93827000000E+00 0.  1.
     999902    2    1    2    0    0 -0.10915593990E-01 -0.15879490734E-01 -0.17458686693E-01  0.10179278047E+01  0.10175956473E+01 0.  0.
     999903    2    3    3    0    0 -0.22808050991E-01  0.84638729522E-01 -0.92487302394E-01  0.12895388142E+00  0.19780816577E-01 0.  0.
         14    1    1    2    0    0  0.10915593990E-01  0.15879490734E-01  0.17458686693E-01  0.26002195276E-01  0.00000000000E+00 0. -1.
     999901    1    3    3    0    0  0.11892457001E-01 -0.10051822026E+00  0.75028615702E-01  0.88897392330E+00  0.88000000000E+00 0.  1.
        -11    1    4    4    0    0 -0.16697974283E-01  0.68433760907E-01 -0.61783328923E-01  0.93698681052E-01  0.51100000000E-03 0.  1.
         11    1    4    4    0    0 -0.61100767079E-02  0.16204968615E-01 -0.30703973472E-01  0.35255200370E-01  0.51100000000E-03 0. -1.
</event>
<event>
 8    1  0.1081309E+005  0.1043930E+01  0.7957747E-01            NaN
         13   -1    0    0    0    0  0.00000000000E+00  0.00000000000E+00  0.74505805969E-08  0.10566000000E+00  0.10566000000E+00 0.  1.
     999900   -1    0    0    0    0 -0.00000000000E+00 -0.00000000000E+00 -0.74505805969E-08  0.93827000000E+00  0.93827000000E+00 0. -1.
     999902    2    1    2    0    0 -0.43656714128E-02 -0.34485268984E-01 -0.81676526147E-02  0.10082228101E+01  0.10075903093E+01 0.  0.
     999903    2    3    3    0    0 -0.65046774625E-01 -0.44680771224E-01 -0.91314686868E-01  0.12216436173E+00  0.18928946988E-01 0.  0.
         14    1    1    2    0    0  0.43656714128E-02  0.34485268984E-01  0.81676526147E-02  0.35707189934E-01  0.00000000000E+00 0.  1.
     999901    1    3    3    0    0  0.60681103212E-01  0.10195502240E-01  0.83147034253E-01  0.88605844833E+00  0.88000000000E+00 0.  1.
        -11    1    4    4    0    0 -0.14960538798E-01 -0.83523550979E-02 -0.95387109570E-02  0.19617025374E-01  0.51100000000E-03 0. -1.
         11    1    4    4    0    0 -0.50086235827E-01 -0.36328416126E-01 -0.81775975911E-01  0.10254733636E+00  0.51100000000E-03 0.  1.
</event>
<event>
 8    1  0.1081309E+005  0.1043930E+01  0.7957747E-01            NaN
         13   -1    0    0    0    0  0.00000000000E+00  0.00000000000E+00  0.74505805969E-08  0.10566000000E+00  0.10566000000E+00 0.  1.
     999900   -1    0    0    0    0 -0.00000000000E+00 -0.00000000000E+00 -0.74505805969E-08  0.93827000000E+00  0.93827000000E+00 0.  1.
     999902    2    1    2    0    0  0.92519172562E-02 -0.25507950808E-01 -0.16724791827E-01  0.10120556814E+01  0.10115536219E+01 0.  0.
     999903    2    3    3    0    0 -0.37649329739E-01 -0.11431876800E+00  0.28265287215E-01  0.12520101715E+00  0.19751341361E-01 0.  0.
         14    1    1    2    0    0 -0.92519172562E-02  0.25507950808E-01  0.16724791827E-01  0.31874318644E-01  0.00000000000E+00 0.  1.
     999901    1    3    3    0    0  0.46901246995E-01  0.88810817195E-01 -0.44990079042E-01  0.88685466421E+00  0.88000000000E+00 0.  1.
        -11    1    4    4    0    0 -0.13047916465E-01 -0.69916500396E-01  0.18706116352E-01  0.73544170820E-01  0.51100000000E-03 0. -1.
         11    1    4    4    0    0 -0.24601413274E-01 -0.44402267607E-01  0.95591708626E-02  0.51656846325E-01  0.51100000000E-03 0.  1.
</event>
<event>
 8    1  0.1081309E+005  0.1043930E+01  0.7957747E-01            NaN
         13   -1    0    0    0    0  0.00000000000E+00  0.00000000000E+00  0.74505805969E-08  0.10566000000E+00  0.10566000000E+00 0.  1.
     999900   -1    0    0    0    0 -0.00000000000E+00 -0.00000000000E+00 -0.74505805969E-08  0.93827000000E+00  0.93827000000E+00 0.  1.
     999902    2    1    2    0    0 -0.29083738941E-02  0.90378936930E-02  0.22613081952E-01  0.10194046328E+01  0.10191095681E+01 0.  0.
     999903    2    3    3    0    0  0.98851776526E-02 -0.45629007747E-01  0.12162427129E+00  0.13207416409E+00  0.21711710433E-01 0.  0.
         14    1    1    2    0    0  0.29083738941E-02 -0.90378936930E-02 -0.22613081952E-01  0.24525367204E-01  0.00000000000E+00 0. -1.
     999901    1    3    3    0    0 -0.12793551547E-01  0.54666901440E-01 -0.99011189334E-01  0.88733046870E+00  0.88000000000E+00 0.  1.
        -11    1    4    4    0    0  0.12276740604E-01 -0.18176116680E-01  0.36365703162E-01  0.42471344044E-01  0.51100000000E-03 0.  1.
         11    1    4    4    0    0 -0.23915629514E-02 -0.27452891067E-01  0.85258568124E-01  0.89602820050E-01  0.51100000000E-03 0. -1.
</event>
<event>
 7    1  0.1081309E+005  0.1043930E+01  0.7957747E-01            NaN
         13   -1    0    0    0    0  0.00000000000E+00  0.00000000000E+00  0.74505805969E-08  0.10566000000E+00  0.10566000000E+00 0.  1.
     999900   -1    0    0    0    0 -0.00000000000E+00 -0.00000000000E+00 -0.74505805969E-08  0.93827000000E+00  0.93827000000E+00 0. -1.
     999902    2    1    2    0    0 -0.27814009914E-02 -0.12157115298E-01 -0.19474176286E-01  0.10208047933E+01  0.10205428216E+01 0.  0.
         14    1    1    2    0    0  0.27814009914E-02  0.12157115298E-01  0.19474176286E-01  0.23125206720E-01  0.00000000000E+00 0.  1.
     999901    1    3    3    0    0  0.12085410027E+00  0.47411687143E-02 -0.37621816641E-01  0.88906894745E+00  0.88000000000E+00 0. -1.
        -11    1    3    3    0    0 -0.25499719514E-01  0.41277023073E-02  0.17793323267E-01  0.31370959429E-01  0.51100000000E-03 0.  1.
         11    1    3    3    0    0 -0.98135781750E-01 -0.21025986320E-01  0.35431708829E-03  0.10036488640E+00  0.51100000000E-03 0. -1.
</event>
<event>
 8    1  0.1081309E+005  0.1043930E+01  0.7957747E-01            NaN
         13   -1    0    0    0    0  0.00000000000E+00  0.00000000000E+00  0.74505805969E-08  0.10566000000E+00  0.10566000000E+00 0.  1.
     999900   -1    0    0    0    0 -0.00000000000E+00 -0.00000000000E+00 -0.74505805969E-08  0.93827000000E+00  0.93827000000E+00 0.  1.
     999902    2    1    2    0    0  0.33527250915E-02 -0.14585598908E-01  0.16921757893E-01  0.10213395960E+01  0.10210897336E+01 0.  0.
     999903    2    3    3    0    0 -0.94956712087E-01 -0.49014639181E-01  0.76846041108E-01  0.13317236856E+00  0.20257188559E-01 0.  0.
         14    1    1    2    0    0 -0.33527250915E-02  0.14585598908E-01 -0.16921757893E-01  0.22590403963E-01  0.00000000000E+00 0.  1.
     999901    1    3    3    0    0  0.98309437179E-01  0.34429040273E-01 -0.59924283216E-01  0.88816722748E+00  0.88000000000E+00 0.  1.
        -11    1    4    4    0    0 -0.77311158861E-01 -0.47879632191E-01  0.61803558925E-01  0.10995187802E+00  0.51100000000E-03 0.  1.
         11    1    4    4    0    0 -0.17645553226E-01 -0.11350069900E-02  0.15042482184E-01  0.23220490537E-01  0.51100000000E-03 0. -1.
</event>
<event>
 8    1  0.1081309E+005  0.1043930E+01  0.7957747E-01            NaN
         13   -1    0    0    0    0  0.00000000000E+00  0.00000000000E+00  0.74505805969E-08  0.10566000000E+00  0.10566000000E+00 0.  1.
     999900   -1    0    0    0    0 -0.00000000000E+00 -0.00000000000E+00 -0.74505805969E-08  0.93827000000E+00  0.93827000000E+00 0.  1.
     999902    2    1    2    0    0 -0.82012344027E-02  0.21146994086E-01 -0.17507778441E-01  0.10152772879E+01  0.10148728952E+01 0.  0.
     999903    2    3    3    0    0  0.11216362002E+00  0.46221508444E-01 -0.29561462753E-01  0.12664816349E+00  0.21184233186E-01 0.  0.
         14    1    1    2    0    0  0.82012344027E-02 -0.21146994086E-01  0.17507778441E-01  0.28652712098E-01  0.00000000000E+00 0. -1.
     999901    1    3    3    0    0 -0.12036485442E+00 -0.25074514358E-01  0.12053684312E-01  0.88862912441E+00  0.88000000000E+00 0. -1.
        -11    1    4    4    0    0  0.55894751447E-01  0.34382968481E-01 -0.16937344020E-01  0.67775707332E-01  0.51100000000E-03 0.  1.
         11    1    4    4    0    0  0.56268868574E-01  0.11838539963E-01 -0.12624118733E-01  0.58872456156E-01  0.51100000000E-03 0. -1.
</event>
<event>
 8    1  0.1081309E+005  0.1043930E+01  0.7957747E-01            NaN
         13   -1    0    0    0    0  0.00000000000E+00  0.00000000000E+00  0.74505805969E-08  0.10566000000E+00  0.10566000000E+00 0. -1.
     999900   -1    0    0    0    0 -0.00000000000E+00 -0.00000000000E+00 -0.74505805969E-08  0.93827000000E+00  0.93827000000E+00 0. -1.
     999902    2    1    2    0    0  0.84870223001E-02  0.21654861409E-01  0.21822068506E-03  0.10206703742E+01  0.10204053129E+01 0.  0.
     999903    2    3    3    0    0  0.43288075044E-01  0.25195777395E-01 -0.12022261295E+00  0.13177800406E+00  0.20081858706E-01 0.  0.
         14    1    1    2    0    0 -0.84870223001E-02 -0.21654861409E-01 -0.21822068506E-03  0.23259625759E-01  0.00000000000E+00 0.  1.
     999901    1    3    3    0    0 -0.34801052744E-01 -0.35409159855E-02  0.12044083364E+00  0.88889237018E+00  0.88000000000E+00 0.  1.
        -11    1    4    4    0    0  0.74756914902E-02 -0.32968151901E-02 -0.17376830887E-01  0.19208600322E-01  0.51100000000E-03 0.  1.
         11    1    4    4    0    0  0.35812383554E-01  0.28492592585E-01 -0.10284578207E+00  0.11256940374E+00  0.51100000000E-03 0. -1.
</event>
<event>
 8    1  0.1081309E+005  0.1043930E+01  0.7957747E-01            NaN
         13   -1    0    0    0    0  0.00000000000E+00  0.00000000000E+00  0.74505805969E-08  0.10566000000E+00  0.10566000000E+00 0.  1.
     999900   -1    0    0    0    0 -0.00000000000E+00 -0.00000000000E+00 -0.74505805969E-08  0.93827000000E+00  0.93827000000E+00 0. -1.
     999902    2    1    2    0    0  0.17365659613E-01 -0.10048973362E-02 -0.16412853699E-01  0.10200143625E+01  0.10197339564E+01 0.  0.
     999903    2    3    3    0    0 -0.73729311231E-01 -0.43692571380E-01  0.93153202461E-01  0.12753172852E+00  0.15548971704E-01 0.  0.
         14    1    1    2    0    0 -0.17365659613E-01  0.10048973362E-02  0.16412853699E-01  0.23915637541E-01  0.00000000000E+00 0.  1.
     999901    1    3    3    0    0  0.91094970844E-01  0.42687674044E-01 -0.10956605616E+00  0.89248263394E+00  0.88000000000E+00 0. -1.
        -11    1    4    4    0    0 -0.57019154268E-01 -0.37349527314E-01  0.81224881416E-01  0.10603732185E+00  0.51100000000E-03 0. -1.
         11    1    4    4    0    0 -0.16710156964E-01 -0.63430440655E-02  0.11928321044E-01  0.21494406661E-01  0.51100000000E-03 0.  1.
</event>
<event>
 8    1  0.1081309E+005  0.1043930E+01  0.7957747E-01            NaN
         13   -1    0    0    0    0  0.00000000000E+00  0.00000000000E+00  0.74505805969E-08  0.10566000000E+00  0.10566000000E+00 0.  1.
     999900   -1    0    0    0    0 -0.00000000000E+00 -0.00000000000E+00 -0.74505805969E-08  0.93827000000E+00  0.93827000000E+00 0.  1.
     999902    2    1    2    0    0  0.17732250321E-01  0.15984353095E-01  0.66574268488E-03  0.10200474654E+01  0.10197678443E+01 0.  0.
     999903    2    3    3    0    0  0.91161119105E-01  0.73871406514E-01  0.59543760793E-01  0.13313747519E+00  0.20317320553E-01 0.  0.
         14    1    1    2    0    0 -0.17732250321E-01 -0.15984353095E-01 -0.66574268488E-03  0.23882534594E-01  0.00000000000E+00 0.  1.
     999901    1    3    3    0    0 -0.73428868784E-01 -0.57887053419E-01 -0.58878018108E-01  0.88690999021E+00  0.88000000000E+00 0.  1.
        -11    1    4    4    0    0  0.52920969730E-01  0.54810586461E-01  0.34827930740E-01  0.83773953625E-01  0.51100000000E-03 0. -1.
         11    1    4    4    0    0  0.38240149376E-01  0.19060820053E-01  0.24715830052E-01  0.49363521567E-01  0.51100000000E-03 0.  1.
</event>
<event>
 8    1  0.1081309E+005  0.1043930E+01  0.7957747E-01            NaN
         13   -1    0    0    0    0  0.00000000000E+00  0.00000000000E+00  0.74505805969E-08  0.10566000000E+00  0.10566000000E+00 0. -1.
     999900   -1    0    0    0    0 -0.00000000000E+00 -0.00000000000E+00 -0.74505805969E-08  0.93827000000E+00  0.93827000000E+00 0. -1.
     999902    2    1    2    0    0  0.11310732417E-01  0.29563777999E-02  0.22518175989E-01  0.10185579467E+01  0.10182418916E+01 0.  0.
     999903    2    3    3    0    0 -0.33081880532E-01 -0.97628230243E-01 -0.71177743215E-01  0.12678056826E+00  0.19528420328E-01 0.  0.
         14    1    1    2    0    0 -0.11310732417E-01 -0.29563777999E-02 -0.22518175989E-01  0.25372053274E-01  0.00000000000E+00 0.  1.
     999901    1    3    3    0    0  0.44392612949E-01  0.10058460804E+00  0.93695919204E-01  0.89177737846E+00  0.88000000000E+00 0.  1.
        -11    1    4    4    0    0 -0.31265242568E-01 -0.64715580228E-01 -0.46572003069E-01  0.85643647213E-01  0.51100000000E-03 0.  1.
         11    1    4    4    0    0 -0.18166379638E-02 -0.32912650015E-01 -0.24605740145E-01  0.41136921051E-01  0.51100000000E-03 0. -1.
</event>
<event>
 8    1  0.1081309E+005  0.1043930E+01  0.7957747E-01            NaN
         13   -1    0    0    0    0  0.00000000000E+00  0.00000000000E+00  0.74505805969E-08  0.10566000000E+00  0.10566000000E+00 0.  1.
     999900   -1    0    0    0    0 -0.00000000000E+00 -0.00000000000E+00 -0.74505805969E-08  0.93827000000E+00  0.93827000000E+00 0. -1.
     999902    2    1    2    0    0  0.19996773221E-01 -0.97225347497E-02 -0.13331621864E-01  0.10180045152E+01  0.10176743399E+01 0.  0.
     999903    2    3    3    0    0 -0.79121699148E-01 -0.39190091406E-01  0.87804438746E-01  0.12619662600E+00  0.20490544412E-01 0.  0.
         14    1    1    2    0    0 -0.19996773221E-01  0.97225347497E-02  0.13331621864E-01  0.25925484811E-01  0.00000000000E+00 0. -1.
     999901    1    3    3    0    0  0.99118472369E-01  0.29467556656E-01 -0.10113606061E+00  0.89180788919E+00  0.88000000000E+00 0. -1.
        -11    1    4    4    0    0 -0.48690072593E-01 -0.33247587548E-01  0.50052552252E-01  0.77341090986E-01  0.51100000000E-03 0.  1.
         11    1    4    4    0    0 -0.30431626555E-01 -0.59425038576E-02  0.37751886494E-01  0.48855535016E-01  0.51100000000E-03 0. -1.
</event>
<event>
 8    1  0.1081309E+005  0.1043930E+01  0.7957747E-01            NaN
         13   -1    0    0    0    0  0.00000000000E+00  0.00000000000E+00  0.74505805969E-08  0.10566000000E+00  0.10566000000E+00 0.  1.
     999900   -1    0    0    0    0 -0.00000000000E+00 -0.00000000000E+00 -0.74505805969E-08  0.93827000000E+00  0.93827000000E+00 0.  1.
     999902    2    1    2    0    0 -0.62600886645E-02  0.10282277600E-02  0.22758389882E-01  0.10203039493E+01  0.10200303714E+01 0.  0.
     999903    2    3    3    0    0  0.69858093682E-01 -0.10655422605E+00  0.20202746793E-01  0.13048683697E+00  0.19613956868E-01 0.  0.
         14    1    1    2    0    0  0.62600886645E-02 -0.10282277600E-02 -0.22758389882E-01  0.23626050716E-01  0.00000000000E+00 0. -1.
     999901    1    3    3    0    0 -0.76118182346E-01  0.10758245381E+00  0.25556430889E-02  0.88981711231E+00  0.88000000000E+00 0.  1.
        -11    1    4    4    0    0  0.42187310172E-01 -0.46720219068E-01  0.11452729787E-01  0.63984171088E-01  0.51100000000E-03 0. -1.
         11    1    4    4    0    0  0.27670783510E-01 -0.59834006978E-01  0.87500170058E-02  0.66502665884E-01  0.51100000000E-03 0.  1.
</event>
<event>
 8    1  0.1081309E+005  0.1043930E+01  0.7957747E-01            NaN
         13   -1    0    0    0    0  0.00000000000E+00  0.00000000000E+00  0.74505805969E-08  0.10566000000E+00  0.10566000000E+00 0.  1.
     999900   -1    0    0    0    0 -0.00000000000E+00 -0.00000000000E+00 -0.74505805969E-08  0.93827000000E+00  0.93827000000E+00 0. -1.
     999902    2    1    2    0    0  0.14999534729E-01 -0.46692006874E-02 -0.10231895475E-01  0.10251822225E+01  0.10250107854E+01 0.  0.
     999903    2    3    3    0    0 -0.19252139778E-01  0.11814267737E+00  0.56870815434E-01  0.13346550265E+00  0.15824463568E-01 0.  0.
         14    1    1    2    0    0 -0.14999534729E-01  0.46692006874E-02  0.10231895475E-01  0.18747777526E-01  0.00000000000E+00 0.  1.
     999901    1    3    3    0    0  0.34251674508E-01 -0.12281187806E+00 -0.67102710909E-01  0.89171671982E+00  0.88000000000E+00 0. -1.
        -11    1    4    4    0    0 -0.72612644907E-02  0.83027714940E-01  0.35050894987E-01  0.90416556949E-01  0.51100000000E-03 0. -1.
         11    1    4    4    0    0 -0.11990875288E-01  0.35114962433E-01  0.21819920447E-01  0.43048945703E-01  0.51100000000E-03 0.  1.
</event>
<event>
 8    1  0.1081309E+005  0.1043930E+01  0.7957747E-01            NaN
         13   -1    0    0    0    0  0.00000000000E+00  0.00000000000E+00  0.74505805969E-08  0.10566000000E+00  0.10566000000E+00 0.  1.
     999900   -1    0    0    0    0 -0.00000000000E+00 -0.00000000000E+00 -0.74505805969E-08  0.93827000000E+00  0.93827000000E+00 0.  1.
     999902    2    1    2    0    0 -0.76164248469E-03 -0.22730209594E-01  0.77278271916E-02  0.10199099700E+01  0.10196270814E+01 0.  0.
     999903    2    3    3    0    0 -0.57516526403E-01  0.23932530446E-01 -0.11082705814E+00  0.12892524007E+00  0.21404763222E-01 0.  0.
         14    1    1    2    0    0  0.76164248469E-03  0.22730209594E-01 -0.77278271916E-02  0.24020029986E-01  0.00000000000E+00 0. -1.
     999901    1    3    3    0    0  0.56754883918E-01 -0.46662740040E-01  0.11855488533E+00  0.89098472994E+00  0.88000000000E+00 0. -1.
        -11    1    4    4    0    0 -0.97996728193E-03  0.62196293645E-02 -0.14787357702E-01  0.16080149070E-01  0.51100000000E-03 0. -1.
         11    1    4    4    0    0 -0.56536559121E-01  0.17712901081E-01 -0.96039700436E-01  0.11284509100E+00  0.51100000000E-03 0.  1.
</event>
<event>
 8    1  0.1081309E+005  0.1043930E+01  0.7957747E-01            NaN
         13   -1    0    0    0    0  0.00000000000E+00  0.00000000000E+00  0.74505805969E-08  0.10566000000E+00  0.10566000000E+00 0.  1.
     999900   -1    0    0    0    0 -0.00000000000E+00 -0.00000000000E+00 -0.74505805969E-08  0.93827000000E+00  0.93827000000E+00 0.  1.
     999902    2    1    2    0    0  0.13290416395E-01 -0.12522834969E-01  0.14777581103E-01  0.10204388641E+01  0.10201684380E+01 0.  0.
     999903    2    3    3    0    0 -0.63466254771E-01 -0.10505133913E+00  0.46690173506E-01  0.13169169857E+00  0.99489608752E-02 0.  0.
         14    1    1    2    0    0 -0.13290416395E-01  0.12522834969E-01 -0.14777581103E-01  0.23491135921E-01  0.00000000000E+00 0. -1.
     999901    1    3    3    0    0  0.76756671166E-01  0.92528504159E-01 -0.31912592404E-01  0.88874716551E+00  0.88000000000E+00 0. -1.
        -11    1    4    4    0    0 -0.39303219789E-01 -0.56053397884E-01  0.27656426976E-01  0.73836749483E-01  0.51100000000E-03 0.  1.
         11    1    4    4    0    0 -0.24163034983E-01 -0.48997941244E-01  0.19033746531E-01  0.57854949086E-01  0.51100000000E-03 0. -1.
</event>
<event>
 8    1  0.1081309E+005  0.1043930E+01  0.7957747E-01            NaN
         13   -1    0    0    0    0  0.00000000000E+00  0.00000000000E+00  0.74505805969E-08  0.10566000000E+00  0.10566000000E+00 0. -1.
     999900   -1    0    0    0    0 -0.00000000000E+00 -0.00000000000E+00 -0.74505805969E-08  0.93827000000E+00  0.93827000000E+00 0. -1.
     999902    2    1    2    0    0  0.13692744601E-01  0.16183848326E-01 -0.15005230855E-02  0.10226777114E+01  0.10224568654E+01 0.  0.
     999903    2    3    3    0    0 -0.56011985922E-01  0.59978616873E-01  0.10235414906E+00  0.13275494838E+00  0.20315694422E-01 0.  0.
         14    1    1    2    0    0 -0.13692744601E-01 -0.16183848326E-01  0.15005230855E-02  0.21252288603E-01  0.00000000000E+00 0.  1.
     999901    1    3    3    0    0  0.69704730522E-01 -0.43794768547E-01 -0.10385467215E+00  0.88992276302E+00  0.88000000000E+00 0. -1.
        -11    1    4    4    0    0 -0.37148292817E-01  0.29978234306E-01  0.70244260995E-01  0.84930604114E-01  0.51100000000E-03 0.  1.
         11    1    4    4    0    0 -0.18863693105E-01  0.30000382567E-01  0.32109888068E-01  0.47824344266E-01  0.51100000000E-03 0. -1.
</event>
<event>
 8    1  0.1081309E+005  0.1043930E+01  0.7957747E-01            NaN
         13   -1    0    0    0    0  0.00000000000E+00  0.00000000000E+00  0.74505805969E-08  0.10566000000E+00  0.10566000000E+00 0.  1.
     999900   -1    0    0    0    0 -0.00000000000E+00 -0.00000000000E+00 -0.74505805969E-08  0.93827000000E+00  0.93827000000E+00 0.  1.
     999902    2    1    2    0    0  0.73264320732E-02 -0.16371661613E-01 -0.15915367044E-01  0.10199507002E+01  0.10196687815E+01 0.  0.
     999903    2    3    3    0    0  0.10146950951E+00  0.72118114250E-01 -0.32978250116E-01  0.13035275649E+00  0.20179008453E-01 0.  0.
         14    1    1    2    0    0 -0.73264320732E-02  0.16371661613E-01  0.15915367044E-01  0.23979299803E-01  0.00000000000E+00 0.  1.
     999901    1    3    3    0    0 -0.94143077435E-01 -0.88489775863E-01  0.17062883072E-01  0.88959794370E+00  0.88000000000E+00 0. -1.
        -11    1    4    4    0    0  0.77723445057E-01  0.50969083191E-01 -0.16039377950E-01  0.94320221156E-01  0.51100000000E-03 0. -1.
         11    1    4    4    0    0  0.23746064451E-01  0.21149031059E-01 -0.16938872166E-01  0.36032535338E-01  0.51100000000E-03 0.  1.
</event>
<event>
 8    1  0.1081309E+005  0.1043930E+01  0.7957747E-01            NaN
         13   -1    0    0    0    0  0.00000000000E+00  0.00000000000E+00  0.74505805969E-08  0.10566000000E+00  0.10566000000E+00 0. -1.
     999900   -1    0    0    0    0 -0.00000000000E+00 -0.00000000000E+00 -0.74505805969E-08  0.93827000000E+00  0.93827000000E+00 0.  1.
     999902    2    1    2    0    0 -0.20510453490E-01  0.62859449507E-02 -0.97669921949E-02  0.10203591294E+01  0.10200868428E+01 0.  0.
     999903    2    3    3    0    0  0.60993438894E-01  0.27700162042E-01  0.10788939596E+00  0.12853825113E+00  0.19861059339E-01 0.  0.
         14    1    1    2    0    0  0.20510453490E-01 -0.62859449507E-02  0.97669921949E-02  0.23570870642E-01  0.00000000000E+00 0. -1.
     999901    1    3    3    0    0 -0.81503892384E-01 -0.21414217091E-01 -0.11765638815E+00  0.89182087823E+00  0.88000000000E+00 0.  1.
        -11    1    4    4    0    0  0.56892566849E-01  0.30177305457E-01  0.94950567531E-01  0.11473144871E+00  0.51100000000E-03 0.  1.
         11    1    4    4    0    0  0.41008720445E-02 -0.24771434152E-02  0.12938828429E-01  0.13806802423E-01  0.51100000000E-03 0. -1.
</event>
<event>
 8    1  0.1081309E+005  0.1043930E+01  0.7957747E-01            NaN
         13   -1    0    0    0    0  0.00000000000E+00  0.00000000000E+00  0.74505805969E-08  0.10566000000E+00  0.10566000000E+00 0.  1.
     999900   -1    0    0    0    0 -0.00000000000E+00 -0.00000000000E+00 -0.74505805969E-08  0.93827000000E+00  0.93827000000E+00 0. -1.
     999902    2    1    2    0    0  0.19138567692E-01  0.14542554764E-01  0.18458417918E-02  0.10198223704E+01  0.10195373899E+01 0.  0.
     999903    2    3    3    0    0 -0.88046414896E-01 -0.86049670823E-01  0.25678256158E-01  0.12731164201E+00  0.19803139323E-01 0.  0.
         14    1    1    2    0    0 -0.19138567692E-01 -0.14542554764E-01 -0.18458417918E-02  0.24107629587E-01  0.00000000000E+00 0.  1.
     999901    1    3    3    0    0  0.10718498259E+00  0.10059222559E+00 -0.23832414366E-01  0.89251072840E+00  0.88000000000E+00 0.  1.
        -11    1    4    4    0    0 -0.25363974845E-01 -0.20563132415E-01 -0.14462137862E-02  0.32688320391E-01  0.51100000000E-03 0.  1.
         11    1    4    4    0    0 -0.62682440052E-01 -0.65486538408E-01  0.27124469944E-01  0.94623321619E-01  0.51100000000E-03 0. -1.
</event>
<event>
 8    1  0.1081309E+005  0.1043930E+01  0.7957747E-01            NaN
         13   -1    0    0    0    0  0.00000000000E+00  0.00000000000E+00  0.74505805969E-08  0.10566000000E+00  0.10566000000E+00 0.  1.
     999900   -1    0    0    0    0 -0.00000000000E+00 -0.00000000000E+00 -0.74505805969E-08  0.93827000000E+00  0.93827000000E+00 0.  1.
     999902    2    1    2    0    0  0.13237818418E-01 -0.18241312139E-01  0.86715122365E-04  0.10213913038E+01  0.10211425967E+01 0.  0.
     999903    2    3    3    0    0 -0.28925969476E-01 -0.11603490586E+00 -0.56935609723E-01  0.13313857094E+00  0.13542685420E-01 0.  0.
         14    1    1    2    0    0 -0.13237818418E-01  0.18241312139E-01 -0.86715122365E-04  0.22538696159E-01  0.00000000000E+00 0.  1.
     999901    1    3    3    0    0  0.42163787895E-01  0.97793593721E-01  0.57022324845E-01  0.88825273291E+00  0.88000000000E+00 0.  1.
        -11    1    4    4    0    0 -0.20684827362E-01 -0.87622099967E-01 -0.49009823488E-01  0.10250716270E+00  0.51100000000E-03 0. -1.
         11    1    4    4    0    0 -0.82411421139E-02 -0.28412805893E-01 -0.79257862348E-02  0.30631408235E-01  0.51100000000E-03 0.  1.
</event>
<event>
 8    1  0.1081309E+005  0.1043930E+01  0.7957747E-01            NaN
         13   -1    0    0    0    0  0.00000000000E+00  0.00000000000E+00  0.74505805969E-08  0.10566000000E+00  0.10566000000E+00 0. -1.
     999900   -1    0    0    0    0 -0.00000000000E+00 -0.00000000000E+00 -0.74505805969E-08  0.93827000000E+00  0.93827000000E+00 0. -1.
     999902    2    1    2    0    0  0.39395913664E-02 -0.23631564713E-01  0.63581950876E-02  0.10191429494E+01  0.10188414761E+01 0.  0.
     999903    2    3    3    0    0 -0.86755869512E-01 -0.96259597947E-01 -0.70082772935E-02  0.13140472202E+00  0.20629927922E-01 0.  0.
         14    1    1    2    0    0 -0.39395913664E-02  0.23631564713E-01 -0.63581950876E-02  0.24787050565E-01  0.00000000000E+00 0.  1.
     999901    1    3    3    0    0  0.90695460878E-01  0.72628033234E-01  0.13366472381E-01  0.88773822742E+00  0.88000000000E+00 0. -1.
        -11    1    4    4    0    0 -0.44598189618E-01 -0.38846518391E-01  0.42100240848E-02  0.59296171311E-01  0.51100000000E-03 0. -1.
         11    1    4    4    0    0 -0.42157679893E-01 -0.57413079557E-01 -0.11218301378E-01  0.72108550707E-01  0.51100000000E-03 0.  1.
</event>
<event>
 8    1  0.1081309E+005  0.1043930E+01  0.7957747E-01            NaN
         13   -1    0    0    0    0  0.00000000000E+00  0.00000000000E+00  0.74505805969E-08  0.10566000000E+00  0.10566000000E+00 0. -1.
     999900   -1    0    0    0    0 -0.00000000000E+00 -0.00000000000E+00 -0.74505805969E-08  0.93827000000E+00  0.93827000000E+00 0.  1.
     999902    2    1    2    0    0 -0.13331327264E-01  0.53804521578E-02 -0.19862002590E-01  0.10194111766E+01  0.10191162713E+01 0.  0.
     999903    2    3    3    0    0 -0.10305903672E-01 -0.36881831059E-02 -0.13132680792E+00  0.13232843182E+00  0.12011204937E-01 0.  0.
         14    1    1    2    0    0  0.13331327264E-01 -0.53804521578E-02  0.19862002590E-01  0.24518823359E-01  0.00000000000E+00 0. -1.
     999901    1    3    3    0    0 -0.30254235920E-02  0.90686352636E-02  0.11146480533E+00  0.88708274482E+00  0.88000000000E+00 0. -1.
        -11    1    4    4    0    0 -0.93584842058E-02  0.48000088775E-03 -0.11681987162E+00  0.11719622500E+00  0.51100000000E-03 0. -1.
         11    1    4    4    0    0 -0.94741946573E-03 -0.41681839936E-02 -0.14506936297E-01  0.15132206818E-01  0.51100000000E-03 0.  1.
</event>
<event>
 8    1  0.1081309E+005  0.1043930E+01  0.7957747E-01            NaN
         13   -1    0    0    0    0  0.00000000000E+00  0.00000000000E+00  0.74505805969E-08  0.10566000000E+00  0.10566000000E+00 0.  1.
     999900   -1    0    0    0    0 -0.00000000000E+00 -0.00000000000E+00 -0.74505805969E-08  0.93827000000E+00  0.93827000000E+00 0. -1.
     999902    2    1    2    0    0  0.12457764082E-01  0.17694132679E-01 -0.10081830416E-01  0.10200569708E+01  0.10197775749E+01 0.  0.
     999903    2    3    3    0    0  0.12239140940E+00  0.38552001303E-01 -0.28187702400E-01  0.13278684305E+00  0.19284325782E-01 0.  0.
         14    1    1    2    0    0 -0.12457764082E-01 -0.17694132679E-01  0.10081830416E-01  0.23873029169E-01  0.00000000000E+00 0.  1.
     999901    1    3    3    0    0 -0.10993364532E+00 -0.20857868624E-01  0.18105871984E-01  0.88727012778E+00  0.88000000000E+00 0.  1.
        -11    1    4    4    0    0  0.93669328825E-01  0.29075594222E-01 -0.12995244405E-01  0.98936701178E-01  0.51100000000E-03 0.  1.
         11    1    4    4    0    0  0.28722080574E-01  0.94764070807E-02 -0.15192457995E-01  0.33850141869E-01  0.51100000000E-03 0. -1.
</event>
<event>
 8    1  0.1081309E+005  0.1043930E+01  0.7957747E-01            NaN
         13   -1    0    0    0    0  0.00000000000E+00  0.00000000000E+00  0.74505805969E-08  0.10566000000E+00  0.10566000000E+00 0.  1.
     999900   -1    0    0    0    0 -0.00000000000E+00 -0.00000000000E+00 -0.74505805969E-08  0.93827000000E+00  0.93827000000E+00 0.  1.
     999902    2    1    2    0    0 -0.10831485491E-01  0.40085031854E-02 -0.21007435965E-01  0.10199570665E+01  0.10196752993E+01 0.  0.
     999903    2    3    3    0    0  0.91001522442E-01  0.77893247115E-01 -0.48067777073E-01  0.13059708371E+00  0.19911103637E-01 0.  0.
         14    1    1    2    0    0  0.10831485491E-01 -0.40085031854E-02  0.21007435965E-01  0.23972933520E-01  0.00000000000E+00 0.  1.
     999901    1    3    3    0    0 -0.10183300793E+00 -0.73884743930E-01  0.27060341107E-01  0.88935998277E+00  0.88000000000E+00 0.  1.
        -11    1    4    4    0    0  0.20460770485E-01  0.28813450793E-01 -0.11083389600E-01  0.37039988141E-01  0.51100000000E-03 0.  1.
         11    1    4    4    0    0  0.70540751957E-01  0.49079796322E-01 -0.36984387473E-01  0.93557095569E-01  0.51100000000E-03 0. -1.
</event>
<event>
 8    1  0.1081309E+005  0.1043930E+01  0.7957747E-01            NaN
         13   -1    0    0    0    0  0.00000000000E+00  0.00000000000E+00  0.74505805969E-08  0.10566000000E+00  0.10566000000E+00 0.  1.
     999900   -1    0    0    0    0 -0.00000000000E+00 -0.00000000000E+00 -0.74505805969E-08  0.93827000000E+00  0.93827000000E+00 0. -1.
     999902    2    1    2    0    0  0.21442188232E-01 -0.92519169242E-02  0.72222245445E-03  0.10205657750E+01  0.10202982967E+01 0.  0.
     999903    2    3    3    0    0  0.12368080645E+00 -0.46811269964E-01  0.29862974813E-02  0.13384791343E+00  0.20447715657E-01 0.  0.
         14    1    1    2    0    0 -0.21442188232E-01  0.92519169242E-02 -0.72222245445E-03  0.23364224965E-01  0.00000000000E+00 0. -1.
     999901    1    3    3    0    0 -0.10223861822E+00  0.37559353040E-01 -0.22640750268E-02  0.88671786161E+00  0.88000000000E+00 0.  1.
        -11    1    4    4    0    0  0.63466395060E-01 -0.34731915406E-01 -0.17538753479E-03  0.72350405192E-01  0.51100000000E-03 0.  1.
         11    1    4    4    0    0  0.60214411395E-01 -0.12079354558E-01  0.31616850161E-02  0.61497508236E-01  0.51100000000E-03 0. -1.
</event>
<event>
 8    1  0.1081309E+005  0.1043930E+01  0.7957747E-01            NaN
         13   -1    0    0    0    0  0.00000000000E+00  0.00000000000E+00  0.74505805969E-08  0.10566000000E+00  0.10566000000E+00 0.  1.
     999900   -1    0    0    0    0 -0.00000000000E+00 -0.00000000000E+00 -0.74505805969E-08  0.93827000000E+00  0.93827000000E+00 0. -1.
     999902    2    1    2    0    0  0.62738526836E-02 -0.22496492648E-01  0.45891442590E-02  0.10201284527E+01  0.10198507471E+01 0.  0.
     999903    2    3    3    0    0 -0.51209292084E-01  0.89732749302E-01 -0.72579925085E-01  0.12779735947E+00  0.19747447142E-01 0.  0.
         14    1    1    2    0    0 -0.62738526836E-02  0.22496492648E-01 -0.45891442590E-02  0.23801547302E-01  0.00000000000E+00 0.  1.
     999901    1    3    3    0    0  0.57483144768E-01 -0.11222924195E+00  0.77169069344E-01  0.89233109323E+00  0.88000000000E+00 0.  1.
        -11    1    4    4    0    0 -0.27017646637E-01  0.60069763125E-01 -0.37069758471E-01  0.75582787629E-01  0.51100000000E-03 0. -1.
         11    1    4    4    0    0 -0.24191645447E-01  0.29662986177E-01 -0.35510166614E-01  0.52214571839E-01  0.51100000000E-03 0.  1.
</event>
<event>
 8    1  0.1081309E+005  0.1043930E+01  0.7957747E-01            NaN
         13   -1    0    0    0    0  0.00000000000E+00  0.00000000000E+00  0.74505805969E-08  0.10566000000E+00  0.10566000000E+00 0.  1.
     999900   -1    0    0    0    0 -0.00000000000E+00 -0.00000000000E+00 -0.74505805969E-08  0.93827000000E+00  0.93827000000E+00 0.  1.
     999902    2    1    2    0    0 -0.22430240649E-01 -0.97815009444E-02  0.13967714893E-01  0.10157539372E+01  0.10153630732E+01 0.  0.
     999903    2    3    3    0    0 -0.32812502357E-03 -0.12571385391E+00 -0.96910421189E-02  0.12755995457E+00  0.19327311795E-01 0.  0.
         14    1    1    2    0    0  0.22430240649E-01  0.97815009444E-02 -0.13967714893E-01  0.28176062813E-01  0.00000000000E+00 0. -1.
     999901    1    3    3    0    0 -0.22102115626E-01  0.11593235296E+00  0.23658757012E-01  0.88819398262E+00  0.88000000000E+00 0. -1.
        -11    1    4    4    0    0 -0.54868279731E-02 -0.70129435566E-01 -0.13402957006E-01  0.71611056350E-01  0.51100000000E-03 0. -1.
         11    1    4    4    0    0  0.51587029495E-02 -0.55584418342E-01  0.37119148875E-02  0.55948898217E-01  0.51100000000E-03 0.  1.
</event>
<event>
 8    1  0.1081309E+005  0.1043930E+01  0.7957747E-01            NaN
         13   -1    0    0    0    0  0.00000000000E+00  0.00000000000E+00  0.74505805969E-08  0.10566000000E+00  0.10566000000E+00 0.  1.
     999900   -1    0    0    0    0 -0.00000000000E+00 -0.00000000000E+00 -0.74505805969E-08  0.93827000000E+00  0.93827000000E+00 0.  1.
     999902    2    1    2    0    0 -0.18417060036E-02  0.58981104415E-02  0.23421442670E-01  0.10197072098E+01  0.10194194672E+01 0.  0.
     999903    2    3    3    0    0  0.33255277082E-01 -0.28533112574E-01  0.12355097800E+00  0.13266536684E+00  0.20376541069E-01 0.  0.
         14    1    1    2    0    0  0.18417060036E-02 -0.58981104415E-02 -0.23421442670E-01  0.24222790189E-01  0.00000000000E+00 0. -1.
     999901    1    3    3    0    0 -0.35096983086E-01  0.34431223015E-01 -0.10012953533E+00  0.88704184297E+00  0.88000000000E+00 0.  1.
        -11    1    4    4    0    0  0.10040967775E-01 -0.18914558968E-02  0.50363762072E-01  0.51392297967E-01  0.51100000000E-03 0. -1.
         11    1    4    4    0    0  0.23214309307E-01 -0.26641656677E-01  0.73187215930E-01  0.81273068871E-01  0.51100000000E-03 0.  1.
</event>
<event>
 8    1  0.1081309E+005  0.1043930E+01  0.7957747E-01            NaN
         13   -1    0    0    0    0  0.00000000000E+00  0.00000000000E+00  0.74505805969E-08  0.10566000000E+00  0.10566000000E+00 0. -1.
     999900   -1    0    0    0    0 -0.00000000000E+00 -0.00000000000E+00 -0.74505805969E-08  0.93827000000E+00  0.93827000000E+00 0. -1.
     999902    2    1    2    0    0 -0.13814871046E-01 -0.12530431312E-01  0.15004866641E-01  0.10199924063E+01  0.10197114790E+01 0.  0.
     999903    2    3    3    0    0  0.10977531251E+00  0.16045715949E-01  0.63758558417E-01  0.12956102086E+00  0.20317975233E-01 0.  0.
         14    1    1    2    0    0  0.13814871046E-01  0.12530431312E-01 -0.15004866641E-01  0.23937593734E-01  0.00000000000E+00 0.  1.
     999901    1    3    3    0    0 -0.12359018355E+00 -0.28576147261E-01 -0.48753691776E-01  0.89043138541E+00  0.88000000000E+00 0. -1.
        -11    1    4    4    0    0  0.94654425346E-02  0.62629403496E-03  0.12958503799E-01  0.16067693933E-01  0.51100000000E-03 0. -1.
         11    1    4    4    0    0  0.10030986997E+00  0.15419421914E-01  0.50800054617E-01  0.11349332692E+00  0.51100000000E-03 0.  1.
</event>
<event>
 8    1  0.1081309E+005  0.1043930E+01  0.7957747E-01            NaN
         13   -1    0    0    0    0  0.00000000000E+00  0.00000000000E+00  0.74505805969E-08  0.10566000000E+00  0.10566000000E+00 0.  1.
     999900   -1    0    0    0    0 -0.00000000000E+00 -0.00000000000E+00 -0.74505805969E-08  0.93827000000E+00  0.93827000000E+00 0. -1.
     999902    2    1    2    0    0 -0.12418497695E-01  0.19432894801E-01 -0.51146679023E-02  0.10203076311E+01  0.10200341395E+01 0.  0.
     999903    2    3    3    0    0  0.92227774900E-01 -0.85693081545E-01 -0.81031817051E-02  0.12788887037E+00  0.20991305862E-01 0.  0.
         14    1    1    2    0    0  0.12418497695E-01 -0.19432894801E-01  0.51146679023E-02  0.23622368914E-01  0.00000000000E+00 0. -1.
     999901    1    3    3    0    0 -0.10464627260E+00  0.10512597635E+00  0.29885138029E-02  0.89241876072E+00  0.88000000000E+00 0.  1.
        -11    1    4    4    0    0  0.19337046583E-01 -0.82774067323E-02 -0.43812029255E-02  0.21491693577E-01  0.51100000000E-03 0. -1.
         11    1    4    4    0    0  0.72890728318E-01 -0.77415674813E-01 -0.37219787797E-02  0.10639717679E+00  0.51100000000E-03 0.  1.
</event>
<event>
 8    1  0.1081309E+005  0.1043930E+01  0.7957747E-01            NaN
         13   -1    0    0    0    0  0.00000000000E+00  0.00000000000E+00  0.74505805969E-08  0.10566000000E+00  0.10566000000E+00 0.  1.
     999900   -1    0    0    0    0 -0.00000000000E+00 -0.00000000000E+00 -0.74505805969E-08  0.93827000000E+00  0.93827000000E+00 0. -1.
     999902    2    1    2    0    0 -0.23342121369E-01 -0.47779796253E-02 -0.25372008380E-03  0.10201025349E+01  0.10198242170E+01 0.  0.
     999903    2    3    3    0    0 -0.73801551964E-01  0.76443314722E-01 -0.75028063906E-01  0.13177024612E+00  0.21069835103E-01 0.  0.
         14    1    1    2    0    0  0.23342121369E-01  0.47779796253E-02  0.25372008380E-03  0.23827465102E-01  0.00000000000E+00 0. -1.
     999901    1    3    3    0    0  0.50459430595E-01 -0.81221294347E-01  0.74774343822E-01  0.88833228878E+00  0.88000000000E+00 0.  1.
        -11    1    4    4    0    0 -0.24826470826E-01  0.12759915313E-01 -0.17344802624E-01  0.32867497494E-01  0.51100000000E-03 0.  1.
         11    1    4    4    0    0 -0.48975081138E-01  0.63683399409E-01 -0.57683261281E-01  0.98902748626E-01  0.51100000000E-03 0. -1.
</event>
<event>
 8    1  0.1081309E+005  0.1043930E+01  0.7957747E-01            NaN
         13   -1    0    0    0    0  0.00000000000E+00  0.00000000000E+00  0.74505805969E-08  0.10566000000E+00  0.10566000000E+00 0. -1.
     999900   -1    0    0    0    0 -0.00000000000E+00 -0.00000000000E+00 -0.74505805969E-08  0.93827000000E+00  0.93827000000E+00 0. -1.
     999902    2    1    2    0    0 -0.19541332301E-01  0.11702276176E-02  0.13547119455E-01  0.10201233298E+01  0.10198455032E+01 0.  0.
     999903    2    3    3    0    0  0.20321115158E-01  0.90263528667E-01 -0.86852556454E-01  0.12905277931E+00  0.23469149051E-01 0.  0.
         14    1    1    2    0    0  0.19541332301E-01 -0.11702276176E-02 -0.13547119455E-01  0.23806670207E-01  0.00000000000E+00 0.  1.
     999901    1    3    3    0    0 -0.39862447460E-01 -0.89093301050E-01  0.10039967591E+00  0.89107055048E+00  0.88000000000E+00 0. -1.
        -11    1    4    4    0    0  0.20913839916E-01  0.39631802167E-01 -0.41027256717E-01  0.60758253413E-01  0.51100000000E-03 0.  1.
         11    1    4    4    0    0 -0.59272475761E-03  0.50631726500E-01 -0.45825299738E-01  0.68294525901E-01  0.51100000000E-03 0. -1.
</event>
<event>
 8    1  0.1081309E+005  0.1043930E+01  0.7957747E-01            NaN
         13   -1    0    0    0    0  0.00000000000E+00  0.00000000000E+00  0.74505805969E-08  0.10566000000E+00  0.10566000000E+00 0.  1.
     999900   -1    0    0    0    0 -0.00000000000E+00 -0.00000000000E+00 -0.74505805969E-08  0.93827000000E+00  0.93827000000E+00 0.  1.
     999902    2    1    2    0    0 -0.22791412342E-01  0.29588365928E-02 -0.15085589433E-01  0.10164385795E+01  0.10160667339E+01 0.  0.
     999903    2    3    3    0    0 -0.67581856667E-03  0.11732722853E+00 -0.47625153556E-01  0.12816606966E+00  0.19805324479E-01 0.  0.
         14    1    1    2    0    0  0.22791412342E-01 -0.29588365928E-02  0.15085589433E-01  0.27491420463E-01  0.00000000000E+00 0.  1.
     999901    1    3    3    0    0 -0.22115593775E-01 -0.11436839193E+00  0.32539564123E-01  0.88827250987E+00  0.88000000000E+00 0.  1.
        -11    1    4    4    0    0  0.11793561009E-02  0.35463470134E-01 -0.49609832205E-02  0.35831844360E-01  0.51100000000E-03 0. -1.
         11    1    4    4    0    0 -0.18551746676E-02  0.81863758392E-01 -0.42664170335E-01  0.92334225304E-01  0.51100000000E-03 0.  1.
</event>
<event>
 8    1  0.1081309E+005  0.1043930E+01  0.7957747E-01            NaN
         13   -1    0    0    0    0  0.00000000000E+00  0.00000000000E+00  0.74505805969E-08  0.10566000000E+00  0.10566000000E+00 0.  1.
     999900   -1    0    0    0    0 -0.00000000000E+00 -0.00000000000E+00 -0.74505805969E-08  0.93827000000E+00  0.93827000000E+00 0. -1.
     999902    2    1    2    0    0 -0.23814269579E-02  0.10319715949E-01  0.21054232558E-01  0.10203620463E+01  0.10200898280E+01 0.  0.
     999903    2    3    3    0    0  0.99069490911E-01 -0.78936059011E-01 -0.16666758205E-01  0.12924939619E+00  0.19543800651E-01 0.  0.
         14    1    1    2    0    0  0.23814269579E-02 -0.10319715949E-01 -0.21054232558E-01  0.23567953671E-01  0.00000000000E+00 0. -1.
     999901    1    3    3    0    0 -0.10145091787E+00  0.89255774960E-01  0.37720990763E-01  0.89111265014E+00  0.88000000000E+00 0.  1.
        -11    1    4    4    0    0  0.56107961113E-01 -0.33299013329E-01 -0.45161647304E-02  0.65403244979E-01  0.51100000000E-03 0. -1.
         11    1    4    4    0    0  0.42961529798E-01 -0.45637045682E-01 -0.12150593474E-01  0.63846151207E-01  0.51100000000E-03 0.  1.
</event>
<event>
 8    1  0.1081309E+005  0.1043930E+01  0.7957747E-01            NaN
         13   -1    0    0    0    0  0.00000000000E+00  0.00000000000E+00  0.74505805969E-08  0.10566000000E+00  0.10566000000E+00 0. -1.
     999900   -1    0    0    0    0 -0.00000000000E+00 -0.00000000000E+00 -0.74505805969E-08  0.93827000000E+00  0.93827000000E+00 0. -1.
     999902    2    1    2    0    0  0.14631758809E-01 -0.15387851151E-01 -0.10356732458E-01  0.10203050929E+01  0.10200315418E+01 0.  0.
     999903    2    3    3    0    0 -0.16166317898E-01 -0.17268406817E-03  0.12656985408E+00  0.12905377427E+00  0.19327934132E-01 0.  0.
         14    1    1    2    0    0 -0.14631758809E-01  0.15387851151E-01  0.10356732458E-01  0.23624907112E-01  0.00000000000E+00 0. -1.
     999901    1    3    3    0    0  0.30798076707E-01 -0.15215167082E-01 -0.13692658654E+00  0.89125131862E+00  0.88000000000E+00 0. -1.
        -11    1    4    4    0    0 -0.57899165930E-02 -0.95184657161E-02  0.61039783038E-01  0.62050306672E-01  0.51100000000E-03 0. -1.
         11    1    4    4    0    0 -0.10376401305E-01  0.93457816479E-02  0.65530071040E-01  0.67003467598E-01  0.51100000000E-03 0.  1.
</event>
<event>
 8    1  0.1081309E+005  0.1043930E+01  0.7957747E-01            NaN
         13   -1    0    0    0    0  0.00000000000E+00  0.00000000000E+00  0.74505805969E-08  0.10566000000E+00  0.10566000000E+00 0.  1.
     999900   -1    0    0    0    0 -0.00000000000E+00 -0.00000000000E+00 -0.74505805969E-08  0.93827000000E+00  0.93827000000E+00 0. -1.
     999902    2    1    2    0    0 -0.91397742736E-03  0.63444227894E-02 -0.21856867372E-01  0.10211526054E+01  0.10208985423E+01 0.  0.
     999903    2    3    3    0    0 -0.97798077611E-01  0.71360162673E-01  0.45148517904E-01  0.13092606287E+00  0.21130746982E-01 0.  0.
         14    1    1    2    0    0  0.91397742736E-03 -0.63444227894E-02  0.21856867372E-01  0.22777394640E-01  0.00000000000E+00 0.  1.
     999901    1    3    3    0    0  0.96884100183E-01 -0.65015739884E-01 -0.67005385276E-01  0.89022654249E+00  0.88000000000E+00 0. -1.
        -11    1    4    4    0    0 -0.44202072657E-01  0.21686698122E-01  0.11983637873E-01  0.50675485200E-01  0.51100000000E-03 0. -1.
         11    1    4    4    0    0 -0.53596004954E-01  0.49673464551E-01  0.33164880031E-01  0.80250577668E-01  0.51100000000E-03 0.  1.
</event>
<event>
 8    1  0.1081309E+005  0.1043930E+01  0.7957747E-01            NaN
         13   -1    0    0    0    0  0.00000000000E+00  0.00000000000E+00  0.74505805969E-08  0.10566000000E+00  0.10566000000E+00 0.  1.
     999900   -1    0    0    0    0 -0.00000000000E+00 -0.00000000000E+00 -0.74505805969E-08  0.93827000000E+00  0.93827000000E+00 0. -1.
     999902    2    1    2    0    0 -0.17284582280E-01  0.25610406572E-02  0.15242020260E-01  0.10207430447E+01  0.10204796561E+01 0.  0.
     999903    2    3    3    0    0 -0.79280179577E-01  0.52159295951E-01  0.93375341050E-01  0.13372091600E+00  0.12505600005E-01 0.  0.
         14    1    1    2    0    0  0.17284582280E-01 -0.25610406572E-02 -0.15242020260E-01  0.23186955286E-01  0.00000000000E+00 0.  1.
     999901    1    3    3    0    0  0.61995597297E-01 -0.49598255294E-01 -0.78133320790E-01  0.88702212872E+00  0.88000000000E+00 0.  1.
        -11    1    4    4    0    0 -0.51798803953E-01  0.40041819066E-01  0.59837720258E-01  0.88697673316E-01  0.51100000000E-03 0. -1.
         11    1    4    4    0    0 -0.27481375624E-01  0.12117476885E-01  0.33537620792E-01  0.45023242682E-01  0.51100000000E-03 0.  1.
</event>
<event>
 8    1  0.1081309E+005  0.1043930E+01  0.7957747E-01            NaN
         13   -1    0    0    0    0  0.00000000000E+00  0.00000000000E+00  0.74505805969E-08  0.10566000000E+00  0.10566000000E+00 0. -1.
     999900   -1    0    0    0    0 -0.00000000000E+00 -0.00000000000E+00 -0.74505805969E-08  0.93827000000E+00  0.93827000000E+00 0. -1.
     999902    2    1    2    0    0 -0.45718920647E-03  0.19042846675E-01 -0.14609123222E-01  0.10199244691E+01  0.10196419260E+01 0.  0.
     999903    2    3    3    0    0 -0.72324078544E-01 -0.50664626644E-01  0.90447670251E-01  0.12803831525E+00  0.20380195949E-01 0.  0.
         14    1    1    2    0    0  0.45718920647E-03 -0.19042846675E-01  0.14609123222E-01  0.24005530879E-01  0.00000000000E+00 0. -1.
     999901    1    3    3    0    0  0.71866889337E-01  0.69707473319E-01 -0.10505679347E+00  0.89188615388E+00  0.88000000000E+00 0.  1.
        -11    1    4    4    0    0 -0.17306001156E-01 -0.10582097884E-01  0.34053173079E-01  0.39640360612E-01  0.51100000000E-03 0.  1.
         11    1    4    4    0    0 -0.55018077388E-01 -0.40082528760E-01  0.56394497171E-01  0.88397954634E-01  0.51100000000E-03 0. -1.
</event>
<event>
 8    1  0.1081309E+005  0.1043930E+01  0.7957747E-01            NaN
         13   -1    0    0    0    0  0.00000000000E+00  0.00000000000E+00  0.74505805969E-08  0.10566000000E+00  0.10566000000E+00 0.  1.
     999900   -1    0    0    0    0 -0.00000000000E+00 -0.00000000000E+00 -0.74505805969E-08  0.93827000000E+00  0.93827000000E+00 0.  1.
     999902    2    1    2    0    0 -0.21631587616E-02  0.18589992816E-01 -0.14356729442E-01  0.10203422326E+01  0.10200695510E+01 0.  0.
     999903    2    3    3    0    0  0.10263887124E+00  0.48527851634E-01  0.60731469036E-01  0.13044449782E+00  0.20922844141E-01 0.  0.
         14    1    1    2    0    0  0.21631587616E-02 -0.18589992816E-01  0.14356729442E-01  0.23587767360E-01  0.00000000000E+00 0.  1.
     999901    1    3    3    0    0 -0.10480203000E+00 -0.29937858818E-01 -0.75088198478E-01  0.88989773482E+00  0.88000000000E+00 0.  1.
        -11    1    4    4    0    0  0.69282828803E-01  0.36682713860E-01  0.31323347015E-01  0.84422420318E-01  0.51100000000E-03 0.  1.
         11    1    4    4    0    0  0.33356042438E-01  0.11845137773E-01  0.29408122021E-01  0.46022077504E-01  0.51100000000E-03 0. -1.
</event>
<event>
 8    1  0.1081309E+005  0.1043930E+01  0.7957747E-01            NaN
         13   -1    0    0    0    0  0.00000000000E+00  0.00000000000E+00  0.74505805969E-08  0.10566000000E+00  0.10566000000E+00 0.  1.
     999900   -1    0    0    0    0 -0.00000000000E+00 -0.00000000000E+00 -0.74505805969E-08  0.93827000000E+00  0.93827000000E+00 0.  1.
     999902    2    1    2    0    0 -0.14839117031E-02 -0.21039978288E-01 -0.91081699041E-02  0.10209551999E+01  0.10206966634E+01 0.  0.
     999903    2    3    3    0    0 -0.12532685080E+00 -0.34280837915E-01 -0.86276540577E-02  0.13218491191E+00  0.22724857387E-01 0.  0.
         14    1    1    2    0    0  0.14839117031E-02  0.21039978288E-01  0.91081699041E-02  0.22974800093E-01  0.00000000000E+00 0.  1.
     999901    1    3    3    0    0  0.12384293910E+00  0.13240859627E-01 -0.48051584637E-03  0.88877028800E+00  0.88000000000E+00 0. -1.
        -11    1    4    4    0    0 -0.88849824038E-01 -0.20691026066E-01  0.38344657280E-02  0.91309222096E-01  0.51100000000E-03 0. -1.
         11    1    4    4    0    0 -0.36477026760E-01 -0.13589811850E-01 -0.12462119786E-01  0.40875689816E-01  0.51100000000E-03 0.  1.
</event>
<event>
 8    1  0.1081309E+005  0.1043930E+01  0.7957747E-01            NaN
         13   -1    0    0    0    0  0.00000000000E+00  0.00000000000E+00  0.74505805969E-08  0.10566000000E+00  0.10566000000E+00 0.  1.
     999900   -1    0    0    0    0 -0.00000000000E+00 -0.00000000000E+00 -0.74505805969E-08  0.93827000000E+00  0.93827000000E+00 0. -1.
     999902    2    1    2    0    0 -0.57452993870E-02 -0.69899145301E-04  0.20945191676E-01  0.10222110128E+01  0.10219802543E+01 0.  0.
     999903    2    3    3    0    0  0.36744209377E-01 -0.11597577317E+00 -0.45016163014E-01  0.13114960621E+00  0.19319611586E-01 0.  0.
         14    1    1    2    0    0  0.57452993870E-02  0.69899145301E-04 -0.20945191676E-01  0.21718987207E-01  0.00000000000E+00 0. -1.
     999901    1    3    3    0    0 -0.42489508764E-01  0.11590587402E+00  0.65961354690E-01  0.89106140658E+00  0.88000000000E+00 0.  1.
        -11    1    4    4    0    0  0.12784414014E-01 -0.45911055125E-01 -0.27614033346E-01  0.55082321874E-01  0.51100000000E-03 0. -1.
         11    1    4    4    0    0  0.23959795362E-01 -0.70064718044E-01 -0.17402129668E-01  0.76067284336E-01  0.51100000000E-03 0.  1.
</event>
<event>
 8    1  0.1081309E+005  0.1043930E+01  0.7957747E-01            NaN
         13   -1    0    0    0    0  0.00000000000E+00  0.00000000000E+00  0.74505805969E-08  0.10566000000E+00  0.10566000000E+00 0. -1.
     999900   -1    0    0    0    0 -0.00000000000E+00 -0.00000000000E+00 -0.74505805969E-08  0.93827000000E+00  0.93827000000E+00 0.  1.
     999902    2    1    2    0    0  0.53228574973E-02 -0.19731597267E-01  0.11261626788E-01  0.10205956266E+01  0.10203288392E+01 0.  0.
     999903    2    3    3    0    0  0.89386217140E-01  0.26816386786E-01  0.90910042987E-01  0.13178899217E+00  0.19866759346E-01 0.  0.
         14    1    1    2    0    0 -0.53228574973E-02  0.19731597267E-01 -0.11261626788E-01  0.23334373370E-01  0.00000000000E+00 0.  1.
     999901    1    3    3    0    0 -0.84063359642E-01 -0.46547984053E-01 -0.79648416199E-01  0.88880663446E+00  0.88000000000E+00 0.  1.
        -11    1    4    4    0    0  0.27192440965E-01  0.16601036335E-01  0.24191605169E-01  0.40006476159E-01  0.51100000000E-03 0.  1.
         11    1    4    4    0    0  0.62193776174E-01  0.10215350451E-01  0.66718437818E-01  0.91782516012E-01  0.51100000000E-03 0. -1.
</event>
<event>
 8    1  0.1081309E+005  0.1043930E+01  0.7957747E-01            NaN
         13   -1    0    0    0    0  0.00000000000E+00  0.00000000000E+00  0.74505805969E-08  0.10566000000E+00  0.10566000000E+00 0. -1.
     999900   -1    0    0    0    0 -0.00000000000E+00 -0.00000000000E+00 -0.74505805969E-08  0.93827000000E+00  0.93827000000E+00 0. -1.
     999902    2    1    2    0    0  0.85352677095E-02  0.14518665515E-01  0.17393536374E-01  0.10197188961E+01  0.10194314345E+01 0.  0.
     999903    2    3    3    0    0  0.23002558921E-02  0.46212989329E-01 -0.11849076715E+00  0.12870377309E+00  0.19587438489E-01 0.  0.
         14    1    1    2    0    0 -0.85352677095E-02 -0.14518665515E-01 -0.17393536374E-01  0.24211103874E-01  0.00000000000E+00 0.  1.
     999901    1    3    3    0    0  0.62350118174E-02 -0.31694323813E-01  0.13588430353E+00  0.89101512304E+00  0.88000000000E+00 0. -1.
        -11    1    4    4    0    0  0.39583596643E-02  0.32493824222E-01 -0.10230319658E+00  0.10741379044E+00  0.51100000000E-03 0. -1.
         11    1    4    4    0    0 -0.16581037721E-02  0.13719165106E-01 -0.16187570572E-01  0.21289982653E-01  0.51100000000E-03 0.  1.
</event>
<event>
 8    1  0.1081309E+005  0.1043930E+01  0.7957747E-01            NaN
         13   -1    0    0    0    0  0.00000000000E+00  0.00000000000E+00  0.74505805969E-08  0.10566000000E+00  0.10566000000E+00 0. -1.
     999900   -1    0    0    0    0 -0.00000000000E+00 -0.00000000000E+00 -0.74505805969E-08  0.93827000000E+00  0.93827000000E+00 0.  1.
     999902    2    1    2    0    0  0.11515601258E-01  0.18335175022E-01 -0.93441859577E-02  0.10203481950E+01  0.10200756528E+01 0.  0.
     999903    2    3    3    0    0  0.66760035295E-01  0.10126764635E+00 -0.52497653477E-01  0.13367352860E+00  0.20014247858E-01 0.  0.
         14    1    1    2    0    0 -0.11515601258E-01 -0.18335175022E-01  0.93441859577E-02  0.23581804991E-01  0.00000000000E+00 0. -1.
     999901    1    3    3    0    0 -0.55244434037E-01 -0.82932471331E-01  0.43153467519E-01  0.88667466641E+00  0.88000000000E+00 0. -1.
        -11    1    4    4    0    0  0.40126103689E-01  0.74800178222E-01 -0.41852874243E-01  0.94641930785E-01  0.51100000000E-03 0. -1.
         11    1    4    4    0    0  0.26633931606E-01  0.26467468131E-01 -0.10644779234E-01  0.39031597815E-01  0.51100000000E-03 0.  1.
</event>
<event>
 8    1  0.1081309E+005  0.1043930E+01  0.7957747E-01            NaN
         13   -1    0    0    0    0  0.00000000000E+00  0.00000000000E+00  0.74505805969E-08  0.10566000000E+00  0.10566000000E+00 0.  1.
     999900   -1    0    0    0    0 -0.00000000000E+00 -0.00000000000E+00 -0.74505805969E-08  0.93827000000E+00  0.93827000000E+00 0. -1.
     999902    2    1    2    0    0  0.16519203562E-02  0.17471588482E-01  0.16101366760E-01  0.10201132148E+01  0.10198351493E+01 0.  0.
     999903    2    3    3    0    0 -0.11828168778E+00 -0.48261858681E-01 -0.89955850565E-03  0.12938655197E+00  0.20501364776E-01 0.  0.
         14    1    1    2    0    0 -0.16519203562E-02 -0.17471588482E-01 -0.16101366760E-01  0.23816785184E-01  0.00000000000E+00 0. -1.
     999901    1    3    3    0    0  0.11993360814E+00  0.65733447163E-01  0.17000925265E-01  0.89072666284E+00  0.88000000000E+00 0. -1.
        -11    1    4    4    0    0 -0.59123480443E-01 -0.27351517174E-01 -0.10248466094E-01  0.65946824106E-01  0.51100000000E-03 0. -1.
         11    1    4    4    0    0 -0.59158207342E-01 -0.20910341507E-01  0.93489075888E-02  0.63439727868E-01  0.51100000000E-03 0.  1.
</event>
<event>
 8    1  0.1081309E+005  0.1043930E+01  0.7957747E-01            NaN
         13   -1    0    0    0    0  0.00000000000E+00  0.00000000000E+00  0.74505805969E-08  0.10566000000E+00  0.10566000000E+00 0. -1.
     999900   -1    0    0    0    0 -0.00000000000E+00 -0.00000000000E+00 -0.74505805969E-08  0.93827000000E+00  0.93827000000E+00 0.  1.
     999902    2    1    2    0    0  0.11571369926E-01  0.20225617658E-01  0.45273835808E-02  0.10201924893E+01  0.10199162935E+01 0.  0.
     999903    2    3    3    0    0 -0.21120307783E-01  0.72704814761E-01  0.10643226312E+00  0.13215678260E+00  0.20137801869E-01 0.  0.
         14    1    1    2    0    0 -0.11571369926E-01 -0.20225617658E-01 -0.45273835808E-02  0.23737510689E-01  0.00000000000E+00 0. -1.
     999901    1    3    3    0    0  0.32691677709E-01 -0.52479197102E-01 -0.10190487954E+00  0.88803570671E+00  0.88000000000E+00 0.  1.
        -11    1    4    4    0    0 -0.15013546076E-01  0.29442085555E-01  0.59278143189E-01  0.67870482160E-01  0.51100000000E-03 0. -1.
         11    1    4    4    0    0 -0.61067617066E-02  0.43262729206E-01  0.47154119931E-01  0.64286300440E-01  0.51100000000E-03 0.  1.
</event>
<event>
 8    1  0.1081309E+005  0.1043930E+01  0.7957747E-01            NaN
         13   -1    0    0    0    0  0.00000000000E+00  0.00000000000E+00  0.74505805969E-08  0.10566000000E+00  0.10566000000E+00 0.  1.
     999900   -1    0    0    0    0 -0.00000000000E+00 -0.00000000000E+00 -0.74505805969E-08  0.93827000000E+00  0.93827000000E+00 0.  1.
     999902    2    1    2    0    0  0.57668239118E-02  0.15031262920E-01  0.16978035521E-01  0.10205323759E+01  0.10202641234E+01 0.  0.
     999903    2    3    3    0    0 -0.11866463177E+00 -0.39575019316E-01 -0.24708357378E-01  0.12912742384E+00  0.20393912721E-01 0.  0.
         14    1    1    2    0    0 -0.57668239118E-02 -0.15031262920E-01 -0.16978035521E-01  0.23397624091E-01  0.00000000000E+00 0. -1.
     999901    1    3    3    0    0  0.12443145568E+00  0.54606282236E-01  0.41686392898E-01  0.89140495207E+00  0.88000000000E+00 0. -1.
        -11    1    4    4    0    0 -0.46651096954E-01 -0.10492865307E-01 -0.18286631540E-01  0.51196553433E-01  0.51100000000E-03 0. -1.
         11    1    4    4    0    0 -0.72013534816E-01 -0.29082154009E-01 -0.64217258378E-02  0.77930870406E-01  0.51100000000E-03 0.  1.
</event>
<event>
 8    1  0.1081309E+005  0.1043930E+01  0.7957747E-01            NaN
         13   -1    0    0    0    0  0.00000000000E+00  0.00000000000E+00  0.74505805969E-08  0.10566000000E+00  0.10566000000E+00 0.  1.
     999900   -1    0    0    0    0 -0.00000000000E+00 -0.00000000000E+00 -0.74505805969E-08  0.93827000000E+00  0.93827000000E+00 0. -1.
     999902    2    1    2    0    0  0.12501407053E-04  0.21315744230E-01  0.12797146929E-01  0.10190678183E+01  0.10187644920E+01 0.  0.
     999903    2    3    3    0    0 -0.27966687338E-01  0.19270281679E-01 -0.12232638289E+00  0.12831230347E+00  0.18623209041E-01 0.  0.
         14    1    1    2    0    0 -0.12501407053E-04 -0.21315744230E-01 -0.12797146929E-01  0.24862181680E-01  0.00000000000E+00 0. -1.
     999901    1    3    3    0    0  0.27979188745E-01  0.20454625512E-02  0.13512352982E+00  0.89075551485E+00  0.88000000000E+00 0.  1.
        -11    1    4    4    0    0  0.25894138078E-02  0.33591057590E-02 -0.12724971579E-01  0.13422916153E-01  0.51100000000E-03 0.  1.
         11    1    4    4    0    0 -0.30556101146E-01  0.15911175920E-01 -0.10960141131E+00  0.11488938732E+00  0.51100000000E-03 0. -1.
</event>
<event>
 8    1  0.1081309E+005  0.1043930E+01  0.7957747E-01            NaN
         13   -1    0    0    0    0  0.00000000000E+00  0.00000000000E+00  0.74505805969E-08  0.10566000000E+00  0.10566000000E+00 0.  1.
     999900   -1    0    0    0    0 -0.00000000000E+00 -0.00000000000E+00 -0.74505805969E-08  0.93827000000E+00  0.93827000000E+00 0.  1.
     999902    2    1    2    0    0 -0.91133827422E-02 -0.47320134911E-02 -0.20361746913E-01  0.10211254734E+01  0.10208707979E+01 0.  0.
     999903    2    3    3    0    0 -0.53479609505E-01 -0.67761520289E-01  0.95132487806E-01  0.13023827567E+00  0.21450546574E-01 0.  0.
         14    1    1    2    0    0  0.91133827422E-02  0.47320134911E-02  0.20361746913E-01  0.22804526613E-01  0.00000000000E+00 0.  1.
     999901    1    3    3    0    0  0.44366226763E-01  0.63029506798E-01 -0.11549423472E+00  0.89088719772E+00  0.88000000000E+00 0.  1.
        -11    1    4    4    0    0 -0.39090498115E-01 -0.44158617189E-01  0.50043791816E-01  0.77347868331E-01  0.51100000000E-03 0.  1.
         11    1    4    4    0    0 -0.14389111390E-01 -0.23602903100E-01  0.45088695990E-01  0.52890407338E-01  0.51100000000E-03 0. -1.
</event>
<event>
 7    1  0.1081309E+005  0.1043930E+01  0.7957747E-01            NaN
         13   -1    0    0    0    0  0.00000000000E+00  0.00000000000E+00  0.74505805969E-08  0.10566000000E+00  0.10566000000E+00 0.  1.
     999900   -1    0    0    0    0 -0.00000000000E+00 -0.00000000000E+00 -0.74505805969E-08  0.93827000000E+00  0.93827000000E+00 0. -1.
     999902    2    1    2    0    0 -0.79785479281E-02  0.21320706219E-01  0.48914637376E-02  0.10206457530E+01  0.10203801238E+01 0.  0.
         14    1    1    2    0    0  0.79785479281E-02 -0.21320706219E-01 -0.48914637376E-02  0.23284246997E-01  0.00000000000E+00 0.  1.
     999901    1    3    3    0    0 -0.74329835446E-02 -0.69961565428E-01 -0.72590549473E-01  0.88578736599E+00  0.88000000000E+00 0.  1.
        -11    1    3    3    0    0 -0.56549938961E-03  0.80146579251E-01  0.88350870319E-01  0.11928927597E+00  0.51100000000E-03 0.  1.
         11    1    3    3    0    0  0.19935006107E-04  0.11135692397E-01 -0.10868857109E-01  0.15569111035E-01  0.51100000000E-03 0. -1.
</event>
<event>
 8    1  0.1081309E+005  0.1043930E+01  0.7957747E-01            NaN
         13   -1    0    0    0    0  0.00000000000E+00  0.00000000000E+00  0.74505805969E-08  0.10566000000E+00  0.10566000000E+00 0. -1.
     999900   -1    0    0    0    0 -0.00000000000E+00 -0.00000000000E+00 -0.74505805969E-08  0.93827000000E+00  0.93827000000E+00 0.  1.
     999902    2    1    2    0    0 -0.96457611130E-02 -0.18739923790E-01 -0.95612743100E-02  0.10207860285E+01  0.10205236266E+01 0.  0.
     999903    2    3    3    0    0  0.15919713917E-01  0.98658414358E-01 -0.80393064018E-01  0.12980168196E+00  0.19962762413E-01 0.  0.
         14    1    1    2    0    0  0.96457611130E-02  0.18739923790E-01  0.95612743100E-02  0.23143971516E-01  0.00000000000E+00 0. -1.
     999901    1    3    3    0    0 -0.25565475030E-01 -0.11739833815E+00  0.70831789708E-01  0.89098434652E+00  0.88000000000E+00 0. -1.
        -11    1    4    4    0    0  0.73961526063E-02  0.11898892526E-01 -0.62146241246E-02  0.15335233638E-01  0.51100000000E-03 0.  1.
         11    1    4    4    0    0  0.85235613107E-02  0.86759521832E-01 -0.74178439893E-01  0.11446644832E+00  0.51100000000E-03 0. -1.
</event>
<event>
 8    1  0.1081309E+005  0.1043930E+01  0.7957747E-01            NaN
         13   -1    0    0    0    0  0.00000000000E+00  0.00000000000E+00  0.74505805969E-08  0.10566000000E+00  0.10566000000E+00 0. -1.
     999900   -1    0    0    0    0 -0.00000000000E+00 -0.00000000000E+00 -0.74505805969E-08  0.93827000000E+00  0.93827000000E+00 0.  1.
     999902    2    1    2    0    0 -0.63421987812E-02  0.91488862324E-02  0.20905476283E-01  0.10202453099E+01  0.10199703564E+01 0.  0.
     999903    2    3    3    0    0  0.81589114541E-01  0.80862457884E-01 -0.57520569034E-01  0.12950101621E+00  0.16321048727E-01 0.  0.
         14    1    1    2    0    0  0.63421987812E-02 -0.91488862324E-02 -0.20905476283E-01  0.23684690061E-01  0.00000000000E+00 0.  1.
     999901    1    3    3    0    0 -0.87931313322E-01 -0.71713571652E-01  0.78426045317E-01  0.89074429373E+00  0.88000000000E+00 0. -1.
        -11    1    4    4    0    0  0.67693180922E-01  0.58173121782E-01 -0.41429124867E-01  0.98402806614E-01  0.51100000000E-03 0. -1.
         11    1    4    4    0    0  0.13895933619E-01  0.22689336102E-01 -0.16091444166E-01  0.31098209599E-01  0.51100000000E-03 0.  1.
</event>
<event>
 8    1  0.1081309E+005  0.1043930E+01  0.7957747E-01            NaN
         13   -1    0    0    0    0  0.00000000000E+00  0.00000000000E+00  0.74505805969E-08  0.10566000000E+00  0.10566000000E+00 0.  1.
     999900   -1    0    0    0    0 -0.00000000000E+00 -0.00000000000E+00 -0.74505805969E-08  0.93827000000E+00  0.93827000000E+00 0. -1.
     999902    2    1    2    0    0  0.57219701976E-02 -0.22665911798E-01  0.34729207339E-02  0.10202964290E+01  0.10200226749E+01 0.  0.
     999903    2    3    3    0    0 -0.68048890620E-01  0.98374837931E-01  0.41808595881E-01  0.12812905288E+00  0.18995663946E-01 0.  0.
         14    1    1    2    0    0 -0.57219701976E-02  0.22665911798E-01 -0.34729207339E-02  0.23633571017E-01  0.00000000000E+00 0. -1.
     999901    1    3    3    0    0  0.73770860818E-01 -0.12104074973E+00 -0.38335675147E-01  0.89216737611E+00  0.88000000000E+00 0.  1.
        -11    1    4    4    0    0 -0.18165680861E-01  0.29772539091E-01  0.34962803333E-02  0.35055401042E-01  0.51100000000E-03 0. -1.
         11    1    4    4    0    0 -0.49883209760E-01  0.68602298840E-01  0.38312315547E-01  0.93073651834E-01  0.51100000000E-03 0.  1.
</event>
<event>
 8    1  0.1081309E+005  0.1043930E+01  0.7957747E-01            NaN
         13   -1    0    0    0    0  0.00000000000E+00  0.00000000000E+00  0.74505805969E-08  0.10566000000E+00  0.10566000000E+00 0.  1.
     999900   -1    0    0    0    0 -0.00000000000E+00 -0.00000000000E+00 -0.74505805969E-08  0.93827000000E+00  0.93827000000E+00 0. -1.
     999902    2    1    2    0    0  0.31154138486E-02 -0.22883783712E-01  0.23589851406E-02  0.10207149581E+01  0.10204509236E+01 0.  0.
     999903    2    3    3    0    0  0.52599232769E-01  0.11546189985E+00  0.20479583968E-02  0.12853320909E+00  0.20456346238E-01 0.  0.
         14    1    1    2    0    0 -0.31154138486E-02  0.22883783712E-01 -0.23589851406E-02  0.23215041920E-01  0.00000000000E+00 0.  1.
     999901    1    3    3    0    0 -0.49483818920E-01 -0.13834568356E+00  0.31102674386E-03  0.89218174899E+00  0.88000000000E+00 0.  1.
        -11    1    4    4    0    0  0.16080817628E-01  0.56314569585E-01  0.61988716314E-02  0.58894911271E-01  0.51100000000E-03 0.  1.
         11    1    4    4    0    0  0.36518415141E-01  0.59147330262E-01 -0.41509132347E-02  0.69638297819E-01  0.51100000000E-03 0. -1.
</event>
<event>
 8    1  0.1081309E+005  0.1043930E+01  0.7957747E-01            NaN
         13   -1    0    0    0    0  0.00000000000E+00  0.00000000000E+00  0.74505805969E-08  0.10566000000E+00  0.10566000000E+00 0.  1.
     999900   -1    0    0    0    0 -0.00000000000E+00 -0.00000000000E+00 -0.74505805969E-08  0.93827000000E+00  0.93827000000E+00 0. -1.
     999902    2    1    2    0    0  0.85024780640E-03 -0.21677128494E-01  0.10493478768E-01  0.10198315785E+01  0.10195468183E+01 0.  0.
     999903    2    3    3    0    0  0.12606356899E+00 -0.24184021811E-01 -0.13713120288E-01  0.13063496373E+00  0.20013838842E-01 0.  0.
         14    1    1    2    0    0 -0.85024780640E-03  0.21677128494E-01 -0.10493478768E-01  0.24098421478E-01  0.00000000000E+00 0. -1.
     999901    1    3    3    0    0 -0.12521332118E+00  0.25068933164E-02  0.24206599055E-01  0.88919661479E+00  0.88000000000E+00 0.  1.
        -11    1    4    4    0    0  0.65690150826E-01 -0.46119954589E-02 -0.76130078862E-03  0.65858235002E-01  0.51100000000E-03 0.  1.
         11    1    4    4    0    0  0.60373418159E-01 -0.19572026352E-01 -0.12951819499E-01  0.64776728731E-01  0.51100000000E-03 0. -1.
</event>
<event>
 8    1  0.1081309E+005  0.1043930E+01  0.7957747E-01            NaN
         13   -1    0    0    0    0  0.00000000000E+00  0.00000000000E+00  0.74505805969E-08  0.10566000000E+00  0.10566000000E+00 0.  1.
     999900   -1    0    0    0    0 -0.00000000000E+00 -0.00000000000E+00 -0.74505805969E-08  0.93827000000E+00  0.93827000000E+00 0. -1.
     999902    2    1    2    0    0  0.53022424235E-02 -0.21043134406E-01 -0.97220281600E-02  0.10201509102E+01  0.10198737346E+01 0.  0.
     999903    2    3    3    0    0  0.46817794983E-01  0.71299394890E-01  0.93709519610E-01  0.12832762675E+00  0.20273038339E-01 0.  0.
         14    1    1    2    0    0 -0.53022424235E-02  0.21043134406E-01  0.97220281600E-02  0.23779089803E-01  0.00000000000E+00 0.  1.
     999901    1    3    3    0    0 -0.41515552559E-01 -0.92342529295E-01 -0.10343154777E+00  0.89182328345E+00  0.88000000000E+00 0. -1.
        -11    1    4    4    0    0  0.41194724172E-01  0.66138707217E-01  0.75155738884E-01  0.10825885691E+00  0.51100000000E-03 0. -1.
         11    1    4    4    0    0  0.56230708104E-02  0.51606876725E-02  0.18553780726E-01  0.20068769838E-01  0.51100000000E-03 0.  1.
</event>
<event>
 7    1  0.1081309E+005  0.1043930E+01  0.7957747E-01            NaN
         13   -1    0    0    0    0  0.00000000000E+00  0.00000000000E+00  0.74505805969E-08  0.10566000000E+00  0.10566000000E+00 0.  1.
     999900   -1    0    0    0    0 -0.00000000000E+00 -0.00000000000E+00 -0.74505805969E-08  0.93827000000E+00  0.93827000000E+00 0. -1.
     999903    2    1    2    0    0  0.54995800318E-01 -0.63977378736E-01 -0.79810157330E-01  0.11812357092E+00  0.21584108761E-01 0.  0.
         14    1    1    2    0    0 -0.62626217336E-02  0.37858054903E-01  0.16597150720E-01  0.41808111223E-01  0.00000000000E+00 0. -1.
     999901    1    1    2    0    0 -0.48733178585E-01  0.26119323833E-01  0.63213006610E-01  0.88399831786E+00  0.88000000000E+00 0.  1.
        -11    1    3    3    0    0  0.32448969929E-01 -0.48150705058E-01 -0.63757735351E-01  0.86236511902E-01  0.51100000000E-03 0. -1.
         11    1    3    3    0    0  0.22546830389E-01 -0.15826673678E-01 -0.16052421979E-01  0.31887059016E-01  0.51100000000E-03 0.  1.
</event>
<event>
 8    1  0.1081309E+005  0.1043930E+01  0.7957747E-01            NaN
         13   -1    0    0    0    0  0.00000000000E+00  0.00000000000E+00  0.74505805969E-08  0.10566000000E+00  0.10566000000E+00 0.  1.
     999900   -1    0    0    0    0 -0.00000000000E+00 -0.00000000000E+00 -0.74505805969E-08  0.93827000000E+00  0.93827000000E+00 0.  1.
     999902    2    1    2    0    0 -0.14735392046E-01 -0.18481162293E-01  0.30078157177E-02  0.10201028706E+01  0.10198245607E+01 0.  0.
     999903    2    3    3    0    0 -0.10518193304E+00  0.52902193267E-01  0.54223376341E-01  0.13111513513E+00  0.19726201552E-01 0.  0.
         14    1    1    2    0    0  0.14735392046E-01  0.18481162293E-01 -0.30078157177E-02  0.23827129366E-01  0.00000000000E+00 0.  1.
     999901    1    3    3    0    0  0.90446540993E-01 -0.71383355560E-01 -0.51215560624E-01  0.88898773551E+00  0.88000000000E+00 0.  1.
        -11    1    4    4    0    0 -0.40724036055E-01  0.21170654763E-01  0.31836952767E-01  0.55861403654E-01  0.51100000000E-03 0. -1.
         11    1    4    4    0    0 -0.64457896984E-01  0.31731538504E-01  0.22386423575E-01  0.75253731475E-01  0.51100000000E-03 0.  1.
</event>
<event>
 8    1  0.1081309E+005  0.1043930E+01  0.7957747E-01            NaN
         13   -1    0    0    0    0  0.00000000000E+00  0.00000000000E+00  0.74505805969E-08  0.10566000000E+00  0.10566000000E+00 0. -1.
     999900   -1    0    0    0    0 -0.00000000000E+00 -0.00000000000E+00 -0.74505805969E-08  0.93827000000E+00  0.93827000000E+00 0.  1.
     999902    2    1    2    0    0  0.20442928177E-01 -0.49014402743E-02 -0.13014009247E-01  0.10192054805E+01  0.10189055450E+01 0.  0.
     999903    2    3    3    0    0  0.41605331383E-01 -0.52829258993E-01 -0.11321479999E+00  0.13197094464E+00  0.87638511459E-02 0.  0.
         14    1    1    2    0    0 -0.20442928177E-01  0.49014402743E-02  0.13014009247E-01  0.24724519528E-01  0.00000000000E+00 0. -1.
     999901    1    3    3    0    0 -0.21162403207E-01  0.47927818718E-01  0.10020079074E+00  0.88723453584E+00  0.88000000000E+00 0. -1.
        -11    1    4    4    0    0  0.29080660565E-01 -0.32906806443E-01 -0.79987800191E-01  0.91251586450E-01  0.51100000000E-03 0. -1.
         11    1    4    4    0    0  0.12524670818E-01 -0.19922452550E-01 -0.33226999795E-01  0.40719358186E-01  0.51100000000E-03 0.  1.
</event>
<event>
 8    1  0.1081309E+005  0.1043930E+01  0.7957747E-01            NaN
         13   -1    0    0    0    0  0.00000000000E+00  0.00000000000E+00  0.74505805969E-08  0.10566000000E+00  0.10566000000E+00 0.  1.
     999900   -1    0    0    0    0 -0.00000000000E+00 -0.00000000000E+00 -0.74505805969E-08  0.93827000000E+00  0.93827000000E+00 0. -1.
     999902    2    1    2    0    0  0.10914893550E-01  0.19168834436E-01 -0.81652928749E-02  0.10204087092E+01  0.10201375802E+01 0.  0.
     999903    2    3    3    0    0 -0.20001972592E-01 -0.12306013388E+00  0.20712564077E-01  0.12798568018E+00  0.20185355166E-01 0.  0.
         14    1    1    2    0    0 -0.10914893550E-01 -0.19168834436E-01  0.81652928749E-02  0.23521290836E-01  0.00000000000E+00 0. -1.
     999901    1    3    3    0    0  0.30916866142E-01  0.14222896831E+00 -0.28877856952E-01  0.89242302898E+00  0.88000000000E+00 0.  1.
        -11    1    4    4    0    0  0.31741475592E-02 -0.55922802184E-02 -0.12914880826E-03  0.64518688133E-02  0.51100000000E-03 0.  1.
         11    1    4    4    0    0 -0.23176120151E-01 -0.11746785366E+00  0.20841712885E-01  0.12153381137E+00  0.51100000000E-03 0. -1.
</event>
<event>
 8    1  0.1081309E+005  0.1043930E+01  0.7957747E-01            NaN
         13   -1    0    0    0    0  0.00000000000E+00  0.00000000000E+00  0.74505805969E-08  0.10566000000E+00  0.10566000000E+00 0. -1.
     999900   -1    0    0    0    0 -0.00000000000E+00 -0.00000000000E+00 -0.74505805969E-08  0.93827000000E+00  0.93827000000E+00 0. -1.
     999902    2    1    2    0    0  0.14967786019E-01  0.13151316804E-01  0.11089625616E-01  0.10211271154E+01  0.10208724769E+01 0.  0.
     999903    2    3    3    0    0 -0.48321864693E-01  0.23521907786E-01 -0.11623449651E+00  0.12965386218E+00  0.20282579855E-01 0.  0.
         14    1    1    2    0    0 -0.14967786019E-01 -0.13151316804E-01 -0.11089625616E-01  0.22802884648E-01  0.00000000000E+00 0.  1.
     999901    1    3    3    0    0  0.63289650712E-01 -0.10370590983E-01  0.12732412213E+00  0.89147325317E+00  0.88000000000E+00 0.  1.
        -11    1    4    4    0    0 -0.10811030024E-01  0.12437132709E-01 -0.21001562165E-01  0.26699950834E-01  0.51100000000E-03 0.  1.
         11    1    4    4    0    0 -0.37510834669E-01  0.11084775077E-01 -0.95232934347E-01  0.10295391135E+00  0.51100000000E-03 0. -1.
</event>
<event>
 8    1  0.1081309E+005  0.1043930E+01  0.7957747E-01            NaN
         13   -1    0    0    0    0  0.00000000000E+00  0.00000000000E+00  0.74505805969E-08  0.10566000000E+00  0.10566000000E+00 0.  1.
     999900   -1    0    0    0    0 -0.00000000000E+00 -0.00000000000E+00 -0.74505805969E-08  0.93827000000E+00  0.93827000000E+00 0.  1.
     999902    2    1    2    0    0  0.12452297362E-01 -0.17382514324E-01 -0.11442839158E-01  0.10196781943E+01  0.10193897536E+01 0.  0.
     999903    2    3    3    0    0 -0.11287305033E+00 -0.19216245780E-01  0.54337156245E-01  0.12836634471E+00  0.20391231288E-01 0.  0.
         14    1    1    2    0    0 -0.12452297362E-01  0.17382514324E-01  0.11442839158E-01  0.24251805744E-01  0.00000000000E+00 0. -1.
     999901    1    3    3    0    0  0.12532534769E+00  0.18337314555E-02 -0.65779995403E-01  0.89131184955E+00  0.88000000000E+00 0. -1.
        -11    1    4    4    0    0 -0.61910296239E-01 -0.21656323944E-02  0.22545641537E-01  0.65925274496E-01  0.51100000000E-03 0.  1.
         11    1    4    4    0    0 -0.50962754089E-01 -0.17050613385E-01  0.31791514707E-01  0.62441070215E-01  0.51100000000E-03 0. -1.
</event>
<event>
 8    1  0.1081309E+005  0.1043930E+01  0.7957747E-01            NaN
         13   -1    0    0    0    0  0.00000000000E+00  0.00000000000E+00  0.74505805969E-08  0.10566000000E+00  0.10566000000E+00 0. -1.
     999900   -1    0    0    0    0 -0.00000000000E+00 -0.00000000000E+00 -0.74505805969E-08  0.93827000000E+00  0.93827000000E+00 0.  1.
     999902    2    1    2    0    0 -0.81987204191E-02  0.30685304658E-01 -0.15748936246E-01  0.10084781181E+01  0.10078547905E+01 0.  0.
     999903    2    3    3    0    0  0.93593951177E-01  0.42005617671E-01 -0.61558768081E-01  0.12135442988E+00  0.20325257974E-01 0.  0.
         14    1    1    2    0    0  0.81987204191E-02 -0.30685304658E-01  0.15748936246E-01  0.35451881915E-01  0.00000000000E+00 0. -1.
     999901    1    3    3    0    0 -0.10179267160E+00 -0.11320313013E-01  0.45809831835E-01  0.88712368820E+00  0.88000000000E+00 0. -1.
        -11    1    4    4    0    0  0.77978467255E-01  0.34977568942E-01 -0.41602091376E-01  0.95052968457E-01  0.51100000000E-03 0.  1.
         11    1    4    4    0    0  0.15615483922E-01  0.70280487286E-02 -0.19956676705E-01  0.26301461426E-01  0.51100000000E-03 0. -1.
</event>
<event>
 8    1  0.1081309E+005  0.1043930E+01  0.7957747E-01            NaN
         13   -1    0    0    0    0  0.00000000000E+00  0.00000000000E+00  0.74505805969E-08  0.10566000000E+00  0.10566000000E+00 0. -1.
     999900   -1    0    0    0    0 -0.00000000000E+00 -0.00000000000E+00 -0.74505805969E-08  0.93827000000E+00  0.93827000000E+00 0.  1.
     999902    2    1    2    0    0  0.10389723425E-01 -0.45440825729E-02  0.20610428066E-01  0.10204058680E+01  0.10201346729E+01 0.  0.
     999903    2    3    3    0    0  0.10162937953E+00 -0.80349315596E-01  0.18680584955E-01  0.13244481456E+00  0.20202013525E-01 0.  0.
         14    1    1    2    0    0 -0.10389723425E-01  0.45440825729E-02 -0.20610428066E-01  0.23524131957E-01  0.00000000000E+00 0.  1.
     999901    1    3    3    0    0 -0.91239656105E-01  0.75805233023E-01  0.19298431109E-02  0.88796105348E+00  0.88000000000E+00 0. -1.
        -11    1    4    4    0    0  0.71508415182E-01 -0.50499451843E-01  0.20806296291E-01  0.89982282504E-01  0.51100000000E-03 0. -1.
         11    1    4    4    0    0  0.30120964348E-01 -0.29849863753E-01 -0.21257113361E-02  0.42462532061E-01  0.51100000000E-03 0.  1.
</event>
<event>
 8    1  0.1081309E+005  0.1043930E+01  0.7957747E-01            NaN
         13   -1    0    0    0    0  0.00000000000E+00  0.00000000000E+00  0.74505805969E-08  0.10566000000E+00  0.10566000000E+00 0. -1.
     999900   -1    0    0    0    0 -0.00000000000E+00 -0.00000000000E+00 -0.74505805969E-08  0.93827000000E+00  0.93827000000E+00 0.  1.
     999902    2    1    2    0    0 -0.12650206970E-01  0.12965849210E-01 -0.15582984750E-01  0.10200350132E+01  0.10197550969E+01 0.  0.
     999903    2    3    3    0    0  0.28079423239E-01 -0.94423749068E-03  0.12339286279E+00  0.12808956669E+00  0.19793759426E-01 0.  0.
         14    1    1    2    0    0  0.12650206970E-01 -0.12965849210E-01  0.15582984750E-01  0.23894986834E-01  0.00000000000E+00 0.  1.
     999901    1    3    3    0    0 -0.40729630208E-01  0.13910086700E-01 -0.13897584754E+00  0.89194544648E+00  0.88000000000E+00 0.  1.
        -11    1    4    4    0    0  0.16197804653E-01 -0.48685969925E-02  0.10121844617E+00  0.10262313130E+00  0.51100000000E-03 0. -1.
         11    1    4    4    0    0  0.11881618585E-01  0.39243595018E-02  0.22174416629E-01  0.25466435392E-01  0.51100000000E-03 0.  1.
</event>
<event>
 8    1  0.1081309E+005  0.1043930E+01  0.7957747E-01            NaN
         13   -1    0    0    0    0  0.00000000000E+00  0.00000000000E+00  0.74505805969E-08  0.10566000000E+00  0.10566000000E+00 0. -1.
     999900   -1    0    0    0    0 -0.00000000000E+00 -0.00000000000E+00 -0.74505805969E-08  0.93827000000E+00  0.93827000000E+00 0. -1.
     999902    2    1    2    0    0  0.14756557225E-01 -0.14819348923E-02 -0.18349145592E-01  0.10203367116E+01  0.10200639009E+01 0.  0.
     999903    2    3    3    0    0  0.88864529904E-01  0.68659582547E-01 -0.68507582358E-01  0.13302183355E+00  0.19760475950E-01 0.  0.
         14    1    1    2    0    0 -0.14756557225E-01  0.14819348923E-02  0.18349145592E-01  0.23593288370E-01  0.00000000000E+00 0. -1.
     999901    1    3    3    0    0 -0.74107972679E-01 -0.70141517440E-01  0.50158436766E-01  0.88731487808E+00  0.88000000000E+00 0.  1.
        -11    1    4    4    0    0  0.37662532489E-01  0.17276601944E-01 -0.26702835447E-01  0.49297564546E-01  0.51100000000E-03 0.  1.
         11    1    4    4    0    0  0.51201997414E-01  0.51382980603E-01 -0.41804746911E-01  0.83724269004E-01  0.51100000000E-03 0. -1.
</event>
<event>
 8    1  0.1081309E+005  0.1043930E+01  0.7957747E-01            NaN
         13   -1    0    0    0    0  0.00000000000E+00  0.00000000000E+00  0.74505805969E-08  0.10566000000E+00  0.10566000000E+00 0. -1.
     999900   -1    0    0    0    0 -0.00000000000E+00 -0.00000000000E+00 -0.74505805969E-08  0.93827000000E+00  0.93827000000E+00 0. -1.
     999902    2    1    2    0    0  0.88643690940E-02 -0.39199741863E-02 -0.23357653244E-01  0.10186412040E+01  0.10183272457E+01 0.  0.
     999903    2    3    3    0    0  0.12150754794E+00  0.18741999925E-01 -0.40669647000E-01  0.13100290159E+00  0.19808918994E-01 0.  0.
         14    1    1    2    0    0 -0.88643690940E-02  0.39199741863E-02  0.23357653244E-01  0.25288795980E-01  0.00000000000E+00 0. -1.
     999901    1    3    3    0    0 -0.11264317884E+00 -0.22661974111E-01  0.17311993756E-01  0.88763830243E+00  0.88000000000E+00 0.  1.
        -11    1    4    4    0    0  0.65144942633E-01  0.52241266901E-04 -0.21119814912E-01  0.68484844913E-01  0.51100000000E-03 0.  1.
         11    1    4    4    0    0  0.56362605303E-01  0.18689758658E-01 -0.19549832088E-01  0.62518056679E-01  0.51100000000E-03 0. -1.
</event>
<event>
 8    1  0.1081309E+005  0.1043930E+01  0.7957747E-01            NaN
         13   -1    0    0    0    0  0.00000000000E+00  0.00000000000E+00  0.74505805969E-08  0.10566000000E+00  0.10566000000E+00 0.  1.
     999900   -1    0    0    0    0 -0.00000000000E+00 -0.00000000000E+00 -0.74505805969E-08  0.93827000000E+00  0.93827000000E+00 0.  1.
     999902    2    1    2    0    0  0.18984957862E-01 -0.11391245303E-01  0.41230080926E-02  0.10214091588E+01  0.10211608499E+01 0.  0.
     999903    2    3    3    0    0  0.61334798000E-01  0.11395831428E+00  0.33822540808E-02  0.13151783406E+00  0.23174257180E-01 0.  0.
         14    1    1    2    0    0 -0.18984957862E-01  0.11391245303E-01 -0.41230080926E-02  0.22520841243E-01  0.00000000000E+00 0.  1.
     999901    1    3    3    0    0 -0.42349840139E-01 -0.12534955958E+00  0.74075401185E-03  0.88989132469E+00  0.88000000000E+00 0. -1.
        -11    1    4    4    0    0  0.24871685413E-01  0.26905499814E-01 -0.39234502963E-02  0.36853239190E-01  0.51100000000E-03 0.  1.
         11    1    4    4    0    0  0.36463112587E-01  0.87052814462E-01  0.73057043771E-02  0.94664594874E-01  0.51100000000E-03 0. -1.
</event>
<event>
 7    1  0.1218672E+005  0.1043930E+01  0.7957747E-01            NaN
         13   -1    0    0    0    0  0.00000000000E+00  0.00000000000E+00  0.74505805969E-08  0.10566000000E+00  0.10566000000E+00 0.  1.
     999900   -1    0    0    0    0 -0.00000000000E+00 -0.00000000000E+00 -0.74505805969E-08  0.93827000000E+00  0.93827000000E+00 0.  1.
     999903    2    1    2    0    0 -0.75890480156E-03 -0.25924632473E-01 -0.93434359057E-01  0.99267277195E-01  0.21245007973E-01 0.  0.
         14    1    1    2    0    0 -0.41384922177E-01 -0.11453733206E-01 -0.32582219458E-01  0.53902697639E-01  0.00000000000E+00 0. -1.
     999901    1    1    2    0    0  0.42143826979E-01  0.37378365680E-01  0.12601657852E+00  0.89076002517E+00  0.88000000000E+00 0.  1.
        -11    1    3    3    0    0  0.83663968834E-02 -0.73779465184E-02 -0.49023204000E-01  0.50278885659E-01  0.51100000000E-03 0.  1.
         11    1    3    3    0    0 -0.91253016850E-02 -0.18546685955E-01 -0.44411155057E-01  0.48988391536E-01  0.51100000000E-03 0. -1.
</event>
<event>
 8    1  0.1081309E+005  0.1043930E+01  0.7957747E-01            NaN
         13   -1    0    0    0    0  0.00000000000E+00  0.00000000000E+00  0.74505805969E-08  0.10566000000E+00  0.10566000000E+00 0.  1.
     999900   -1    0    0    0    0 -0.00000000000E+00 -0.00000000000E+00 -0.74505805969E-08  0.93827000000E+00  0.93827000000E+00 0.  1.
     999902    2    1    2    0    0  0.96825018557E-02  0.24612376538E-01 -0.41525740180E-02  0.10171575554E+01  0.10168051577E+01 0.  0.
     999903    2    3    3    0    0 -0.11514701839E-01  0.12868410158E+00  0.45582505765E-02  0.13072869535E+00  0.19417203230E-01 0.  0.
         14    1    1    2    0    0 -0.96825018557E-02 -0.24612376538E-01  0.41525740180E-02  0.26772444640E-01  0.00000000000E+00 0. -1.
     999901    1    3    3    0    0  0.21197203695E-01 -0.10407172504E+00 -0.87108245945E-02  0.88642886001E+00  0.88000000000E+00 0. -1.
        -11    1    4    4    0    0 -0.16729151537E-01  0.10540937594E+00  0.52829297522E-02  0.10686052365E+00  0.51100000000E-03 0.  1.
         11    1    4    4    0    0  0.52144496977E-02  0.23274725636E-01 -0.72467917566E-03  0.23868171693E-01  0.51100000000E-03 0. -1.
</event>
<event>
 8    1  0.1081309E+005  0.1043930E+01  0.7957747E-01            NaN
         13   -1    0    0    0    0  0.00000000000E+00  0.00000000000E+00  0.74505805969E-08  0.10566000000E+00  0.10566000000E+00 0. -1.
     999900   -1    0    0    0    0 -0.00000000000E+00 -0.00000000000E+00 -0.74505805969E-08  0.93827000000E+00  0.93827000000E+00 0. -1.
     999902    2    1    2    0    0 -0.27252142310E-02 -0.13375830414E-01  0.19136226911E-01  0.10204239409E+01  0.10201531671E+01 0.  0.
     999903    2    3    3    0    0 -0.73943609748E-01  0.81400215919E-01  0.68375175140E-01  0.13111014209E+00  0.20519556727E-01 0.  0.
         14    1    1    2    0    0  0.27252142310E-02  0.13375830414E-01 -0.19136226911E-01  0.23506059054E-01  0.00000000000E+00 0.  1.
     999901    1    3    3    0    0  0.71218395517E-01 -0.94776046333E-01 -0.49238948229E-01  0.88931379886E+00  0.88000000000E+00 0. -1.
        -11    1    4    4    0    0 -0.13937060477E-01  0.27956016119E-01  0.23303234845E-01  0.38975407211E-01  0.51100000000E-03 0.  1.
         11    1    4    4    0    0 -0.60006549272E-01  0.53444199800E-01  0.45071940296E-01  0.92134734876E-01  0.51100000000E-03 0. -1.
</event>
<event>
 8    1  0.1081309E+005  0.1043930E+01  0.7957747E-01            NaN
         13   -1    0    0    0    0  0.00000000000E+00  0.00000000000E+00  0.74505805969E-08  0.10566000000E+00  0.10566000000E+00 0. -1.
     999900   -1    0    0    0    0 -0.00000000000E+00 -0.00000000000E+00 -0.74505805969E-08  0.93827000000E+00  0.93827000000E+00 0. -1.
     999902    2    1    2    0    0  0.30643766209E-03  0.11239152076E-01 -0.21330690678E-01  0.10198175383E+01  0.10195324422E+01 0.  0.
     999903    2    3    3    0    0 -0.45426151726E-01  0.99418011743E-02  0.11734687574E+00  0.12778355899E+00  0.19899096236E-01 0.  0.
         14    1    1    2    0    0 -0.30643766209E-03 -0.11239152076E-01  0.21330690678E-01  0.24112461679E-01  0.00000000000E+00 0. -1.
     999901    1    3    3    0    0  0.45732589388E-01  0.12973509014E-02 -0.13867756642E+00  0.89203397933E+00  0.88000000000E+00 0. -1.
        -11    1    4    4    0    0 -0.40743209214E-01  0.14731883995E-02  0.91228041305E-01  0.99924951951E-01  0.51100000000E-03 0. -1.
         11    1    4    4    0    0 -0.46829425118E-02  0.84686127747E-02  0.26118834436E-01  0.27858607040E-01  0.51100000000E-03 0.  1.
</event>
<event>
 8    1  0.1081309E+005  0.1043930E+01  0.7957747E-01            NaN
         13   -1    0    0    0    0  0.00000000000E+00  0.00000000000E+00  0.74505805969E-08  0.10566000000E+00  0.10566000000E+00 0.  1.
     999900   -1    0    0    0    0 -0.00000000000E+00 -0.00000000000E+00 -0.74505805969E-08  0.93827000000E+00  0.93827000000E+00 0. -1.
     999902    2    1    2    0    0  0.13110046913E-01  0.11232586552E-01  0.16870345574E-01  0.10197917960E+01  0.10195060835E+01 0.  0.
     999903    2    3    3    0    0 -0.97158364199E-01 -0.38221238209E-01 -0.69275298615E-01  0.12736483808E+00  0.22850037145E-01 0.  0.
         14    1    1    2    0    0 -0.13110046913E-01 -0.11232586552E-01 -0.16870345574E-01  0.24138203962E-01  0.00000000000E+00 0.  1.
     999901    1    3    3    0    0  0.11026841111E+00  0.49453824762E-01  0.86145644189E-01  0.89242695796E+00  0.88000000000E+00 0.  1.
        -11    1    4    4    0    0 -0.23506710373E-01 -0.14342775904E-01 -0.81641750231E-02  0.28726216737E-01  0.51100000000E-03 0.  1.
         11    1    4    4    0    0 -0.73651653826E-01 -0.23878462305E-01 -0.61111123592E-01  0.98638621346E-01  0.51100000000E-03 0. -1.
</event>
<event>
 8    1  0.1081309E+005  0.1043930E+01  0.7957747E-01            NaN
         13   -1    0    0    0    0  0.00000000000E+00  0.00000000000E+00  0.74505805969E-08  0.10566000000E+00  0.10566000000E+00 0.  1.
     999900   -1    0    0    0    0 -0.00000000000E+00 -0.00000000000E+00 -0.74505805969E-08  0.93827000000E+00  0.93827000000E+00 0. -1.
     999902    2    1    2    0    0 -0.13758705250E-01 -0.15761167047E-02 -0.18938490550E-01  0.10204682750E+01  0.10201985335E+01 0.  0.
     999903    2    3    3    0    0  0.53856576106E-01  0.38852562290E-01 -0.11211120830E+00  0.13204975897E+00  0.21404752506E-01 0.  0.
         14    1    1    2    0    0  0.13758705250E-01  0.15761167047E-02  0.18938490550E-01  0.23461724964E-01  0.00000000000E+00 0. -1.
     999901    1    3    3    0    0 -0.67615281355E-01 -0.40428678994E-01  0.93172717754E-01  0.88841851607E+00  0.88000000000E+00 0.  1.
        -11    1    4    4    0    0  0.39157475560E-01  0.30418452289E-01 -0.63504492495E-01  0.80570911748E-01  0.51100000000E-03 0. -1.
         11    1    4    4    0    0  0.14699100546E-01  0.84341100009E-02 -0.48606715808E-01  0.51478847219E-01  0.51100000000E-03 0.  1.
</event>
<event>
 8    1  0.1081309E+005  0.1043930E+01  0.7957747E-01            NaN
         13   -1    0    0    0    0  0.00000000000E+00  0.00000000000E+00  0.74505805969E-08  0.10566000000E+00  0.10566000000E+00 0. -1.
     999900   -1    0    0    0    0 -0.00000000000E+00 -0.00000000000E+00 -0.74505805969E-08  0.93827000000E+00  0.93827000000E+00 0. -1.
     999902    2    1    2    0    0  0.44489797910E-03  0.22370735378E-01 -0.71669332245E-02  0.10204350502E+01  0.10201645352E+01 0.  0.
     999903    2    3    3    0    0 -0.11586018814E+00 -0.52841268723E-01  0.92865612078E-02  0.12944995709E+00  0.21337017015E-01 0.  0.
         14    1    1    2    0    0 -0.44489797910E-03 -0.22370735378E-01  0.71669332245E-02  0.23494949828E-01  0.00000000000E+00 0. -1.
     999901    1    3    3    0    0  0.11630508612E+00  0.75212004101E-01 -0.16453494432E-01  0.89098509308E+00  0.88000000000E+00 0. -1.
        -11    1    4    4    0    0 -0.64674898606E-01 -0.28831393167E-01  0.15750337228E-01  0.72542580499E-01  0.51100000000E-03 0. -1.
         11    1    4    4    0    0 -0.51185289533E-01 -0.24009875556E-01 -0.64637760198E-02  0.56907376589E-01  0.51100000000E-03 0.  1.
</event>
<event>
 8    1  0.1081309E+005  0.1043930E+01  0.7957747E-01            NaN
         13   -1    0    0    0    0  0.00000000000E+00  0.00000000000E+00  0.74505805969E-08  0.10566000000E+00  0.10566000000E+00 0.  1.
     999900   -1    0    0    0    0 -0.00000000000E+00 -0.00000000000E+00 -0.74505805969E-08  0.93827000000E+00  0.93827000000E+00 0.  1.
     999902    2    1    2    0    0  0.21728282512E-01 -0.40526558338E-03 -0.77277254534E-02  0.10208648696E+01  0.10206042728E+01 0.  0.
     999903    2    3    3    0    0 -0.78906527746E-01  0.98268388354E-01 -0.21980789475E-01  0.12953608351E+00  0.20335327764E-01 0.  0.
         14    1    1    2    0    0 -0.21728282512E-01  0.40526558338E-03  0.77277254534E-02  0.23065130431E-01  0.00000000000E+00 0. -1.
     999901    1    3    3    0    0  0.10063481026E+00 -0.98673653938E-01  0.14253064022E-01  0.89132878606E+00  0.88000000000E+00 0.  1.
        -11    1    4    4    0    0 -0.60379526939E-01  0.60464293806E-01 -0.12266586803E-01  0.86326985188E-01  0.51100000000E-03 0. -1.
         11    1    4    4    0    0 -0.18527000807E-01  0.37804094548E-01 -0.97142026725E-02  0.43209098325E-01  0.51100000000E-03 0.  1.
</event>
<event>
 8    1  0.1081309E+005  0.1043930E+01  0.7957747E-01            NaN
         13   -1    0    0    0    0  0.00000000000E+00  0.00000000000E+00  0.74505805969E-08  0.10566000000E+00  0.10566000000E+00 0. -1.
     999900   -1    0    0    0    0 -0.00000000000E+00 -0.00000000000E+00 -0.74505805969E-08  0.93827000000E+00  0.93827000000E+00 0.  1.
     999902    2    1    2    0    0 -0.22950523381E-01 -0.24034011727E-02  0.13763834896E-01  0.10170609470E+01  0.10167059672E+01 0.  0.
     999903    2    3    3    0    0  0.22163923312E-01 -0.89740368081E-01  0.87046197889E-01  0.12856032016E+00  0.20152969802E-01 0.  0.
         14    1    1    2    0    0  0.22950523381E-01  0.24034011727E-02 -0.13763834896E-01  0.26869053049E-01  0.00000000000E+00 0.  1.
     999901    1    3    3    0    0 -0.45114446693E-01  0.87336966908E-01 -0.73282362993E-01  0.88850062679E+00  0.88000000000E+00 0.  1.
        -11    1    4    4    0    0  0.10415909477E-01 -0.44888002403E-01  0.29748760912E-01  0.54851379443E-01  0.51100000000E-03 0.  1.
         11    1    4    4    0    0  0.11748013835E-01 -0.44852365678E-01  0.57297436977E-01  0.73708940714E-01  0.51100000000E-03 0. -1.
</event>
<event>
 8    1  0.1081309E+005  0.1043930E+01  0.7957747E-01            NaN
         13   -1    0    0    0    0  0.00000000000E+00  0.00000000000E+00  0.74505805969E-08  0.10566000000E+00  0.10566000000E+00 0. -1.
     999900   -1    0    0    0    0 -0.00000000000E+00 -0.00000000000E+00 -0.74505805969E-08  0.93827000000E+00  0.93827000000E+00 0.  1.
     999902    2    1    2    0    0  0.91078046679E-02 -0.17041286286E-01  0.13224454560E-01  0.10205153947E+01  0.10202467481E+01 0.  0.
     999903    2    3    3    0    0 -0.10039811873E+00  0.58105671851E-01 -0.50848563153E-01  0.12824639702E+00  0.20137294462E-01 0.  0.
         14    1    1    2    0    0 -0.91078046679E-02  0.17041286286E-01 -0.13224454560E-01  0.23414605326E-01  0.00000000000E+00 0.  1.
     999901    1    3    3    0    0  0.10950592340E+00 -0.75146958137E-01  0.64073017714E-01  0.89226899765E+00  0.88000000000E+00 0. -1.
        -11    1    4    4    0    0 -0.54425049317E-01  0.29599848431E-01 -0.16315968402E-01  0.64068002671E-01  0.51100000000E-03 0. -1.
         11    1    4    4    0    0 -0.45973069412E-01  0.28505823419E-01 -0.34532594751E-01  0.64178394349E-01  0.51100000000E-03 0.  1.
</event>
<event>
 8    1  0.1081309E+005  0.1043930E+01  0.7957747E-01            NaN
         13   -1    0    0    0    0  0.00000000000E+00  0.00000000000E+00  0.74505805969E-08  0.10566000000E+00  0.10566000000E+00 0.  1.
     999900   -1    0    0    0    0 -0.00000000000E+00 -0.00000000000E+00 -0.74505805969E-08  0.93827000000E+00  0.93827000000E+00 0.  1.
     999902    2    1    2    0    0  0.16025780907E-01 -0.16947332304E-01 -0.19213290390E-02  0.10205263842E+01  0.10202579927E+01 0.  0.
     999903    2    3    3    0    0 -0.12516573240E+00  0.52357221966E-02  0.21631328944E-01  0.12868454902E+00  0.19948067807E-01 0.  0.
         14    1    1    2    0    0 -0.16025780907E-01  0.16947332304E-01  0.19213290390E-02  0.23403615772E-01  0.00000000000E+00 0. -1.
     999901    1    3    3    0    0  0.14119151331E+00 -0.22183054501E-01 -0.23552657983E-01  0.89184183521E+00  0.88000000000E+00 0. -1.
        -11    1    4    4    0    0 -0.66276602990E-01 -0.21966408573E-02  0.20145737489E-01  0.69307468537E-01  0.51100000000E-03 0. -1.
         11    1    4    4    0    0 -0.58889129410E-01  0.74323630538E-02  0.14855914555E-02  0.59377080479E-01  0.51100000000E-03 0.  1.
</event>
<event>
 8    1  0.1081309E+005  0.1043930E+01  0.7957747E-01            NaN
         13   -1    0    0    0    0  0.00000000000E+00  0.00000000000E+00  0.74505805969E-08  0.10566000000E+00  0.10566000000E+00 0.  1.
     999900   -1    0    0    0    0 -0.00000000000E+00 -0.00000000000E+00 -0.74505805969E-08  0.93827000000E+00  0.93827000000E+00 0. -1.
     999902    2    1    2    0    0  0.10238890367E-01 -0.18962405458E-01  0.14456125938E-01  0.10179802934E+01  0.10176494929E+01 0.  0.
     999903    2    3    3    0    0  0.15363605333E-01  0.37847950887E-01  0.12141062619E+00  0.12967125683E+00  0.20139189134E-01 0.  0.
         14    1    1    2    0    0 -0.10238890367E-01  0.18962405458E-01 -0.14456125938E-01  0.25949706623E-01  0.00000000000E+00 0. -1.
     999901    1    3    3    0    0 -0.51247149658E-02 -0.56810356345E-01 -0.10695450026E+00  0.88830903655E+00  0.88000000000E+00 0. -1.
        -11    1    4    4    0    0 -0.21978758102E-02  0.21102888322E-01  0.53665764113E-01  0.57709946391E-01  0.51100000000E-03 0. -1.
         11    1    4    4    0    0  0.17561481143E-01  0.16745062565E-01  0.67744862081E-01  0.71961310436E-01  0.51100000000E-03 0.  1.
</event>
<event>
 8    1  0.1081309E+005  0.1043930E+01  0.7957747E-01            NaN
         13   -1    0    0    0    0  0.00000000000E+00  0.00000000000E+00  0.74505805969E-08  0.10566000000E+00  0.10566000000E+00 0.  1.
     999900   -1    0    0    0    0 -0.00000000000E+00 -0.00000000000E+00 -0.74505805969E-08  0.93827000000E+00  0.93827000000E+00 0. -1.
     999902    2    1    2    0    0  0.41783846488E-02 -0.21610363634E-01 -0.36363756463E-02  0.10216210345E+01  0.10213774269E+01 0.  0.
     999903    2    3    3    0    0  0.10067841174E+00 -0.69853636419E-01  0.48931207756E-01  0.13347520219E+00  0.20141831979E-01 0.  0.
         14    1    1    2    0    0 -0.41783846488E-02  0.21610363634E-01  0.36363756463E-02  0.22308965518E-01  0.00000000000E+00 0.  1.
     999901    1    3    3    0    0 -0.96500027089E-01  0.48243272786E-01 -0.52567583402E-01  0.88814583229E+00  0.88000000000E+00 0. -1.
        -11    1    4    4    0    0  0.25961336426E-01 -0.26642397446E-01  0.85037183975E-02  0.38162582176E-01  0.51100000000E-03 0.  1.
         11    1    4    4    0    0  0.74717075311E-01 -0.43211238973E-01  0.40427489358E-01  0.95312620012E-01  0.51100000000E-03 0. -1.
</event>
<event>
 8    1  0.1081309E+005  0.1043930E+01  0.7957747E-01            NaN
         13   -1    0    0    0    0  0.00000000000E+00  0.00000000000E+00  0.74505805969E-08  0.10566000000E+00  0.10566000000E+00 0.  1.
     999900   -1    0    0    0    0 -0.00000000000E+00 -0.00000000000E+00 -0.74505805969E-08  0.93827000000E+00  0.93827000000E+00 0. -1.
     999902    2    1    2    0    0  0.46688291224E-03  0.16584424916E-01 -0.17159950845E-01  0.10200610863E+01  0.10197817878E+01 0.  0.
     999903    2    3    3    0    0  0.77090012994E-01 -0.10149164218E+00 -0.12744005448E-01  0.12886382289E+00  0.14143961233E-01 0.  0.
         14    1    1    2    0    0 -0.46688291224E-03 -0.16584424916E-01  0.17159950845E-01  0.23868913726E-01  0.00000000000E+00 0. -1.
     999901    1    3    3    0    0 -0.76623130081E-01  0.11807606710E+00 -0.44159453977E-02  0.89119726338E+00  0.88000000000E+00 0. -1.
        -11    1    4    4    0    0  0.29880693548E-01 -0.31723202474E-01 -0.92269581888E-02  0.44549021320E-01  0.51100000000E-03 0.  1.
         11    1    4    4    0    0  0.47209319446E-01 -0.69768439708E-01 -0.35170472590E-02  0.84314801573E-01  0.51100000000E-03 0. -1.
</event>
<event>
 8    1  0.1081309E+005  0.1043930E+01  0.7957747E-01            NaN
         13   -1    0    0    0    0  0.00000000000E+00  0.00000000000E+00  0.74505805969E-08  0.10566000000E+00  0.10566000000E+00 0.  1.
     999900   -1    0    0    0    0 -0.00000000000E+00 -0.00000000000E+00 -0.74505805969E-08  0.93827000000E+00  0.93827000000E+00 0.  1.
     999902    2    1    2    0    0 -0.63855662407E-02  0.22850565988E-01 -0.71186729885E-02  0.10191590629E+01  0.10188579862E+01 0.  0.
     999903    2    3    3    0    0 -0.30951287368E-01 -0.25185966253E-01 -0.12216796896E+00  0.13003178085E+00  0.19772109298E-01 0.  0.
         14    1    1    2    0    0  0.63855662407E-02 -0.22850565988E-01  0.71186729885E-02  0.24770937150E-01  0.00000000000E+00 0.  1.
     999901    1    3    3    0    0  0.24565721127E-01  0.48036532241E-01  0.11504929597E+00  0.88912728200E+00  0.88000000000E+00 0. -1.
        -11    1    4    4    0    0 -0.12604696372E-02 -0.11425620176E-01 -0.25558468861E-01  0.28029092593E-01  0.51100000000E-03 0. -1.
         11    1    4    4    0    0 -0.29690817730E-01 -0.13760346077E-01 -0.96609500102E-01  0.10200268826E+00  0.51100000000E-03 0.  1.
</event>
<event>
 8    1  0.1081309E+005  0.1043930E+01  0.7957747E-01            NaN
         13   -1    0    0    0    0  0.00000000000E+00  0.00000000000E+00  0.74505805969E-08  0.10566000000E+00  0.10566000000E+00 0.  1.
     999900   -1    0    0    0    0 -0.00000000000E+00 -0.00000000000E+00 -0.74505805969E-08  0.93827000000E+00  0.93827000000E+00 0.  1.
     999902    2    1    2    0    0  0.64908751644E-03  0.23941692514E-01 -0.42858209814E-02  0.10195990687E+01  0.10193087200E+01 0.  0.
     999903    2    3    3    0    0 -0.14447482590E-01 -0.79261720238E-02 -0.12782209911E+00  0.13027085078E+00  0.18985562600E-01 0.  0.
         14    1    1    2    0    0 -0.64908751644E-03 -0.23941692514E-01  0.42858209814E-02  0.24330931271E-01  0.00000000000E+00 0.  1.
     999901    1    3    3    0    0  0.15096570107E-01  0.31867864538E-01  0.12353627813E+00  0.88932821794E+00  0.88000000000E+00 0. -1.
        -11    1    4    4    0    0 -0.13216570199E-01  0.27464897828E-02 -0.53728095642E-01  0.55400273611E-01  0.51100000000E-03 0.  1.
         11    1    4    4    0    0 -0.12309123917E-02 -0.10672661807E-01 -0.74094003467E-01  0.74870577173E-01  0.51100000000E-03 0. -1.
</event>
<event>
 8    1  0.1081309E+005  0.1043930E+01  0.7957747E-01            NaN
         13   -1    0    0    0    0  0.00000000000E+00  0.00000000000E+00  0.74505805969E-08  0.10566000000E+00  0.10566000000E+00 0.  1.
     999900   -1    0    0    0    0 -0.00000000000E+00 -0.00000000000E+00 -0.74505805969E-08  0.93827000000E+00  0.93827000000E+00 0.  1.
     999902    2    1    2    0    0  0.26485628708E-02  0.44538108939E-02 -0.23255927357E-01  0.10201037650E+01  0.10198254762E+01 0.  0.
     999903    2    3    3    0    0  0.12326210159E+00 -0.33778013048E-01  0.14821956866E-01  0.13023904307E+00  0.20199457411E-01 0.  0.
         14    1    1    2    0    0 -0.26485628708E-02 -0.44538108939E-02  0.23255927357E-01  0.23826234994E-01  0.00000000000E+00 0.  1.
     999901    1    3    3    0    0 -0.12061353872E+00  0.38231823942E-01 -0.38077884222E-01  0.88986472194E+00  0.88000000000E+00 0. -1.
        -11    1    4    4    0    0  0.29039580270E-01 -0.10390863183E-01  0.12048743764E-01  0.33116470331E-01  0.51100000000E-03 0. -1.
         11    1    4    4    0    0  0.94222521321E-01 -0.23387149865E-01  0.27732131018E-02  0.97122572736E-01  0.51100000000E-03 0.  1.
</event>
<event>
 8    1  0.1081309E+005  0.1043930E+01  0.7957747E-01            NaN
         13   -1    0    0    0    0  0.00000000000E+00  0.00000000000E+00  0.74505805969E-08  0.10566000000E+00  0.10566000000E+00 0. -1.
     999900   -1    0    0    0    0 -0.00000000000E+00 -0.00000000000E+00 -0.74505805969E-08  0.93827000000E+00  0.93827000000E+00 0.  1.
     999902    2    1    2    0    0 -0.89733781357E-02 -0.15860523495E-01 -0.15152978984E-01  0.10202299896E+01  0.10199546760E+01 0.  0.
     999903    2    3    3    0    0  0.51167853093E-01 -0.28089429970E-01  0.11304649730E+00  0.12882569324E+00  0.20233225690E-01 0.  0.
         14    1    1    2    0    0  0.89733781357E-02  0.15860523495E-01  0.15152978984E-01  0.23700010397E-01  0.00000000000E+00 0. -1.
     999901    1    3    3    0    0 -0.60141231229E-01  0.12228906475E-01 -0.12819947628E+00  0.89140429636E+00  0.88000000000E+00 0.  1.
        -11    1    4    4    0    0  0.30007158204E-01 -0.84583443206E-02  0.73699261456E-01  0.80023842648E-01  0.51100000000E-03 0.  1.
         11    1    4    4    0    0  0.21160694889E-01 -0.19631085649E-01  0.39347235845E-01  0.48801850596E-01  0.51100000000E-03 0. -1.
</event>
<event>
 8    1  0.1081309E+005  0.1043930E+01  0.7957747E-01            NaN
         13   -1    0    0    0    0  0.00000000000E+00  0.00000000000E+00  0.74505805969E-08  0.10566000000E+00  0.10566000000E+00 0. -1.
     999900   -1    0    0    0    0 -0.00000000000E+00 -0.00000000000E+00 -0.74505805969E-08  0.93827000000E+00  0.93827000000E+00 0.  1.
     999902    2    1    2    0    0  0.37312148330E-02 -0.13820251870E-01 -0.19194101688E-01  0.10199855880E+01  0.10197044988E+01 0.  0.
     999903    2    3    3    0    0 -0.30350795341E-01  0.11223281380E-01  0.12210510267E+00  0.12771083933E+00  0.18795466527E-01 0.  0.
         14    1    1    2    0    0 -0.37312148330E-02  0.13820251870E-01  0.19194101688E-01  0.23944411989E-01  0.00000000000E+00 0.  1.
     999901    1    3    3    0    0  0.34082010174E-01 -0.25043533250E-01 -0.14129920436E+00  0.89227474868E+00  0.88000000000E+00 0.  1.
        -11    1    4    4    0    0 -0.18031761668E-01 -0.28723950451E-02  0.69943992414E-01  0.72289821399E-01  0.51100000000E-03 0. -1.
         11    1    4    4    0    0 -0.12319033674E-01  0.14095676425E-01  0.52161110258E-01  0.55421017934E-01  0.51100000000E-03 0.  1.
</event>
<event>
 8    1  0.1081309E+005  0.1043930E+01  0.7957747E-01            NaN
         13   -1    0    0    0    0  0.00000000000E+00  0.00000000000E+00  0.74505805969E-08  0.10566000000E+00  0.10566000000E+00 0.  1.
     999900   -1    0    0    0    0 -0.00000000000E+00 -0.00000000000E+00 -0.74505805969E-08  0.93827000000E+00  0.93827000000E+00 0.  1.
     999902    2    1    2    0    0 -0.18028227783E-01 -0.14849490268E-01  0.73701592421E-02  0.10194382952E+01  0.10191440497E+01 0.  0.
     999903    2    3    3    0    0 -0.10500366679E+00  0.25567120627E-01  0.72682434398E-01  0.13182130417E+00  0.20363503298E-01 0.  0.
         14    1    1    2    0    0  0.18028227783E-01  0.14849490268E-01 -0.73701592421E-02  0.24491704830E-01  0.00000000000E+00 0. -1.
     999901    1    3    3    0    0  0.86975439006E-01 -0.40416610895E-01 -0.65312275156E-01  0.88761699100E+00  0.88000000000E+00 0.  1.
        -11    1    4    4    0    0 -0.28133047902E-01  0.14781046023E-01  0.27331035310E-01  0.41918901678E-01  0.51100000000E-03 0. -1.
         11    1    4    4    0    0 -0.76870618888E-01  0.10786074604E-01  0.45351399088E-01  0.89902402492E-01  0.51100000000E-03 0.  1.
</event>
<event>
 8    1  0.1081309E+005  0.1043930E+01  0.7957747E-01            NaN
         13   -1    0    0    0    0  0.00000000000E+00  0.00000000000E+00  0.74505805969E-08  0.10566000000E+00  0.10566000000E+00 0.  1.
     999900   -1    0    0    0    0 -0.00000000000E+00 -0.00000000000E+00 -0.74505805969E-08  0.93827000000E+00  0.93827000000E+00 0.  1.
     999902    2    1    2    0    0  0.21743846951E-01  0.77480512329E-02  0.72159464281E-02  0.10197453549E+01  0.10194585287E+01 0.  0.
     999903    2    3    3    0    0  0.11557107952E+00  0.62180398550E-01 -0.96984351567E-02  0.13292376834E+00  0.18750790897E-01 0.  0.
         14    1    1    2    0    0 -0.21743846951E-01 -0.77480512329E-02 -0.72159464281E-02  0.24184645149E-01  0.00000000000E+00 0.  1.
     999901    1    3    3    0    0 -0.93827232567E-01 -0.54432347317E-01  0.16914381585E-01  0.88682158652E+00  0.88000000000E+00 0. -1.
        -11    1    4    4    0    0  0.43589446888E-01  0.18652704719E-01  0.44416017840E-02  0.47623021961E-01  0.51100000000E-03 0.  1.
         11    1    4    4    0    0  0.71981632630E-01  0.43527693831E-01 -0.14140036941E-01  0.85300746374E-01  0.51100000000E-03 0. -1.
</event>
<event>
 8    1  0.1081309E+005  0.1043930E+01  0.7957747E-01            NaN
         13   -1    0    0    0    0  0.00000000000E+00  0.00000000000E+00  0.74505805969E-08  0.10566000000E+00  0.10566000000E+00 0. -1.
     999900   -1    0    0    0    0 -0.00000000000E+00 -0.00000000000E+00 -0.74505805969E-08  0.93827000000E+00  0.93827000000E+00 0.  1.
     999902    2    1    2    0    0 -0.21055172815E-01  0.52450337691E-02  0.86906699103E-02  0.10205556888E+01  0.10202879767E+01 0.  0.
     999903    2    3    3    0    0 -0.71962424201E-03 -0.12615801278E+00 -0.24972992940E-01  0.12993032569E+00  0.18489919146E-01 0.  0.
         14    1    1    2    0    0  0.21055172815E-01 -0.52450337691E-02 -0.86906699103E-02  0.23374311219E-01  0.00000000000E+00 0.  1.
     999901    1    3    3    0    0 -0.20335548573E-01  0.13140304655E+00  0.33663662850E-01  0.89062536309E+00  0.88000000000E+00 0.  1.
        -11    1    4    4    0    0  0.62401745870E-02 -0.16823715665E-01 -0.35417961620E-02  0.18297066123E-01  0.51100000000E-03 0.  1.
         11    1    4    4    0    0 -0.69597988290E-02 -0.10933429712E+00 -0.21431196778E-01  0.11163325957E+00  0.51100000000E-03 0. -1.
</event>
<event>
 8    1  0.1081309E+005  0.1043930E+01  0.7957747E-01            NaN
         13   -1    0    0    0    0  0.00000000000E+00  0.00000000000E+00  0.74505805969E-08  0.10566000000E+00  0.10566000000E+00 0.  1.
     999900   -1    0    0    0    0 -0.00000000000E+00 -0.00000000000E+00 -0.74505805969E-08  0.93827000000E+00  0.93827000000E+00 0.  1.
     999902    2    1    2    0    0  0.14820646819E-03 -0.20890901019E-01 -0.10047192589E-01  0.10207481582E+01  0.10204848870E+01 0.  0.
     999903    2    3    3    0    0 -0.90511059842E-01  0.67426038536E-01 -0.61450789847E-01  0.13020825780E+00  0.20963496863E-01 0.  0.
         14    1    1    2    0    0 -0.14820646819E-03  0.20890901019E-01  0.10047192589E-01  0.23181841805E-01  0.00000000000E+00 0.  1.
     999901    1    3    3    0    0  0.90659266310E-01 -0.88316939555E-01  0.51403597258E-01  0.89053990039E+00  0.88000000000E+00 0. -1.
        -11    1    4    4    0    0 -0.22627331070E-01  0.84338406500E-02 -0.19133616800E-01  0.30813668920E-01  0.51100000000E-03 0. -1.
         11    1    4    4    0    0 -0.67883728772E-01  0.58992197886E-01 -0.42317173047E-01  0.99394588882E-01  0.51100000000E-03 0.  1.
</event>
<event>
 8    1  0.1081309E+005  0.1043930E+01  0.7957747E-01            NaN
         13   -1    0    0    0    0  0.00000000000E+00  0.00000000000E+00  0.74505805969E-08  0.10566000000E+00  0.10566000000E+00 0.  1.
     999900   -1    0    0    0    0 -0.00000000000E+00 -0.00000000000E+00 -0.74505805969E-08  0.93827000000E+00  0.93827000000E+00 0. -1.
     999902    2    1    2    0    0  0.20965053459E-01  0.17166244701E-02  0.11959400080E-01  0.10197327374E+01  0.10194456083E+01 0.  0.
     999903    2    3    3    0    0  0.12362916276E+00 -0.39640856034E-01  0.18506356934E-01  0.13277545368E+00  0.20767005104E-01 0.  0.
         14    1    1    2    0    0 -0.20965053459E-01 -0.17166244701E-02 -0.11959400080E-01  0.24197262580E-01  0.00000000000E+00 0.  1.
     999901    1    3    3    0    0 -0.10266410930E+00  0.41357480504E-01 -0.65469568533E-02  0.88695728374E+00  0.88000000000E+00 0. -1.
        -11    1    4    4    0    0  0.55601779222E-01 -0.27916773991E-01  0.12681984023E-01  0.63498015421E-01  0.51100000000E-03 0.  1.
         11    1    4    4    0    0  0.68027383540E-01 -0.11724082044E-01  0.58243729102E-02  0.69277438260E-01  0.51100000000E-03 0. -1.
</event>
<event>
 8    1  0.1081309E+005  0.1043930E+01  0.7957747E-01            NaN
         13   -1    0    0    0    0  0.00000000000E+00  0.00000000000E+00  0.74505805969E-08  0.10566000000E+00  0.10566000000E+00 0.  1.
     999900   -1    0    0    0    0 -0.00000000000E+00 -0.00000000000E+00 -0.74505805969E-08  0.93827000000E+00  0.93827000000E+00 0.  1.
     999902    2    1    2    0    0 -0.22290582813E-01  0.33007555368E-02  0.70381424122E-02  0.10203227867E+01  0.10200496501E+01 0.  0.
     999903    2    3    3    0    0  0.87402740985E-01 -0.70515505828E-01 -0.58139511661E-01  0.12806184267E+00  0.20197946367E-01 0.  0.
         14    1    1    2    0    0  0.22290582813E-01 -0.33007555368E-02 -0.70381424122E-02  0.23607213259E-01  0.00000000000E+00 0.  1.
     999901    1    3    3    0    0 -0.10969332380E+00  0.73816261365E-01  0.65177654073E-01  0.89226094407E+00  0.88000000000E+00 0. -1.
        -11    1    4    4    0    0  0.46059581399E-01 -0.41707234479E-01 -0.42556587545E-01  0.75314691203E-01  0.51100000000E-03 0.  1.
         11    1    4    4    0    0  0.41343159586E-01 -0.28808271349E-01 -0.15582924116E-01  0.52747151465E-01  0.51100000000E-03 0. -1.
</event>
<event>
 8    1  0.1081309E+005  0.1043930E+01  0.7957747E-01            NaN
         13   -1    0    0    0    0  0.00000000000E+00  0.00000000000E+00  0.74505805969E-08  0.10566000000E+00  0.10566000000E+00 0.  1.
     999900   -1    0    0    0    0 -0.00000000000E+00 -0.00000000000E+00 -0.74505805969E-08  0.93827000000E+00  0.93827000000E+00 0.  1.
     999902    2    1    2    0    0 -0.11425866655E-01 -0.10961764999E-01  0.16764211286E-01  0.10208703057E+01  0.10206098332E+01 0.  0.
     999903    2    3    3    0    0 -0.58839318941E-01  0.34709980600E-01  0.11264434211E+00  0.13321781555E+00  0.19783588207E-01 0.  0.
         14    1    1    2    0    0  0.11425866655E-01  0.10961764999E-01 -0.16764211286E-01  0.23059694289E-01  0.00000000000E+00 0. -1.
     999901    1    3    3    0    0  0.47413452286E-01 -0.45671745598E-01 -0.95880130829E-01  0.88765249016E+00  0.88000000000E+00 0.  1.
        -11    1    4    4    0    0 -0.33984538551E-01  0.29702918358E-01  0.80302727953E-01  0.92119495533E-01  0.51100000000E-03 0.  1.
         11    1    4    4    0    0 -0.24854780390E-01  0.50070622412E-02  0.32341614162E-01  0.41098320016E-01  0.51100000000E-03 0. -1.
</event>
<event>
 8    1  0.1081309E+005  0.1043930E+01  0.7957747E-01            NaN
         13   -1    0    0    0    0  0.00000000000E+00  0.00000000000E+00  0.74505805969E-08  0.10566000000E+00  0.10566000000E+00 0. -1.
     999900   -1    0    0    0    0 -0.00000000000E+00 -0.00000000000E+00 -0.74505805969E-08  0.93827000000E+00  0.93827000000E+00 0. -1.
     999902    2    1    2    0    0 -0.75130403758E-02 -0.14396825927E-01  0.86593179149E-02  0.10255262461E+01  0.10253610989E+01 0.  0.
     999903    2    3    3    0    0  0.12830246426E+00 -0.84278757900E-02  0.35198834768E-01  0.13469190365E+00  0.19245766116E-01 0.  0.
         14    1    1    2    0    0  0.75130403758E-02  0.14396825927E-01 -0.86593179149E-02  0.18403753943E-01  0.00000000000E+00 0.  1.
     999901    1    3    3    0    0 -0.13581550463E+00 -0.59689501365E-02 -0.26539516853E-01  0.89083434241E+00  0.88000000000E+00 0.  1.
        -11    1    4    4    0    0  0.68677909177E-01  0.99464461689E-03  0.26859881339E-01  0.73752009284E-01  0.51100000000E-03 0.  1.
         11    1    4    4    0    0  0.59624555082E-01 -0.94225204069E-02  0.83389534287E-02  0.60939894362E-01  0.51100000000E-03 0. -1.
</event>
<event>
 8    1  0.1081309E+005  0.1043930E+01  0.7957747E-01            NaN
         13   -1    0    0    0    0  0.00000000000E+00  0.00000000000E+00  0.74505805969E-08  0.10566000000E+00  0.10566000000E+00 0. -1.
     999900   -1    0    0    0    0 -0.00000000000E+00 -0.00000000000E+00 -0.74505805969E-08  0.93827000000E+00  0.93827000000E+00 0. -1.
     999902    2    1    2    0    0  0.57517983314E-02 -0.20868489390E-01 -0.91690457244E-02  0.10204215242E+01  0.10201506941E+01 0.  0.
     999903    2    3    3    0    0 -0.26266325967E-01  0.11649134575E+00 -0.43264126573E-01  0.12853848306E+00  0.19753568378E-01 0.  0.
         14    1    1    2    0    0 -0.57517983314E-02  0.20868489390E-01  0.91690457244E-02  0.23508475768E-01  0.00000000000E+00 0. -1.
     999901    1    3    3    0    0  0.32018124298E-01 -0.13735983514E+00  0.34095080849E-01  0.89188304117E+00  0.88000000000E+00 0. -1.
        -11    1    4    4    0    0  0.21404093300E-02  0.28264546343E-01 -0.10119294764E-01  0.30101946442E-01  0.51100000000E-03 0.  1.
         11    1    4    4    0    0 -0.28406735297E-01  0.88226799410E-01 -0.33144831809E-01  0.98436536617E-01  0.51100000000E-03 0. -1.
</event>
<event>
 8    1  0.1081309E+005  0.1043930E+01  0.7957747E-01            NaN
         13   -1    0    0    0    0  0.00000000000E+00  0.00000000000E+00  0.74505805969E-08  0.10566000000E+00  0.10566000000E+00 0.  1.
     999900   -1    0    0    0    0 -0.00000000000E+00 -0.00000000000E+00 -0.74505805969E-08  0.93827000000E+00  0.93827000000E+00 0. -1.
     999902    2    1    2    0    0 -0.14213213956E-02  0.22206730250E-01 -0.97584616391E-02  0.10196321277E+01  0.10193425770E+01 0.  0.
     999903    2    3    3    0    0  0.11723135195E+00 -0.41305320224E-01 -0.28603474088E-01  0.12920112427E+00  0.20626498115E-01 0.  0.
         14    1    1    2    0    0  0.14213213956E-02 -0.22206730250E-01  0.97584616391E-02  0.24297872262E-01  0.00000000000E+00 0. -1.
     999901    1    3    3    0    0 -0.11865267334E+00  0.63512050474E-01  0.18845012449E-01  0.89043100347E+00  0.88000000000E+00 0. -1.
        -11    1    4    4    0    0  0.47343540793E-01 -0.17453232268E-01 -0.13308864819E-02  0.50478297825E-01  0.51100000000E-03 0. -1.
         11    1    4    4    0    0  0.69887811152E-01 -0.23852087956E-01 -0.27272587606E-01  0.78722826443E-01  0.51100000000E-03 0.  1.
</event>
<event>
 8    1  0.1081309E+005  0.1043930E+01  0.7957747E-01            NaN
         13   -1    0    0    0    0  0.00000000000E+00  0.00000000000E+00  0.74505805969E-08  0.10566000000E+00  0.10566000000E+00 0.  1.
     999900   -1    0    0    0    0 -0.00000000000E+00 -0.00000000000E+00 -0.74505805969E-08  0.93827000000E+00  0.93827000000E+00 0.  1.
     999902    2    1    2    0    0  0.85124847771E-02 -0.14885024286E-01  0.16731725487E-01  0.10199721833E+01  0.10196907755E+01 0.  0.
     999903    2    3    3    0    0  0.66580547988E-02 -0.11029303662E+00  0.71508361440E-01  0.13312010564E+00  0.19965799489E-01 0.  0.
         14    1    1    2    0    0 -0.85124847771E-02  0.14885024286E-01 -0.16731725487E-01  0.23957816738E-01  0.00000000000E+00 0. -1.
     999901    1    3    3    0    0  0.18544299782E-02  0.95408012339E-01 -0.54776635952E-01  0.88685207762E+00  0.88000000000E+00 0.  1.
        -11    1    4    4    0    0  0.40867771411E-02 -0.54931752557E-01  0.47433105604E-01  0.72693602295E-01  0.51100000000E-03 0. -1.
         11    1    4    4    0    0  0.25712776577E-02 -0.55361284068E-01  0.24075255836E-01  0.60426503349E-01  0.51100000000E-03 0.  1.
</event>
<event>
 8    1  0.1081309E+005  0.1043930E+01  0.7957747E-01            NaN
         13   -1    0    0    0    0  0.00000000000E+00  0.00000000000E+00  0.74505805969E-08  0.10566000000E+00  0.10566000000E+00 0.  1.
     999900   -1    0    0    0    0 -0.00000000000E+00 -0.00000000000E+00 -0.74505805969E-08  0.93827000000E+00  0.93827000000E+00 0. -1.
     999902    2    1    2    0    0 -0.38019302022E-02  0.15259585074E-01  0.17659942490E-01  0.10202829457E+01  0.10200088755E+01 0.  0.
     999903    2    3    3    0    0  0.29508750056E-02  0.12398782683E+00 -0.39641213604E-01  0.13171620455E+00  0.19900850722E-01 0.  0.
         14    1    1    2    0    0  0.38019302022E-02 -0.15259585074E-01 -0.17659942490E-01  0.23647054334E-01  0.00000000000E+00 0. -1.
     999901    1    3    3    0    0 -0.67528052078E-02 -0.10872824175E+00  0.57301156094E-01  0.88856674112E+00  0.88000000000E+00 0. -1.
        -11    1    4    4    0    0  0.39974197128E-02  0.11727321128E+00 -0.41803751049E-01  0.12456644882E+00  0.51100000000E-03 0. -1.
         11    1    4    4    0    0 -0.10465447073E-02  0.67146155507E-02  0.21625374458E-02  0.71497557316E-02  0.51100000000E-03 0.  1.
</event>
<event>
 8    1  0.1081309E+005  0.1043930E+01  0.7957747E-01            NaN
         13   -1    0    0    0    0  0.00000000000E+00  0.00000000000E+00  0.74505805969E-08  0.10566000000E+00  0.10566000000E+00 0. -1.
     999900   -1    0    0    0    0 -0.00000000000E+00 -0.00000000000E+00 -0.74505805969E-08  0.93827000000E+00  0.93827000000E+00 0. -1.
     999902    2    1    2    0    0  0.12145576612E-01 -0.63249875938E-02 -0.18829113353E-01  0.10206479037E+01  0.10203823241E+01 0.  0.
     999903    2    3    3    0    0  0.10341953541E+00  0.46198574653E-01  0.62157493247E-01  0.13067684202E+00  0.19569733528E-01 0.  0.
         14    1    1    2    0    0 -0.12145576612E-01  0.63249875938E-02  0.18829113353E-01  0.23282096318E-01  0.00000000000E+00 0. -1.
     999901    1    3    3    0    0 -0.91273958795E-01 -0.52523562247E-01 -0.80986606599E-01  0.88997106166E+00  0.88000000000E+00 0. -1.
        -11    1    4    4    0    0  0.32624931789E-01  0.13389794123E-01  0.29918672669E-01  0.46249982229E-01  0.51100000000E-03 0.  1.
         11    1    4    4    0    0  0.70794603617E-01  0.32808780530E-01  0.32238820577E-01  0.84426859793E-01  0.51100000000E-03 0. -1.
</event>
<event>
 8    1  0.1081309E+005  0.1043930E+01  0.7957747E-01            NaN
         13   -1    0    0    0    0  0.00000000000E+00  0.00000000000E+00  0.74505805969E-08  0.10566000000E+00  0.10566000000E+00 0.  1.
     999900   -1    0    0    0    0 -0.00000000000E+00 -0.00000000000E+00 -0.74505805969E-08  0.93827000000E+00  0.93827000000E+00 0. -1.
     999902    2    1    2    0    0  0.14783544663E-01 -0.19469503422E-01  0.94560704507E-03  0.10194655579E+01  0.10191719751E+01 0.  0.
     999903    2    3    3    0    0 -0.64106313038E-01  0.10244799164E+00 -0.33183941618E-01  0.12691174361E+00  0.20005157413E-01 0.  0.
         14    1    1    2    0    0 -0.14783544663E-01  0.19469503422E-01 -0.94560704507E-03  0.24464442135E-01  0.00000000000E+00 0.  1.
     999901    1    3    3    0    0  0.78889857701E-01 -0.12191749506E+00  0.34129548663E-01  0.89255381426E+00  0.88000000000E+00 0.  1.
        -11    1    4    4    0    0 -0.27976649429E-01  0.36074957624E-01 -0.37415574266E-02  0.45807814332E-01  0.51100000000E-03 0.  1.
         11    1    4    4    0    0 -0.36129663609E-01  0.66373034011E-01 -0.29442384192E-01  0.81103929278E-01  0.51100000000E-03 0. -1.
</event>
<event>
 8    1  0.1081309E+005  0.1043930E+01  0.7957747E-01            NaN
         13   -1    0    0    0    0  0.00000000000E+00  0.00000000000E+00  0.74505805969E-08  0.10566000000E+00  0.10566000000E+00 0. -1.
     999900   -1    0    0    0    0 -0.00000000000E+00 -0.00000000000E+00 -0.74505805969E-08  0.93827000000E+00  0.93827000000E+00 0. -1.
     999902    2    1    2    0    0 -0.31336353749E-02 -0.84813172035E-02 -0.22055512118E-01  0.10200930953E+01  0.10198145542E+01 0.  0.
     999903    2    3    3    0    0 -0.70469777678E-01 -0.58722379652E-01  0.88656588549E-01  0.12918597910E+00  0.20364652332E-01 0.  0.
         14    1    1    2    0    0  0.31336353749E-02  0.84813172035E-02  0.22055512118E-01  0.23836904727E-01  0.00000000000E+00 0. -1.
     999901    1    3    3    0    0  0.67336142303E-01  0.50241062448E-01 -0.11071210067E+00  0.89090711617E+00  0.88000000000E+00 0. -1.
        -11    1    4    4    0    0 -0.32514275614E-01 -0.29514061630E-01  0.56226479927E-01  0.71343788227E-01  0.51100000000E-03 0.  1.
         11    1    4    4    0    0 -0.37955502064E-01 -0.29208318022E-01  0.32430108622E-01  0.57842190872E-01  0.51100000000E-03 0. -1.
</event>
<event>
 8    1  0.1081309E+005  0.1043930E+01  0.7957747E-01            NaN
         13   -1    0    0    0    0  0.00000000000E+00  0.00000000000E+00  0.74505805969E-08  0.10566000000E+00  0.10566000000E+00 0.  1.
     999900   -1    0    0    0    0 -0.00000000000E+00 -0.00000000000E+00 -0.74505805969E-08  0.93827000000E+00  0.93827000000E+00 0. -1.
     999902    2    1    2    0    0 -0.11710762037E-01  0.17726295039E-01  0.11520292897E-01  0.10197622398E+01  0.10194758188E+01 0.  0.
     999903    2    3    3    0    0  0.31129636364E-02 -0.37545791819E-01 -0.12069956798E+00  0.12804656875E+00  0.20202995625E-01 0.  0.
         14    1    1    2    0    0  0.11710762037E-01 -0.17726295039E-01 -0.11520292897E-01  0.24167760172E-01  0.00000000000E+00 0.  1.
     999901    1    3    3    0    0 -0.14823725674E-01  0.55272086858E-01  0.13221986088E+00  0.89171567107E+00  0.88000000000E+00 0.  1.
        -11    1    4    4    0    0  0.52811587054E-02 -0.50888971698E-02 -0.45803696393E-01  0.46389947574E-01  0.51100000000E-03 0.  1.
         11    1    4    4    0    0 -0.21681950691E-02 -0.32456894649E-01 -0.74895871591E-01  0.81656621180E-01  0.51100000000E-03 0. -1.
</event>
<event>
 8    1  0.1081309E+005  0.1043930E+01  0.7957747E-01            NaN
         13   -1    0    0    0    0  0.00000000000E+00  0.00000000000E+00  0.74505805969E-08  0.10566000000E+00  0.10566000000E+00 0.  1.
     999900   -1    0    0    0    0 -0.00000000000E+00 -0.00000000000E+00 -0.74505805969E-08  0.93827000000E+00  0.93827000000E+00 0.  1.
     999902    2    1    2    0    0  0.28912002966E-02 -0.55232366211E-02  0.22948345345E-01  0.10201499299E+01  0.10198727311E+01 0.  0.
     999903    2    3    3    0    0  0.10646172171E+00  0.46383920137E-01 -0.53285164026E-01  0.12928924839E+00  0.19769542457E-01 0.  0.
         14    1    1    2    0    0 -0.28912002966E-02  0.55232366211E-02 -0.22948345345E-01  0.23780070143E-01  0.00000000000E+00 0. -1.
     999901    1    3    3    0    0 -0.10357052141E+00 -0.51907156758E-01  0.76233509370E-01  0.89086068146E+00  0.88000000000E+00 0. -1.
        -11    1    4    4    0    0  0.94870448101E-01  0.33954625982E-01 -0.46608809845E-01  0.11102234381E+00  0.51100000000E-03 0. -1.
         11    1    4    4    0    0  0.11591273606E-01  0.12429294155E-01 -0.66763541811E-02  0.18266904586E-01  0.51100000000E-03 0.  1.
</event>
<event>
 8    1  0.1081309E+005  0.1043930E+01  0.7957747E-01            NaN
         13   -1    0    0    0    0  0.00000000000E+00  0.00000000000E+00  0.74505805969E-08  0.10566000000E+00  0.10566000000E+00 0. -1.
     999900   -1    0    0    0    0 -0.00000000000E+00 -0.00000000000E+00 -0.74505805969E-08  0.93827000000E+00  0.93827000000E+00 0.  1.
     999902    2    1    2    0    0 -0.22198563554E-01 -0.91799245901E-02 -0.26905243085E-02  0.10197579881E+01  0.10194714651E+01 0.  0.
     999903    2    3    3    0    0 -0.57009882539E-01  0.60042102352E-01 -0.99617170799E-01  0.13105202335E+00  0.19896515871E-01 0.  0.
         14    1    1    2    0    0  0.22198563554E-01  0.91799245901E-02  0.26905243085E-02  0.24172011923E-01  0.00000000000E+00 0. -1.
     999901    1    3    3    0    0  0.34811318985E-01 -0.69222026942E-01  0.96926646491E-01  0.88870596473E+00  0.88000000000E+00 0. -1.
        -11    1    4    4    0    0 -0.17447593756E-01  0.71578144846E-02 -0.18191257553E-01  0.26207552508E-01  0.51100000000E-03 0. -1.
         11    1    4    4    0    0 -0.39562288783E-01  0.52884287868E-01 -0.81425913247E-01  0.10484447084E+00  0.51100000000E-03 0.  1.
</event>
<event>
 8    1  0.1081309E+005  0.1043930E+01  0.7957747E-01            NaN
         13   -1    0    0    0    0  0.00000000000E+00  0.00000000000E+00  0.74505805969E-08  0.10566000000E+00  0.10566000000E+00 0. -1.
     999900   -1    0    0    0    0 -0.00000000000E+00 -0.00000000000E+00 -0.74505805969E-08  0.93827000000E+00  0.93827000000E+00 0.  1.
     999902    2    1    2    0    0 -0.12253790300E-01  0.19320713479E-01  0.67057592016E-02  0.10200885958E+01  0.10198099484E+01 0.  0.
     999903    2    3    3    0    0  0.10798638004E+00  0.54188649018E-01  0.44819036507E-01  0.13041107370E+00  0.20020842957E-01 0.  0.
         14    1    1    2    0    0  0.12253790300E-01 -0.19320713479E-01 -0.67057592016E-02  0.23841404165E-01  0.00000000000E+00 0. -1.
     999901    1    3    3    0    0 -0.12024017034E+00 -0.34867935539E-01 -0.38113277305E-01  0.88967752214E+00  0.88000000000E+00 0.  1.
        -11    1    4    4    0    0  0.65181277500E-01  0.32909267068E-01  0.16546078360E-01  0.74870906402E-01  0.51100000000E-03 0. -1.
         11    1    4    4    0    0  0.42805102540E-01  0.21279381950E-01  0.28272958147E-01  0.55540167294E-01  0.51100000000E-03 0.  1.
</event>
<event>
 8    1  0.1081309E+005  0.1043930E+01  0.7957747E-01            NaN
         13   -1    0    0    0    0  0.00000000000E+00  0.00000000000E+00  0.74505805969E-08  0.10566000000E+00  0.10566000000E+00 0. -1.
     999900   -1    0    0    0    0 -0.00000000000E+00 -0.00000000000E+00 -0.74505805969E-08  0.93827000000E+00  0.93827000000E+00 0. -1.
     999902    2    1    2    0    0  0.91275683367E-02 -0.20952581772E-01 -0.36856612603E-02  0.10207803286E+01  0.10205177960E+01 0.  0.
     999903    2    3    3    0    0  0.71152673699E-01 -0.11073700760E+00  0.13249889393E-01  0.13387832179E+00  0.20553774588E-01 0.  0.
         14    1    1    2    0    0 -0.91275683367E-02  0.20952581772E-01  0.36856612603E-02  0.23149671392E-01  0.00000000000E+00 0. -1.
     999901    1    3    3    0    0 -0.62025105362E-01  0.89784425831E-01 -0.16935550653E-01  0.88690200682E+00  0.88000000000E+00 0.  1.
        -11    1    4    4    0    0  0.37674280213E-01 -0.43751806538E-01 -0.48861058458E-03  0.57741422101E-01  0.51100000000E-03 0.  1.
         11    1    4    4    0    0  0.33478393486E-01 -0.66985201065E-01  0.13738499977E-01  0.76136899692E-01  0.51100000000E-03 0. -1.
</event>
<event>
 8    1  0.1081309E+005  0.1043930E+01  0.7957747E-01            NaN
         13   -1    0    0    0    0  0.00000000000E+00  0.00000000000E+00  0.74505805969E-08  0.10566000000E+00  0.10566000000E+00 0. -1.
     999900   -1    0    0    0    0 -0.00000000000E+00 -0.00000000000E+00 -0.74505805969E-08  0.93827000000E+00  0.93827000000E+00 0. -1.
     999902    2    1    2    0    0  0.33331070631E-03  0.16581321111E-01 -0.18361403355E-01  0.10191874771E+01  0.10188870993E+01 0.  0.
     999903    2    3    3    0    0  0.12336989006E+00 -0.15596645215E-01 -0.31611110270E-01  0.12994680321E+00  0.20579704967E-01 0.  0.
         14    1    1    2    0    0 -0.33331070631E-03 -0.16581321111E-01  0.18361403355E-01  0.24742522890E-01  0.00000000000E+00 0. -1.
     999901    1    3    3    0    0 -0.12303657936E+00  0.32177966326E-01  0.13249706915E-01  0.88924067390E+00  0.88000000000E+00 0.  1.
        -11    1    4    4    0    0  0.32321189365E-01 -0.13235377511E-01 -0.74418642427E-02  0.35713820353E-01  0.51100000000E-03 0. -1.
         11    1    4    4    0    0  0.91048700700E-01 -0.23612677032E-02 -0.24169246027E-01  0.94232982861E-01  0.51100000000E-03 0.  1.
</event>
<event>
 8    1  0.1081309E+005  0.1043930E+01  0.7957747E-01            NaN
         13   -1    0    0    0    0  0.00000000000E+00  0.00000000000E+00  0.74505805969E-08  0.10566000000E+00  0.10566000000E+00 0.  1.
     999900   -1    0    0    0    0 -0.00000000000E+00 -0.00000000000E+00 -0.74505805969E-08  0.93827000000E+00  0.93827000000E+00 0.  1.
     999902    2    1    2    0    0  0.10417382354E-01 -0.22817238552E-01 -0.36546587802E-04  0.10188471460E+01  0.10185383436E+01 0.  0.
     999903    2    3    3    0    0  0.66163542495E-01 -0.11299212318E+00  0.54837452693E-03  0.13248407910E+00  0.20171669363E-01 0.  0.
         14    1    1    2    0    0 -0.10417382354E-01  0.22817238552E-01  0.36546587802E-04  0.25082854022E-01  0.00000000000E+00 0.  1.
     999901    1    3    3    0    0 -0.55746160142E-01  0.90174884628E-01 -0.58492111474E-03  0.88636306688E+00  0.88000000000E+00 0.  1.
        -11    1    4    4    0    0  0.49240001619E-01 -0.79909037273E-01 -0.84608849294E-02  0.94243724948E-01  0.51100000000E-03 0.  1.
         11    1    4    4    0    0  0.16923540877E-01 -0.33083085906E-01  0.90092594564E-02  0.38240354154E-01  0.51100000000E-03 0. -1.
</event>
<event>
 8    1  0.1081309E+005  0.1043930E+01  0.7957747E-01            NaN
         13   -1    0    0    0    0  0.00000000000E+00  0.00000000000E+00  0.74505805969E-08  0.10566000000E+00  0.10566000000E+00 0.  1.
     999900   -1    0    0    0    0 -0.00000000000E+00 -0.00000000000E+00 -0.74505805969E-08  0.93827000000E+00  0.93827000000E+00 0.  1.
     999902    2    1    2    0    0 -0.19095811449E-01  0.79530149645E-02 -0.10361357885E-01  0.10207943522E+01  0.10205321412E+01 0.  0.
     999903    2    3    3    0    0 -0.92468564202E-01  0.33958080896E-01 -0.88592750175E-01  0.13390091157E+00  0.19421434316E-01 0.  0.
         14    1    1    2    0    0  0.19095811449E-01 -0.79530149645E-02  0.10361357885E-01  0.23135647800E-01  0.00000000000E+00 0.  1.
     999901    1    3    3    0    0  0.73372752753E-01 -0.26005065932E-01  0.78231392290E-01  0.88689344063E+00  0.88000000000E+00 0. -1.
        -11    1    4    4    0    0 -0.32178428627E-01  0.20255799547E-01 -0.27072285715E-01  0.46678886652E-01  0.51100000000E-03 0. -1.
         11    1    4    4    0    0 -0.60290135574E-01  0.13702281350E-01 -0.61520464459E-01  0.87222024914E-01  0.51100000000E-03 0.  1.
</event>
<event>
 8    1  0.1081309E+005  0.1043930E+01  0.7957747E-01            NaN
         13   -1    0    0    0    0  0.00000000000E+00  0.00000000000E+00  0.74505805969E-08  0.10566000000E+00  0.10566000000E+00 0. -1.
     999900   -1    0    0    0    0 -0.00000000000E+00 -0.00000000000E+00 -0.74505805969E-08  0.93827000000E+00  0.93827000000E+00 0.  1.
     999902    2    1    2    0    0  0.12155273622E-01 -0.18007352362E-01 -0.86016089708E-02  0.10205632909E+01  0.10202957550E+01 0.  0.
     999903    2    3    3    0    0  0.12851074242E+00 -0.18721903239E-01  0.16406681362E-01  0.13255173679E+00  0.20862961279E-01 0.  0.
         14    1    1    2    0    0 -0.12155273622E-01  0.18007352362E-01  0.86016089708E-02  0.23366709071E-01  0.00000000000E+00 0. -1.
     999901    1    3    3    0    0 -0.11635546880E+00  0.71455087734E-03 -0.25008290332E-01  0.88801155414E+00  0.88000000000E+00 0.  1.
        -11    1    4    4    0    0  0.28018186636E-01 -0.45756149612E-02 -0.50082498974E-02  0.28832251433E-01  0.51100000000E-03 0.  1.
         11    1    4    4    0    0  0.10049255579E+00 -0.14146288278E-01  0.21414931259E-01  0.10371948536E+00  0.51100000000E-03 0. -1.
</event>
<event>
 7    1  0.1081309E+005  0.1043930E+01  0.7957747E-01            NaN
         13   -1    0    0    0    0  0.00000000000E+00  0.00000000000E+00  0.74505805969E-08  0.10566000000E+00  0.10566000000E+00 0.  1.
     999900   -1    0    0    0    0 -0.00000000000E+00 -0.00000000000E+00 -0.74505805969E-08  0.93827000000E+00  0.93827000000E+00 0.  1.
     999903    2    1    2    0    0  0.57812613549E-01  0.47141357113E-01 -0.63088486343E-01  0.10023268870E+00  0.22401538767E-01 0.  0.
         14    1    1    2    0    0  0.52880588300E-01  0.49372343472E-02  0.24012724231E-02  0.53164828705E-01  0.00000000000E+00 0. -1.
     999901    1    1    2    0    0 -0.11069320185E+00 -0.52078591460E-01  0.60687213919E-01  0.89053248260E+00  0.88000000000E+00 0. -1.
        -11    1    3    3    0    0  0.47959341787E-01  0.41005634156E-01 -0.62161642793E-01  0.88577036826E-01  0.51100000000E-03 0. -1.
         11    1    3    3    0    0  0.98532717621E-02  0.61357229573E-02 -0.92684354911E-03  0.11655651873E-01  0.51100000000E-03 0.  1.
</event>
<event>
 8    1  0.1081309E+005  0.1043930E+01  0.7957747E-01            NaN
         13   -1    0    0    0    0  0.00000000000E+00  0.00000000000E+00  0.74505805969E-08  0.10566000000E+00  0.10566000000E+00 0.  1.
     999900   -1    0    0    0    0 -0.00000000000E+00 -0.00000000000E+00 -0.74505805969E-08  0.93827000000E+00  0.93827000000E+00 0.  1.
     999902    2    1    2    0    0 -0.22114161154E-01 -0.86682257443E-02  0.91418262119E-02  0.10184791209E+01  0.10181610739E+01 0.  0.
     999903    2    3    3    0    0 -0.75735418972E-01 -0.10067193767E+00 -0.32481763730E-01  0.13108267874E+00  0.16028442489E-01 0.  0.
         14    1    1    2    0    0  0.22114161154E-01  0.86682257443E-02 -0.91418262119E-02  0.25450879113E-01  0.00000000000E+00 0.  1.
     999901    1    3    3    0    0  0.53621257818E-01  0.92003711929E-01  0.41623589942E-01  0.88739644215E+00  0.88000000000E+00 0. -1.
        -11    1    4    4    0    0 -0.54968650382E-01 -0.69795531241E-01 -0.15535176537E-01  0.90191859594E-01  0.51100000000E-03 0.  1.
         11    1    4    4    0    0 -0.20766768590E-01 -0.30876406432E-01 -0.16946587193E-01  0.40890819145E-01  0.51100000000E-03 0. -1.
</event>
<event>
 8    1  0.1081309E+005  0.1043930E+01  0.7957747E-01            NaN
         13   -1    0    0    0    0  0.00000000000E+00  0.00000000000E+00  0.74505805969E-08  0.10566000000E+00  0.10566000000E+00 0. -1.
     999900   -1    0    0    0    0 -0.00000000000E+00 -0.00000000000E+00 -0.74505805969E-08  0.93827000000E+00  0.93827000000E+00 0.  1.
     999902    2    1    2    0    0  0.19284825753E-01  0.88497858233E-02  0.90707792022E-02  0.10208539898E+01  0.10205931443E+01 0.  0.
     999903    2    3    3    0    0 -0.51472892750E-01  0.66556525762E-01  0.99195080559E-01  0.13155139094E+00  0.19669129164E-01 0.  0.
         14    1    1    2    0    0 -0.19284825753E-01 -0.88497858233E-02 -0.90707792022E-02  0.23076010244E-01  0.00000000000E+00 0. -1.
     999901    1    3    3    0    0  0.70757718504E-01 -0.57706739939E-01 -0.90124301356E-01  0.88930259881E+00  0.88000000000E+00 0.  1.
        -11    1    4    4    0    0 -0.45866553383E-01  0.49901349961E-01  0.69759803590E-01  0.97265496272E-01  0.51100000000E-03 0.  1.
         11    1    4    4    0    0 -0.56063393671E-02  0.16655175801E-01  0.29435276968E-01  0.34285894669E-01  0.51100000000E-03 0. -1.
</event>
<event>
 8    1  0.1081309E+005  0.1043930E+01  0.7957747E-01            NaN
         13   -1    0    0    0    0  0.00000000000E+00  0.00000000000E+00  0.74505805969E-08  0.10566000000E+00  0.10566000000E+00 0. -1.
     999900   -1    0    0    0    0 -0.00000000000E+00 -0.00000000000E+00 -0.74505805969E-08  0.93827000000E+00  0.93827000000E+00 0.  1.
     999902    2    1    2    0    0 -0.12504714546E-01 -0.18894068800E-01  0.73207230876E-02  0.10201193572E+01  0.10198414369E+01 0.  0.
     999903    2    3    3    0    0 -0.70644628773E-01 -0.25357379193E-01 -0.10546880727E+00  0.13099422423E+00  0.20053857986E-01 0.  0.
         14    1    1    2    0    0  0.12504714546E-01  0.18894068800E-01 -0.73207230876E-02  0.23810642752E-01  0.00000000000E+00 0. -1.
     999901    1    3    3    0    0  0.58139914227E-01  0.64633103928E-02  0.11278953036E+00  0.88912513302E+00  0.88000000000E+00 0. -1.
        -11    1    4    4    0    0 -0.48579158868E-01 -0.26946542546E-01 -0.76237909682E-01  0.94332024388E-01  0.51100000000E-03 0. -1.
         11    1    4    4    0    0 -0.22065469906E-01  0.15891633527E-02 -0.29230897589E-01  0.36662199841E-01  0.51100000000E-03 0.  1.
</event>
<event>
 8    1  0.1175505E+005  0.1043930E+01  0.7957747E-01            NaN
         13   -1    0    0    0    0  0.00000000000E+00  0.00000000000E+00  0.74505805969E-08  0.10566000000E+00  0.10566000000E+00 0.  1.
     999900   -1    0    0    0    0 -0.00000000000E+00 -0.00000000000E+00 -0.74505805969E-08  0.93827000000E+00  0.93827000000E+00 0.  1.
     999902    2    1    2    0    0  0.31777544673E-02  0.81051433272E-05 -0.24017380325E-01  0.10197033051E+01  0.10194154686E+01 0.  0.
     999903    2    3    3    0    0  0.65856752389E-01 -0.11005540179E+00  0.97995552739E-02  0.12999199377E+00  0.18777216572E-01 0.  0.
         14    1    1    2    0    0 -0.31777544673E-02 -0.81051433272E-05  0.24017380325E-01  0.24226694921E-01  0.00000000000E+00 0.  1.
     999901    1    3    3    0    0 -0.62678997922E-01  0.11006350693E+00 -0.33816935598E-01  0.88971131131E+00  0.88000000000E+00 0. -1.
        -11    1    4    4    0    0  0.42192489501E-01 -0.52408395907E-01  0.39158321381E-02  0.67397633446E-01  0.51100000000E-03 0.  1.
         11    1    4    4    0    0  0.23664262888E-01 -0.57647005883E-01  0.58837231357E-02  0.62594360323E-01  0.51100000000E-03 0. -1.
</event>
<event>
 8    1  0.1081309E+005  0.1043930E+01  0.7957747E-01            NaN
         13   -1    0    0    0    0  0.00000000000E+00  0.00000000000E+00  0.74505805969E-08  0.10566000000E+00  0.10566000000E+00 0. -1.
     999900   -1    0    0    0    0 -0.00000000000E+00 -0.00000000000E+00 -0.74505805969E-08  0.93827000000E+00  0.93827000000E+00 0.  1.
     999902    2    1    2    0    0 -0.59277105233E-02 -0.40578604611E-02  0.21627520150E-01  0.10211406689E+01  0.10208863365E+01 0.  0.
     999903    2    3    3    0    0  0.11311830515E+00  0.29535844678E-04  0.62738046327E-01  0.13216443975E+00  0.27122404827E-01 0.  0.
         14    1    1    2    0    0  0.59277105233E-02  0.40578604611E-02 -0.21627520150E-01  0.22789331087E-01  0.00000000000E+00 0.  1.
     999901    1    3    3    0    0 -0.11904601568E+00 -0.40873963058E-02 -0.41110526177E-01  0.88897622916E+00  0.88000000000E+00 0. -1.
        -11    1    4    4    0    0  0.83854070461E-01  0.83199169276E-02  0.35893425851E-01  0.91593260073E-01  0.51100000000E-03 0. -1.
         11    1    4    4    0    0  0.29264234693E-01 -0.82903810829E-02  0.26844620476E-01  0.40571179674E-01  0.51100000000E-03 0.  1.
</event>
<event>
 8    1  0.1081309E+005  0.1043930E+01  0.7957747E-01            NaN
         13   -1    0    0    0    0  0.00000000000E+00  0.00000000000E+00  0.74505805969E-08  0.10566000000E+00  0.10566000000E+00 0.  1.
     999900   -1    0    0    0    0 -0.00000000000E+00 -0.00000000000E+00 -0.74505805969E-08  0.93827000000E+00  0.93827000000E+00 0. -1.
     999902    2    1    2    0    0 -0.51608671515E-02  0.21821772750E-01  0.41050969882E-02  0.10211335938E+01  0.10208791017E+01 0.  0.
     999903    2    3    3    0    0  0.10519525107E+00 -0.41191972920E-01 -0.60312295359E-01  0.12967478631E+00  0.20375420290E-01 0.  0.
         14    1    1    2    0    0  0.51608671515E-02 -0.21821772750E-01 -0.41050969882E-02  0.22796406229E-01  0.00000000000E+00 0. -1.
     999901    1    3    3    0    0 -0.11035611822E+00  0.63013745670E-01  0.64417392347E-01  0.89145880747E+00  0.88000000000E+00 0.  1.
        -11    1    4    4    0    0  0.34694089573E-01 -0.13066115221E-01 -0.30917427051E-01  0.48275787251E-01  0.51100000000E-03 0. -1.
         11    1    4    4    0    0  0.70501161493E-01 -0.28125857699E-01 -0.29394868308E-01  0.81398999054E-01  0.51100000000E-03 0.  1.
</event>
<event>
 8    1  0.1081309E+005  0.1043930E+01  0.7957747E-01            NaN
         13   -1    0    0    0    0  0.00000000000E+00  0.00000000000E+00  0.74505805969E-08  0.10566000000E+00  0.10566000000E+00 0. -1.
     999900   -1    0    0    0    0 -0.00000000000E+00 -0.00000000000E+00 -0.74505805969E-08  0.93827000000E+00  0.93827000000E+00 0. -1.
     999902    2    1    2    0    0  0.88028524530E-02 -0.20859064957E-01 -0.10506643769E-01  0.10189704254E+01  0.10186646884E+01 0.  0.
     999903    2    3    3    0    0 -0.15523986324E-01 -0.12854320411E+00  0.13126398293E-01  0.13175782989E+00  0.20578482240E-01 0.  0.
         14    1    1    2    0    0 -0.88028524530E-02  0.20859064957E-01  0.10506643769E-01  0.24959574626E-01  0.00000000000E+00 0. -1.
     999901    1    3    3    0    0  0.24326838777E-01  0.10768413915E+00 -0.23633042062E-01  0.88721259548E+00  0.88000000000E+00 0. -1.
        -11    1    4    4    0    0 -0.15224855949E-01 -0.44711198988E-01  0.61551693204E-02  0.47634386571E-01  0.51100000000E-03 0.  1.
         11    1    4    4    0    0 -0.29913037534E-03 -0.83832005120E-01  0.69712289728E-02  0.84123443318E-01  0.51100000000E-03 0. -1.
</event>
<event>
 7    1  0.1081309E+005  0.1043930E+01  0.7957747E-01            NaN
         13   -1    0    0    0    0  0.00000000000E+00  0.00000000000E+00  0.74505805969E-08  0.10566000000E+00  0.10566000000E+00 0.  1.
     999900   -1    0    0    0    0 -0.00000000000E+00 -0.00000000000E+00 -0.74505805969E-08  0.93827000000E+00  0.93827000000E+00 0.  1.
     999903    2    1    2    0    0  0.26801706371E-01 -0.91026549990E-01 -0.33880403482E-01  0.10205087231E+00  0.16196744452E-01 0.  0.
         14    1    1    2    0    0 -0.21530774205E-01 -0.37930129541E-01  0.29137147441E-01  0.52452286183E-01  0.00000000000E+00 0. -1.
     999901    1    1    2    0    0 -0.52709321658E-02  0.12895667953E+00  0.47432560413E-02  0.88942684151E+00  0.88000000000E+00 0. -1.
        -11    1    3    3    0    0  0.20255243117E-01 -0.82438255319E-01 -0.33410532445E-01  0.91229740836E-01  0.51100000000E-03 0.  1.
         11    1    3    3    0    0  0.65464632546E-02 -0.85882946706E-02 -0.46987103717E-03  0.10821131470E-01  0.51100000000E-03 0. -1.
</event>
<event>
 8    1  0.1081309E+005  0.1043930E+01  0.7957747E-01            NaN
         13   -1    0    0    0    0  0.00000000000E+00  0.00000000000E+00  0.74505805969E-08  0.10566000000E+00  0.10566000000E+00 0.  1.
     999900   -1    0    0    0    0 -0.00000000000E+00 -0.00000000000E+00 -0.74505805969E-08  0.93827000000E+00  0.93827000000E+00 0.  1.
     999902    2    1    2    0    0 -0.19853348939E-01  0.25196563589E-02  0.10882585054E-01  0.10211498598E+01  0.10208957348E+01 0.  0.
     999903    2    3    3    0    0  0.83743010272E-01  0.65087189384E-01  0.73575994588E-01  0.13065709424E+00  0.20214235188E-01 0.  0.
         14    1    1    2    0    0  0.19853348939E-01 -0.25196563589E-02 -0.10882585054E-01  0.22780140248E-01  0.00000000000E+00 0. -1.
     999901    1    3    3    0    0 -0.10359635921E+00 -0.62567533025E-01 -0.62693409533E-01  0.89049276551E+00  0.88000000000E+00 0.  1.
        -11    1    4    4    0    0  0.87963945671E-02  0.73704467497E-02  0.16730370325E-01  0.20294493216E-01  0.51100000000E-03 0. -1.
         11    1    4    4    0    0  0.74946615705E-01  0.57716742634E-01  0.56845624262E-01  0.11036260102E+00  0.51100000000E-03 0.  1.
</event>
<event>
 8    1  0.1081309E+005  0.1043930E+01  0.7957747E-01            NaN
         13   -1    0    0    0    0  0.00000000000E+00  0.00000000000E+00  0.74505805969E-08  0.10566000000E+00  0.10566000000E+00 0.  1.
     999900   -1    0    0    0    0 -0.00000000000E+00 -0.00000000000E+00 -0.74505805969E-08  0.93827000000E+00  0.93827000000E+00 0. -1.
     999902    2    1    2    0    0  0.66414172761E-02  0.18112719333E-01  0.56809552121E-02  0.10238190011E+01  0.10236214607E+01 0.  0.
     999903    2    3    3    0    0 -0.11145956543E+00 -0.31264627839E-01  0.62373795325E-01  0.13275220076E+00  0.18219351882E-01 0.  0.
         14    1    1    2    0    0 -0.66414172761E-02 -0.18112719333E-01 -0.56809552121E-02  0.20110998911E-01  0.00000000000E+00 0. -1.
     999901    1    3    3    0    0  0.11810098271E+00  0.49377347173E-01 -0.56692840113E-01  0.89106680033E+00  0.88000000000E+00 0. -1.
        -11    1    4    4    0    0 -0.97584833134E-01 -0.22430960212E-01  0.58035484510E-01  0.11573385942E+00  0.51100000000E-03 0. -1.
         11    1    4    4    0    0 -0.13874732297E-01 -0.88336676271E-02  0.43383108153E-02  0.17018341335E-01  0.51100000000E-03 0.  1.
</event>
<event>
 8    1  0.1081309E+005  0.1043930E+01  0.7957747E-01            NaN
         13   -1    0    0    0    0  0.00000000000E+00  0.00000000000E+00  0.74505805969E-08  0.10566000000E+00  0.10566000000E+00 0.  1.
     999900   -1    0    0    0    0 -0.00000000000E+00 -0.00000000000E+00 -0.74505805969E-08  0.93827000000E+00  0.93827000000E+00 0.  1.
     999902    2    1    2    0    0 -0.12057701899E-01  0.19395319704E-01  0.69011649610E-02  0.10200722407E+01  0.10197932063E+01 0.  0.
     999903    2    3    3    0    0  0.11154897511E-01  0.59976282414E-01 -0.11393815406E+00  0.13058487129E+00  0.18679386182E-01 0.  0.
         14    1    1    2    0    0  0.12057701899E-01 -0.19395319704E-01 -0.69011649610E-02  0.23857759310E-01  0.00000000000E+00 0. -1.
     999901    1    3    3    0    0 -0.23212599409E-01 -0.40580962711E-01  0.12083931902E+00  0.88948736940E+00  0.88000000000E+00 0. -1.
        -11    1    4    4    0    0  0.15765322582E-01  0.48038551315E-01 -0.96562883267E-01  0.10899953832E+00  0.51100000000E-03 0.  1.
         11    1    4    4    0    0 -0.46104250719E-02  0.11937731099E-01 -0.17375270792E-01  0.21585332965E-01  0.51100000000E-03 0. -1.
</event>
<event>
 8    1  0.1081309E+005  0.1043930E+01  0.7957747E-01            NaN
         13   -1    0    0    0    0  0.00000000000E+00  0.00000000000E+00  0.74505805969E-08  0.10566000000E+00  0.10566000000E+00 0. -1.
     999900   -1    0    0    0    0 -0.00000000000E+00 -0.00000000000E+00 -0.74505805969E-08  0.93827000000E+00  0.93827000000E+00 0.  1.
     999902    2    1    2    0    0 -0.20916388953E-01  0.12041503567E-01  0.46154441929E-03  0.10197906927E+01  0.10195049537E+01 0.  0.
     999903    2    3    3    0    0  0.41627274331E-02  0.52114264717E-01 -0.11799548465E+00  0.13059619426E+00  0.19980156968E-01 0.  0.
         14    1    1    2    0    0  0.20916388953E-01 -0.12041503567E-01 -0.46154441929E-03  0.24139307327E-01  0.00000000000E+00 0.  1.
     999901    1    3    3    0    0 -0.25079116386E-01 -0.40072761149E-01  0.11845702907E+00  0.88919449841E+00  0.88000000000E+00 0. -1.
        -11    1    4    4    0    0  0.12200266121E-01  0.31155832211E-01 -0.67828715067E-01  0.75634172718E-01  0.51100000000E-03 0.  1.
         11    1    4    4    0    0 -0.80375386878E-02  0.20958432506E-01 -0.50166769580E-01  0.54962021546E-01  0.51100000000E-03 0. -1.
</event>
<event>
 8    1  0.1081309E+005  0.1043930E+01  0.7957747E-01            NaN
         13   -1    0    0    0    0  0.00000000000E+00  0.00000000000E+00  0.74505805969E-08  0.10566000000E+00  0.10566000000E+00 0. -1.
     999900   -1    0    0    0    0 -0.00000000000E+00 -0.00000000000E+00 -0.74505805969E-08  0.93827000000E+00  0.93827000000E+00 0.  1.
     999902    2    1    2    0    0  0.17154401043E-02  0.12062741759E-01  0.19122989261E-01  0.10212553183E+01  0.10210035670E+01 0.  0.
     999903    2    3    3    0    0 -0.23633339895E-01 -0.14836894190E-01 -0.12415833089E+00  0.12890130344E+00  0.20532576936E-01 0.  0.
         14    1    1    2    0    0 -0.17154401043E-02 -0.12062741759E-01 -0.19122989261E-01  0.22674681735E-01  0.00000000000E+00 0. -1.
     999901    1    3    3    0    0  0.25348779999E-01  0.26899635949E-01  0.14328132015E+00  0.89235401482E+00  0.88000000000E+00 0. -1.
        -11    1    4    4    0    0 -0.13928170707E-01 -0.18075539389E-01 -0.10150157112E+00  0.10403628754E+00  0.51100000000E-03 0.  1.
         11    1    4    4    0    0 -0.97051691876E-02  0.32386451991E-02 -0.22656759771E-01  0.24865015906E-01  0.51100000000E-03 0. -1.
</event>
<event>
 8    1  0.1081309E+005  0.1043930E+01  0.7957747E-01            NaN
         13   -1    0    0    0    0  0.00000000000E+00  0.00000000000E+00  0.74505805969E-08  0.10566000000E+00  0.10566000000E+00 0.  1.
     999900   -1    0    0    0    0 -0.00000000000E+00 -0.00000000000E+00 -0.74505805969E-08  0.93827000000E+00  0.93827000000E+00 0.  1.
     999902    2    1    2    0    0  0.43200539096E-02 -0.11158477083E-01 -0.21813077956E-01  0.10190505939E+01  0.10187468420E+01 0.  0.
     999903    2    3    3    0    0 -0.11021837833E+00 -0.23672746052E-02  0.61267266669E-01  0.12770403879E+00  0.20023702116E-01 0.  0.
         14    1    1    2    0    0 -0.43200539096E-02  0.11158477083E-01  0.21813077956E-01  0.24879406073E-01  0.00000000000E+00 0.  1.
     999901    1    3    3    0    0  0.11453843224E+00 -0.87912024781E-02 -0.83080344625E-01  0.89134655514E+00  0.88000000000E+00 0.  1.
        -11    1    4    4    0    0 -0.70171274585E-01 -0.10614197388E-01  0.42382311652E-01  0.82663114054E-01  0.51100000000E-03 0. -1.
         11    1    4    4    0    0 -0.40047103744E-01  0.82469227830E-02  0.18884955017E-01  0.45040924731E-01  0.51100000000E-03 0.  1.
</event>
<event>
 8    1  0.1081309E+005  0.1043930E+01  0.7957747E-01            NaN
         13   -1    0    0    0    0  0.00000000000E+00  0.00000000000E+00  0.74505805969E-08  0.10566000000E+00  0.10566000000E+00 0. -1.
     999900   -1    0    0    0    0 -0.00000000000E+00 -0.00000000000E+00 -0.74505805969E-08  0.93827000000E+00  0.93827000000E+00 0.  1.
     999902    2    1    2    0    0 -0.34588136560E-02 -0.11497981772E-02  0.24548063744E-01  0.10191128112E+01  0.10188105953E+01 0.  0.
     999903    2    3    3    0    0  0.83816073973E-01  0.96206394763E-01  0.28080841024E-02  0.12918710583E+00  0.20015452198E-01 0.  0.
         14    1    1    2    0    0  0.34588136560E-02  0.11497981772E-02 -0.24548063744E-01  0.24817188829E-01  0.00000000000E+00 0.  1.
     999901    1    3    3    0    0 -0.87274887629E-01 -0.97356192940E-01  0.21739979642E-01  0.88992570534E+00  0.88000000000E+00 0.  1.
        -11    1    4    4    0    0  0.41347027859E-01  0.33376249474E-01 -0.21827890330E-02  0.53184362652E-01  0.51100000000E-03 0. -1.
         11    1    4    4    0    0  0.42469046114E-01  0.62830145288E-01  0.49908731354E-02  0.76002743177E-01  0.51100000000E-03 0.  1.
</event>
<event>
 8    1  0.1081309E+005  0.1043930E+01  0.7957747E-01            NaN
         13   -1    0    0    0    0  0.00000000000E+00  0.00000000000E+00  0.74505805969E-08  0.10566000000E+00  0.10566000000E+00 0.  1.
     999900   -1    0    0    0    0 -0.00000000000E+00 -0.00000000000E+00 -0.74505805969E-08  0.93827000000E+00  0.93827000000E+00 0.  1.
     999902    2    1    2    0    0 -0.15805156232E-01 -0.38012181832E-02  0.19667202928E-01  0.10184142971E+01  0.10180946073E+01 0.  0.
     999903    2    3    3    0    0 -0.86259657857E-01 -0.33914265284E-01 -0.87355763301E-01  0.12862525036E+00  0.17958833072E-01 0.  0.
         14    1    1    2    0    0  0.15805156232E-01  0.38012181832E-02 -0.19667202928E-01  0.25515702894E-01  0.00000000000E+00 0. -1.
     999901    1    3    3    0    0  0.70454501626E-01  0.30113047100E-01  0.10702296623E+00  0.88978904674E+00  0.88000000000E+00 0.  1.
        -11    1    4    4    0    0 -0.36888573449E-01 -0.60819581214E-02 -0.40147009117E-01  0.54861648970E-01  0.51100000000E-03 0. -1.
         11    1    4    4    0    0 -0.49371084409E-01 -0.27832307162E-01 -0.47208754184E-01  0.73763601392E-01  0.51100000000E-03 0.  1.
</event>
<event>
 8    1  0.1081309E+005  0.1043930E+01  0.7957747E-01            NaN
         13   -1    0    0    0    0  0.00000000000E+00  0.00000000000E+00  0.74505805969E-08  0.10566000000E+00  0.10566000000E+00 0. -1.
     999900   -1    0    0    0    0 -0.00000000000E+00 -0.00000000000E+00 -0.74505805969E-08  0.93827000000E+00  0.93827000000E+00 0. -1.
     999902    2    1    2    0    0  0.19694364471E-01 -0.66572978547E-02  0.12607590094E-01  0.10196166511E+01  0.10193267269E+01 0.  0.
     999903    2    3    3    0    0 -0.10178674112E+00  0.51866658583E-01 -0.51919035436E-01  0.12701013203E+00  0.19628969842E-01 0.  0.
         14    1    1    2    0    0 -0.19694364471E-01  0.66572978547E-02 -0.12607590094E-01  0.24313348898E-01  0.00000000000E+00 0.  1.
     999901    1    3    3    0    0  0.12148110559E+00 -0.58523956437E-01  0.64526625530E-01  0.89260651907E+00  0.88000000000E+00 0.  1.
        -11    1    4    4    0    0 -0.42512321197E-01  0.12217280382E-01 -0.15031050965E-01  0.46719942290E-01  0.51100000000E-03 0.  1.
         11    1    4    4    0    0 -0.59274419921E-01  0.39649378201E-01 -0.36887984471E-01  0.80290189737E-01  0.51100000000E-03 0. -1.
</event>
<event>
 8    1  0.1081309E+005  0.1043930E+01  0.7957747E-01            NaN
         13   -1    0    0    0    0  0.00000000000E+00  0.00000000000E+00  0.74505805969E-08  0.10566000000E+00  0.10566000000E+00 0. -1.
     999900   -1    0    0    0    0 -0.00000000000E+00 -0.00000000000E+00 -0.74505805969E-08  0.93827000000E+00  0.93827000000E+00 0. -1.
     999902    2    1    2    0    0  0.16067092050E-01 -0.31752761586E-03 -0.16489124464E-01  0.10209051548E+01  0.10206454779E+01 0.  0.
     999903    2    3    3    0    0  0.22895002875E-01 -0.12370321890E+00  0.30585914678E-01  0.13102498956E+00  0.20134105139E-01 0.  0.
         14    1    1    2    0    0 -0.16067092050E-01  0.31752761586E-03  0.16489124464E-01  0.23024845196E-01  0.00000000000E+00 0. -1.
     999901    1    3    3    0    0 -0.68279108245E-02  0.12338569129E+00 -0.47075039141E-01  0.88988016524E+00  0.88000000000E+00 0. -1.
        -11    1    4    4    0    0  0.61050359286E-02 -0.67967511736E-01  0.24448802008E-01  0.72490407337E-01  0.51100000000E-03 0. -1.
         11    1    4    4    0    0  0.16789966946E-01 -0.55735707166E-01  0.61371126698E-02  0.58534582225E-01  0.51100000000E-03 0.  1.
</event>
<event>
 8    1  0.1081309E+005  0.1043930E+01  0.7957747E-01            NaN
         13   -1    0    0    0    0  0.00000000000E+00  0.00000000000E+00  0.74505805969E-08  0.10566000000E+00  0.10566000000E+00 0. -1.
     999900   -1    0    0    0    0 -0.00000000000E+00 -0.00000000000E+00 -0.74505805969E-08  0.93827000000E+00  0.93827000000E+00 0.  1.
     999902    2    1    2    0    0  0.19899858363E-01 -0.61875297959E-02 -0.12328761578E-01  0.10197166101E+01  0.10194290935E+01 0.  0.
     999903    2    3    3    0    0  0.12035026754E+00 -0.90495972267E-02  0.49226830105E-01  0.13186100980E+00  0.19949009951E-01 0.  0.
         14    1    1    2    0    0 -0.19899858363E-01  0.61875297959E-02  0.12328761578E-01  0.24213389888E-01  0.00000000000E+00 0. -1.
     999901    1    3    3    0    0 -0.10045040917E+00  0.28620674308E-02 -0.61555591683E-01  0.88785560031E+00  0.88000000000E+00 0.  1.
        -11    1    4    4    0    0  0.87549577847E-01 -0.14446543208E-01  0.31324123934E-01  0.94101503989E-01  0.51100000000E-03 0.  1.
         11    1    4    4    0    0  0.32800689689E-01  0.53969459814E-02  0.17902706171E-01  0.37759505813E-01  0.51100000000E-03 0. -1.
</event>
<event>
 8    1  0.1081309E+005  0.1043930E+01  0.7957747E-01            NaN
         13   -1    0    0    0    0  0.00000000000E+00  0.00000000000E+00  0.74505805969E-08  0.10566000000E+00  0.10566000000E+00 0.  1.
     999900   -1    0    0    0    0 -0.00000000000E+00 -0.00000000000E+00 -0.74505805969E-08  0.93827000000E+00  0.93827000000E+00 0.  1.
     999902    2    1    2    0    0 -0.11412648599E-01  0.12643366247E-01  0.16521974076E-01  0.10202007167E+01  0.10199247146E+01 0.  0.
     999903    2    3    3    0    0  0.82714357933E-01 -0.42487415020E-01  0.88331803878E-01  0.13056261722E+00  0.24438575993E-01 0.  0.
         14    1    1    2    0    0  0.11412648599E-01 -0.12643366247E-01 -0.16521974076E-01  0.23729283290E-01  0.00000000000E+00 0. -1.
     999901    1    3    3    0    0 -0.94127006532E-01  0.55130781267E-01 -0.71809829802E-01  0.88963809949E+00  0.88000000000E+00 0.  1.
        -11    1    4    4    0    0  0.56171075789E-01 -0.30343885848E-01  0.74925141774E-01  0.98437691737E-01  0.51100000000E-03 0.  1.
         11    1    4    4    0    0  0.26543282145E-01 -0.12143529172E-01  0.13406662104E-01  0.32124925487E-01  0.51100000000E-03 0. -1.
</event>
<event>
 8    1  0.1081309E+005  0.1043930E+01  0.7957747E-01            NaN
         13   -1    0    0    0    0  0.00000000000E+00  0.00000000000E+00  0.74505805969E-08  0.10566000000E+00  0.10566000000E+00 0.  1.
     999900   -1    0    0    0    0 -0.00000000000E+00 -0.00000000000E+00 -0.74505805969E-08  0.93827000000E+00  0.93827000000E+00 0.  1.
     999902    2    1    2    0    0  0.15693573102E-01 -0.42649537161E-02 -0.16709111430E-01  0.10206132148E+01  0.10203468341E+01 0.  0.
     999903    2    3    3    0    0 -0.85048344077E-01  0.92223544824E-01  0.21121641145E-01  0.12882280778E+00  0.20267931063E-01 0.  0.
         14    1    1    2    0    0 -0.15693573102E-01  0.42649537161E-02  0.16709111430E-01  0.23316785192E-01  0.00000000000E+00 0.  1.
     999901    1    3    3    0    0  0.10074191718E+00 -0.96488498540E-01 -0.37830752575E-01  0.89179040703E+00  0.88000000000E+00 0.  1.
        -11    1    4    4    0    0 -0.15304024688E-01  0.29256843551E-01  0.33361787647E-02  0.33189867067E-01  0.51100000000E-03 0.  1.
         11    1    4    4    0    0 -0.69744319389E-01  0.62966701273E-01  0.17785462380E-01  0.95632940712E-01  0.51100000000E-03 0. -1.
</event>
<event>
 8    1  0.1081309E+005  0.1043930E+01  0.7957747E-01            NaN
         13   -1    0    0    0    0  0.00000000000E+00  0.00000000000E+00  0.74505805969E-08  0.10566000000E+00  0.10566000000E+00 0. -1.
     999900   -1    0    0    0    0 -0.00000000000E+00 -0.00000000000E+00 -0.74505805969E-08  0.93827000000E+00  0.93827000000E+00 0. -1.
     999902    2    1    2    0    0 -0.10818749370E-01 -0.14994001101E-01 -0.14960322985E-01  0.10201460417E+01  0.10198687513E+01 0.  0.
     999903    2    3    3    0    0  0.56942637653E-01 -0.11092217124E+00  0.34425166573E-01  0.13097072383E+00  0.20543766709E-01 0.  0.
         14    1    1    2    0    0  0.10818749370E-01  0.14994001101E-01  0.14960322985E-01  0.23783958265E-01  0.00000000000E+00 0. -1.
     999901    1    3    3    0    0 -0.67761387023E-01  0.95928170140E-01 -0.49385489558E-01  0.88917531791E+00  0.88000000000E+00 0. -1.
        -11    1    4    4    0    0  0.14915058141E-01 -0.51084685375E-01  0.13305256231E-01  0.54857952965E-01  0.51100000000E-03 0.  1.
         11    1    4    4    0    0  0.42027579512E-01 -0.59837485866E-01  0.21119910341E-01  0.76112770862E-01  0.51100000000E-03 0. -1.
</event>
<event>
 8    1  0.1081309E+005  0.1043930E+01  0.7957747E-01            NaN
         13   -1    0    0    0    0  0.00000000000E+00  0.00000000000E+00  0.74505805969E-08  0.10566000000E+00  0.10566000000E+00 0. -1.
     999900   -1    0    0    0    0 -0.00000000000E+00 -0.00000000000E+00 -0.74505805969E-08  0.93827000000E+00  0.93827000000E+00 0.  1.
     999902    2    1    2    0    0  0.19847034789E-01 -0.97236100277E-02  0.51972612447E-02  0.10212261478E+01  0.10209737411E+01 0.  0.
     999903    2    3    3    0    0  0.11954526960E+00  0.19419881638E-01  0.53014335362E-01  0.13382795433E+00  0.20765315311E-01 0.  0.
         14    1    1    2    0    0 -0.19847034789E-01  0.97236100277E-02 -0.51972612447E-02  0.22703852235E-01  0.00000000000E+00 0.  1.
     999901    1    3    3    0    0 -0.99698234812E-01 -0.29143491665E-01 -0.47817074117E-01  0.88739819343E+00  0.88000000000E+00 0.  1.
        -11    1    4    4    0    0  0.18546844070E-01 -0.95113718362E-03  0.15440583805E-01  0.24157045269E-01  0.51100000000E-03 0. -1.
         11    1    4    4    0    0  0.10099842553E+00  0.20371018821E-01  0.37573751557E-01  0.10967090906E+00  0.51100000000E-03 0.  1.
</event>
<event>
 8    1  0.1081309E+005  0.1043930E+01  0.7957747E-01            NaN
         13   -1    0    0    0    0  0.00000000000E+00  0.00000000000E+00  0.74505805969E-08  0.10566000000E+00  0.10566000000E+00 0. -1.
     999900   -1    0    0    0    0 -0.00000000000E+00 -0.00000000000E+00 -0.74505805969E-08  0.93827000000E+00  0.93827000000E+00 0.  1.
     999902    2    1    2    0    0 -0.67164463328E-02  0.21731264924E-01 -0.85976044604E-02  0.10196138052E+01  0.10193238124E+01 0.  0.
     999903    2    3    3    0    0  0.55322118888E-01 -0.61085335017E-01 -0.97515591714E-01  0.12910059292E+00  0.19123741099E-01 0.  0.
         14    1    1    2    0    0  0.67164463328E-02 -0.21731264924E-01  0.85976044604E-02  0.24316194789E-01  0.00000000000E+00 0. -1.
     999901    1    3    3    0    0 -0.62038565221E-01  0.82816599941E-01  0.88917987254E-01  0.89051321229E+00  0.88000000000E+00 0.  1.
        -11    1    4    4    0    0  0.33476982915E-01 -0.23267773471E-01 -0.43190376124E-01  0.59395011391E-01  0.51100000000E-03 0.  1.
         11    1    4    4    0    0  0.21845135973E-01 -0.37817561547E-01 -0.54325215590E-01  0.69705581533E-01  0.51100000000E-03 0. -1.
</event>
<event>
 8    1  0.1081309E+005  0.1043930E+01  0.7957747E-01            NaN
         13   -1    0    0    0    0  0.00000000000E+00  0.00000000000E+00  0.74505805969E-08  0.10566000000E+00  0.10566000000E+00 0.  1.
     999900   -1    0    0    0    0 -0.00000000000E+00 -0.00000000000E+00 -0.74505805969E-08  0.93827000000E+00  0.93827000000E+00 0. -1.
     999902    2    1    2    0    0  0.61791776440E-02  0.21576610711E-01 -0.51638871937E-02  0.10208996266E+01  0.10206398236E+01 0.  0.
     999903    2    3    3    0    0  0.73328666574E-01 -0.10079859268E+00  0.28380740400E-01  0.12926630161E+00  0.19153607415E-01 0.  0.
         14    1    1    2    0    0 -0.61791776440E-02 -0.21576610711E-01  0.51638871937E-02  0.23030373359E-01  0.00000000000E+00 0.  1.
     999901    1    3    3    0    0 -0.67149488930E-01  0.12237520339E+00 -0.33544627593E-01  0.89163332503E+00  0.88000000000E+00 0. -1.
        -11    1    4    4    0    0  0.44308504106E-01 -0.56402804283E-01  0.69651526431E-02  0.72064515120E-01  0.51100000000E-03 0. -1.
         11    1    4    4    0    0  0.29020162468E-01 -0.44395788401E-01  0.21415587757E-01  0.57201786488E-01  0.51100000000E-03 0.  1.
</event>
<event>
 8    1  0.1081309E+005  0.1043930E+01  0.7957747E-01            NaN
         13   -1    0    0    0    0  0.00000000000E+00  0.00000000000E+00  0.74505805969E-08  0.10566000000E+00  0.10566000000E+00 0. -1.
     999900   -1    0    0    0    0 -0.00000000000E+00 -0.00000000000E+00 -0.74505805969E-08  0.93827000000E+00  0.93827000000E+00 0. -1.
     999902    2    1    2    0    0 -0.18822106068E-02  0.22819151193E-01 -0.19075899263E-02  0.10209540283E+01  0.10206954651E+01 0.  0.
     999903    2    3    3    0    0 -0.30749992184E-01 -0.12183209446E+00 -0.18061323630E-01  0.12853132864E+00  0.20136279970E-01 0.  0.
         14    1    1    2    0    0  0.18822106068E-02 -0.22819151193E-01  0.19075899263E-02  0.22975971737E-01  0.00000000000E+00 0.  1.
     999901    1    3    3    0    0  0.28867781577E-01  0.14465124566E+00  0.16153733704E-01  0.89242269962E+00  0.88000000000E+00 0.  1.
        -11    1    4    4    0    0  0.88426751663E-03 -0.27006809199E-01 -0.72673099838E-02  0.27986149923E-01  0.51100000000E-03 0. -1.
         11    1    4    4    0    0 -0.31634259701E-01 -0.94825285265E-01 -0.10794013647E-01  0.10054517872E+00  0.51100000000E-03 0.  1.
</event>
<event>
 8    1  0.1081309E+005  0.1043930E+01  0.7957747E-01            NaN
         13   -1    0    0    0    0  0.00000000000E+00  0.00000000000E+00  0.74505805969E-08  0.10566000000E+00  0.10566000000E+00 0.  1.
     999900   -1    0    0    0    0 -0.00000000000E+00 -0.00000000000E+00 -0.74505805969E-08  0.93827000000E+00  0.93827000000E+00 0.  1.
     999902    2    1    2    0    0 -0.10720322483E-01  0.27476290603E-01 -0.16285856624E-02  0.10143914802E+01  0.10139613163E+01 0.  0.
     999903    2    3    3    0    0  0.11427154216E-01  0.94522655891E-01  0.82498485314E-01  0.12756393786E+00  0.20036113212E-01 0.  0.
         14    1    1    2    0    0  0.10720322483E-01 -0.27476290603E-01  0.16285856624E-02  0.29538519779E-01  0.00000000000E+00 0.  1.
     999901    1    3    3    0    0 -0.22147476699E-01 -0.67046365288E-01 -0.84127070977E-01  0.88682754236E+00  0.88000000000E+00 0.  1.
        -11    1    4    4    0    0  0.77512120318E-03  0.89974611617E-02  0.17200651050E-01  0.19433955793E-01  0.51100000000E-03 0.  1.
         11    1    4    4    0    0  0.10652033013E-01  0.85525194729E-01  0.65297834265E-01  0.10812998207E+00  0.51100000000E-03 0. -1.
</event>
<event>
 8    1  0.1081309E+005  0.1043930E+01  0.7957747E-01            NaN
         13   -1    0    0    0    0  0.00000000000E+00  0.00000000000E+00  0.74505805969E-08  0.10566000000E+00  0.10566000000E+00 0. -1.
     999900   -1    0    0    0    0 -0.00000000000E+00 -0.00000000000E+00 -0.74505805969E-08  0.93827000000E+00  0.93827000000E+00 0.  1.
     999902    2    1    2    0    0  0.78731037186E-02  0.14823935091E-01 -0.16577595202E-01  0.10203386567E+01  0.10200658915E+01 0.  0.
     999903    2    3    3    0    0  0.36615821114E-01  0.10304009356E+00 -0.74096909102E-01  0.13359365062E+00  0.19973289942E-01 0.  0.
         14    1    1    2    0    0 -0.78731037186E-02 -0.14823935091E-01  0.16577595202E-01  0.23591343252E-01  0.00000000000E+00 0. -1.
     999901    1    3    3    0    0 -0.28742717396E-01 -0.88216158470E-01  0.57519313900E-01  0.88674500613E+00  0.88000000000E+00 0. -1.
        -11    1    4    4    0    0  0.29208261974E-01  0.83876137685E-01 -0.68860642374E-01  0.11238495553E+00  0.51100000000E-03 0.  1.
         11    1    4    4    0    0  0.74075591402E-02  0.19163955876E-01 -0.52362667285E-02  0.21208695091E-01  0.51100000000E-03 0. -1.
</event>
<event>
 8    1  0.1081309E+005  0.1043930E+01  0.7957747E-01            NaN
         13   -1    0    0    0    0  0.00000000000E+00  0.00000000000E+00  0.74505805969E-08  0.10566000000E+00  0.10566000000E+00 0.  1.
     999900   -1    0    0    0    0 -0.00000000000E+00 -0.00000000000E+00 -0.74505805969E-08  0.93827000000E+00  0.93827000000E+00 0.  1.
     999902    2    1    2    0    0  0.15431129956E-01  0.14087807231E-02 -0.17555069142E-01  0.10205145161E+01  0.10202458491E+01 0.  0.
     999903    2    3    3    0    0 -0.32149345711E-01  0.12534055298E+00 -0.63395909167E-02  0.13048711605E+00  0.15584042843E-01 0.  0.
         14    1    1    2    0    0 -0.15431129956E-01 -0.14087807231E-02  0.17555069142E-01  0.23415483924E-01  0.00000000000E+00 0.  1.
     999901    1    3    3    0    0  0.47580475667E-01 -0.12393177226E+00 -0.11215478225E-01  0.89002740002E+00  0.88000000000E+00 0. -1.
        -11    1    4    4    0    0 -0.86113361419E-02  0.17749386468E-01 -0.49298347988E-02  0.20341096880E-01  0.51100000000E-03 0. -1.
         11    1    4    4    0    0 -0.23538009570E-01  0.10759116651E+00 -0.14097561179E-02  0.11014601917E+00  0.51100000000E-03 0.  1.
</event>
<event>
 8    1  0.1081309E+005  0.1043930E+01  0.7957747E-01            NaN
         13   -1    0    0    0    0  0.00000000000E+00  0.00000000000E+00  0.74505805969E-08  0.10566000000E+00  0.10566000000E+00 0.  1.
     999900   -1    0    0    0    0 -0.00000000000E+00 -0.00000000000E+00 -0.74505805969E-08  0.93827000000E+00  0.93827000000E+00 0. -1.
     999902    2    1    2    0    0  0.34289342225E-02  0.21699213532E-02  0.23210409749E-01  0.10203675453E+01  0.10200954555E+01 0.  0.
     999903    2    3    3    0    0  0.79994418835E-02 -0.93045019589E-01  0.91954652079E-01  0.13255419482E+00  0.19839097380E-01 0.  0.
         14    1    1    2    0    0 -0.34289342225E-02 -0.21699213532E-02 -0.23210409749E-01  0.23562454654E-01  0.00000000000E+00 0. -1.
     999901    1    3    3    0    0 -0.45705076609E-02  0.95214940942E-01 -0.68744242329E-01  0.88781335053E+00  0.88000000000E+00 0. -1.
        -11    1    4    4    0    0 -0.66280140025E-02 -0.31798320641E-01  0.30176339068E-01  0.44338880520E-01  0.51100000000E-03 0. -1.
         11    1    4    4    0    0  0.14627455886E-01 -0.61246698948E-01  0.61778313011E-01  0.88215314301E-01  0.51100000000E-03 0.  1.
</event>
<event>
 8    1  0.1081309E+005  0.1043930E+01  0.7957747E-01            NaN
         13   -1    0    0    0    0  0.00000000000E+00  0.00000000000E+00  0.74505805969E-08  0.10566000000E+00  0.10566000000E+00 0.  1.
     999900   -1    0    0    0    0 -0.00000000000E+00 -0.00000000000E+00 -0.74505805969E-08  0.93827000000E+00  0.93827000000E+00 0.  1.
     999902    2    1    2    0    0 -0.70491933524E-02 -0.97283678157E-02 -0.16057381675E-01  0.10238757792E+01  0.10236793636E+01 0.  0.
     999903    2    3    3    0    0 -0.24890078455E-01 -0.13092578688E+00 -0.12707917788E-01  0.13538361235E+00  0.20153253928E-01 0.  0.
         14    1    1    2    0    0  0.70491933524E-02  0.97283678157E-02  0.16057381675E-01  0.20054220841E-01  0.00000000000E+00 0.  1.
     999901    1    3    3    0    0  0.17840885102E-01  0.12119741906E+00 -0.33494638873E-02  0.88849216681E+00  0.88000000000E+00 0.  1.
        -11    1    4    4    0    0 -0.26946569264E-01 -0.99088659272E-01 -0.12741535907E-01  0.10347602548E+00  0.51100000000E-03 0. -1.
         11    1    4    4    0    0  0.20564908091E-02 -0.31837127607E-01  0.33618119151E-04  0.31907586870E-01  0.51100000000E-03 0.  1.
</event>
<event>
 8    1  0.1081309E+005  0.1043930E+01  0.7957747E-01            NaN
         13   -1    0    0    0    0  0.00000000000E+00  0.00000000000E+00  0.74505805969E-08  0.10566000000E+00  0.10566000000E+00 0. -1.
     999900   -1    0    0    0    0 -0.00000000000E+00 -0.00000000000E+00 -0.74505805969E-08  0.93827000000E+00  0.93827000000E+00 0.  1.
     999902    2    1    2    0    0 -0.29820494694E-02  0.93043175825E-02  0.21981165437E-01  0.10198751756E+01  0.10195914570E+01 0.  0.
     999903    2    3    3    0    0 -0.23872095743E-01  0.16544388296E-01 -0.12270638884E+00  0.12778588574E+00  0.20707027638E-01 0.  0.
         14    1    1    2    0    0  0.29820494694E-02 -0.93043175825E-02 -0.21981165437E-01  0.24054824437E-01  0.00000000000E+00 0.  1.
     999901    1    3    3    0    0  0.20890046273E-01 -0.72400707138E-02  0.14468755427E+00  0.89208928982E+00  0.88000000000E+00 0. -1.
        -11    1    4    4    0    0 -0.49990609862E-02  0.14240353523E-01 -0.73418620944E-01  0.74955542167E-01  0.51100000000E-03 0.  1.
         11    1    4    4    0    0 -0.18873034756E-01  0.23040347738E-02 -0.49287767893E-01  0.52830343573E-01  0.51100000000E-03 0. -1.
</event>
<event>
 8    1  0.1081309E+005  0.1043930E+01  0.7957747E-01            NaN
         13   -1    0    0    0    0  0.00000000000E+00  0.00000000000E+00  0.74505805969E-08  0.10566000000E+00  0.10566000000E+00 0. -1.
     999900   -1    0    0    0    0 -0.00000000000E+00 -0.00000000000E+00 -0.74505805969E-08  0.93827000000E+00  0.93827000000E+00 0.  1.
     999902    2    1    2    0    0 -0.16904778666E-01  0.11718807359E-01 -0.11500178106E-01  0.10203640058E+01  0.10200918332E+01 0.  0.
     999903    2    3    3    0    0 -0.19681731595E-01  0.12921684790E+00  0.43455779034E-02  0.13240872031E+00  0.20707989448E-01 0.  0.
         14    1    1    2    0    0  0.16904778666E-01 -0.11718807359E-01  0.11500178106E-01  0.23565994232E-01  0.00000000000E+00 0. -1.
     999901    1    3    3    0    0  0.27769529289E-02 -0.11749804054E+00 -0.15845756009E-01  0.88795528546E+00  0.88000000000E+00 0.  1.
        -11    1    4    4    0    0 -0.13831464267E-02  0.73051170996E-01  0.60002990255E-02  0.73312013936E-01  0.51100000000E-03 0. -1.
         11    1    4    4    0    0 -0.18298585169E-01  0.56165676899E-01 -0.16547211221E-02  0.59096706369E-01  0.51100000000E-03 0.  1.
</event>
<event>
 8    1  0.1081309E+005  0.1043930E+01  0.7957747E-01            NaN
         13   -1    0    0    0    0  0.00000000000E+00  0.00000000000E+00  0.74505805969E-08  0.10566000000E+00  0.10566000000E+00 0. -1.
     999900   -1    0    0    0    0 -0.00000000000E+00 -0.00000000000E+00 -0.74505805969E-08  0.93827000000E+00  0.93827000000E+00 0.  1.
     999902    2    1    2    0    0 -0.11625259054E-01 -0.12462013708E-01 -0.15038588022E-01  0.10212009973E+01  0.10209480248E+01 0.  0.
     999903    2    3    3    0    0 -0.51386964249E-01 -0.14422406285E-01  0.11714356574E+00  0.13043898750E+00  0.21049669046E-01 0.  0.
         14    1    1    2    0    0  0.11625259054E-01  0.12462013708E-01  0.15038588022E-01  0.22729002693E-01  0.00000000000E+00 0. -1.
     999901    1    3    3    0    0  0.39761705195E-01  0.19603925774E-02 -0.13218215377E+00  0.89076200981E+00  0.88000000000E+00 0.  1.
        -11    1    4    4    0    0 -0.11169222723E-01 -0.92113236721E-05  0.46964951200E-01  0.48277524618E-01  0.51100000000E-03 0.  1.
         11    1    4    4    0    0 -0.40217741526E-01 -0.14413194961E-01  0.70178614545E-01  0.82161462882E-01  0.51100000000E-03 0. -1.
</event>
<event>
 8    1  0.1081309E+005  0.1043930E+01  0.7957747E-01            NaN
         13   -1    0    0    0    0  0.00000000000E+00  0.00000000000E+00  0.74505805969E-08  0.10566000000E+00  0.10566000000E+00 0. -1.
     999900   -1    0    0    0    0 -0.00000000000E+00 -0.00000000000E+00 -0.74505805969E-08  0.93827000000E+00  0.93827000000E+00 0.  1.
     999902    2    1    2    0    0 -0.18425472881E-02  0.11883613821E-01 -0.20517857332E-01  0.10201477014E+01  0.10198704501E+01 0.  0.
     999903    2    3    3    0    0  0.10857043522E+00 -0.21199217295E-01  0.62380384866E-01  0.12876808586E+00  0.21282887513E-01 0.  0.
         14    1    1    2    0    0  0.18425472881E-02 -0.11883613821E-01  0.20517857332E-01  0.23782298616E-01  0.00000000000E+00 0. -1.
     999901    1    3    3    0    0 -0.11041298251E+00  0.33082831116E-01 -0.82898242198E-01  0.89137961553E+00  0.88000000000E+00 0.  1.
        -11    1    4    4    0    0  0.76239471261E-01 -0.21268726148E-01  0.52409203962E-01  0.94930508642E-01  0.51100000000E-03 0. -1.
         11    1    4    4    0    0  0.32330963960E-01  0.69508853715E-04  0.99711809045E-02  0.33837577213E-01  0.51100000000E-03 0.  1.
</event>
<event>
 8    1  0.1081309E+005  0.1043930E+01  0.7957747E-01            NaN
         13   -1    0    0    0    0  0.00000000000E+00  0.00000000000E+00  0.74505805969E-08  0.10566000000E+00  0.10566000000E+00 0. -1.
     999900   -1    0    0    0    0 -0.00000000000E+00 -0.00000000000E+00 -0.74505805969E-08  0.93827000000E+00  0.93827000000E+00 0. -1.
     999902    2    1    2    0    0  0.11717004777E-01 -0.85789582919E-02  0.18328924022E-01  0.10205454713E+01  0.10202775225E+01 0.  0.
     999903    2    3    3    0    0  0.21616327020E-01  0.37139891419E-01 -0.11982226964E+00  0.12853988718E+00  0.17846264792E-01 0.  0.
         14    1    1    2    0    0 -0.11717004777E-01  0.85789582919E-02 -0.18328924022E-01  0.23384528692E-01  0.00000000000E+00 0.  1.
     999901    1    3    3    0    0 -0.98993222425E-02 -0.45718849711E-01  0.13815119366E+00  0.89200558412E+00  0.88000000000E+00 0.  1.
        -11    1    4    4    0    0  0.52008071226E-02  0.91065907013E-02 -0.55425852181E-01  0.56411564416E-01  0.51100000000E-03 0.  1.
         11    1    4    4    0    0  0.16415519897E-01  0.28033300718E-01 -0.64396417459E-01  0.72128322767E-01  0.51100000000E-03 0. -1.
</event>
<event>
 8    1  0.1081309E+005  0.1043930E+01  0.7957747E-01            NaN
         13   -1    0    0    0    0  0.00000000000E+00  0.00000000000E+00  0.74505805969E-08  0.10566000000E+00  0.10566000000E+00 0.  1.
     999900   -1    0    0    0    0 -0.00000000000E+00 -0.00000000000E+00 -0.74505805969E-08  0.93827000000E+00  0.93827000000E+00 0. -1.
     999902    2    1    2    0    0 -0.21055473781E-01 -0.31529825257E-02 -0.60863989479E-02  0.10217868628E+01  0.10215469027E+01 0.  0.
     999903    2    3    3    0    0  0.57560966147E-01 -0.11310018463E+00 -0.26487825755E-01  0.13123357962E+00  0.20389480621E-01 0.  0.
         14    1    1    2    0    0  0.21055473781E-01  0.31529825257E-02  0.60863989479E-02  0.22143137247E-01  0.00000000000E+00 0.  1.
     999901    1    3    3    0    0 -0.78616439928E-01  0.10994720211E+00  0.20401426807E-01  0.89055328313E+00  0.88000000000E+00 0. -1.
        -11    1    4    4    0    0  0.14340227902E-01 -0.15127429355E-01 -0.90893135501E-02  0.22745504984E-01  0.51100000000E-03 0. -1.
         11    1    4    4    0    0  0.43220738245E-01 -0.97972755277E-01 -0.17398512205E-01  0.10848807464E+00  0.51100000000E-03 0.  1.
</event>
<event>
 8    1  0.1081309E+005  0.1043930E+01  0.7957747E-01            NaN
         13   -1    0    0    0    0  0.00000000000E+00  0.00000000000E+00  0.74505805969E-08  0.10566000000E+00  0.10566000000E+00 0.  1.
     999900   -1    0    0    0    0 -0.00000000000E+00 -0.00000000000E+00 -0.74505805969E-08  0.93827000000E+00  0.93827000000E+00 0.  1.
     999902    2    1    2    0    0 -0.25290917549E-02  0.47207640776E-02  0.25364691910E-01  0.10180060822E+01  0.10176759474E+01 0.  0.
     999903    2    3    3    0    0 -0.74293341335E-01 -0.10005025018E+00 -0.19629981906E-01  0.12775241407E+00  0.20144229489E-01 0.  0.
         14    1    1    2    0    0  0.25290917549E-02 -0.47207640776E-02 -0.25364691910E-01  0.25923917804E-01  0.00000000000E+00 0. -1.
     999901    1    3    3    0    0  0.71764249580E-01  0.10477101426E+00  0.44994673816E-01  0.89025366813E+00  0.88000000000E+00 0.  1.
        -11    1    4    4    0    0 -0.46346523866E-01 -0.58714244798E-01 -0.20016230737E-02  0.74830678419E-01  0.51100000000E-03 0. -1.
         11    1    4    4    0    0 -0.27946817469E-01 -0.41336005385E-01 -0.17628358832E-01  0.52921735648E-01  0.51100000000E-03 0.  1.
</event>
<event>
 8    1  0.1081309E+005  0.1043930E+01  0.7957747E-01            NaN
         13   -1    0    0    0    0  0.00000000000E+00  0.00000000000E+00  0.74505805969E-08  0.10566000000E+00  0.10566000000E+00 0. -1.
     999900   -1    0    0    0    0 -0.00000000000E+00 -0.00000000000E+00 -0.74505805969E-08  0.93827000000E+00  0.93827000000E+00 0. -1.
     999902    2    1    2    0    0 -0.74439452220E-02 -0.99241869585E-02  0.19826511465E-01  0.10205421321E+01  0.10202741058E+01 0.  0.
     999903    2    3    3    0    0  0.30041689434E-01 -0.12616631455E+00 -0.10285481025E-01  0.13159661234E+00  0.19784722101E-01 0.  0.
         14    1    1    2    0    0  0.74439452220E-02  0.99241869585E-02 -0.19826511465E-01  0.23387867883E-01  0.00000000000E+00 0.  1.
     999901    1    3    3    0    0 -0.37485634656E-01  0.11624212759E+00  0.30111992490E-01  0.88894551977E+00  0.88000000000E+00 0. -1.
        -11    1    4    4    0    0  0.13326187905E-01 -0.54643574428E-01  0.53428285015E-02  0.56500570332E-01  0.51100000000E-03 0.  1.
         11    1    4    4    0    0  0.16715501528E-01 -0.71522740124E-01 -0.15628309527E-01  0.75096042012E-01  0.51100000000E-03 0. -1.
</event>
<event>
 8    1  0.1081309E+005  0.1043930E+01  0.7957747E-01            NaN
         13   -1    0    0    0    0  0.00000000000E+00  0.00000000000E+00  0.74505805969E-08  0.10566000000E+00  0.10566000000E+00 0. -1.
     999900   -1    0    0    0    0 -0.00000000000E+00 -0.00000000000E+00 -0.74505805969E-08  0.93827000000E+00  0.93827000000E+00 0. -1.
     999902    2    1    2    0    0 -0.11066704520E-01  0.14370669175E-01  0.15803061549E-01  0.10198732996E+01  0.10195895362E+01 0.  0.
     999903    2    3    3    0    0 -0.51293239373E-01  0.63354039738E-01 -0.99455869806E-01  0.13009682991E+00  0.19722686351E-01 0.  0.
         14    1    1    2    0    0  0.11066704520E-01 -0.14370669175E-01 -0.15803061549E-01  0.24056700435E-01  0.00000000000E+00 0.  1.
     999901    1    3    3    0    0  0.40226534852E-01 -0.48983370563E-01  0.11525893136E+00  0.88977646966E+00  0.88000000000E+00 0.  1.
        -11    1    4    4    0    0 -0.35340369219E-01  0.39391939183E-01 -0.77692213907E-01  0.94005360442E-01  0.51100000000E-03 0.  1.
         11    1    4    4    0    0 -0.15952870153E-01  0.23962100555E-01 -0.21763655899E-01  0.36091469466E-01  0.51100000000E-03 0. -1.
</event>
<event>
 8    1  0.1081309E+005  0.1043930E+01  0.7957747E-01            NaN
         13   -1    0    0    0    0  0.00000000000E+00  0.00000000000E+00  0.74505805969E-08  0.10566000000E+00  0.10566000000E+00 0.  1.
     999900   -1    0    0    0    0 -0.00000000000E+00 -0.00000000000E+00 -0.74505805969E-08  0.93827000000E+00  0.93827000000E+00 0. -1.
     999902    2    1    2    0    0 -0.56650392721E-02  0.20874117907E-01  0.10172527197E-01  0.10200280800E+01  0.10197479994E+01 0.  0.
     999903    2    3    3    0    0 -0.47636819383E-01  0.10612074841E+00 -0.59858308672E-01  0.13214693016E+00  0.18679245919E-01 0.  0.
         14    1    1    2    0    0  0.56650392721E-02 -0.20874117907E-01 -0.10172527197E-01  0.23901919963E-01  0.00000000000E+00 0. -1.
     999901    1    3    3    0    0  0.41971780111E-01 -0.85246630507E-01  0.70030835870E-01  0.88788114988E+00  0.88000000000E+00 0. -1.
        -11    1    4    4    0    0 -0.30549538995E-01  0.84199608280E-01 -0.50431805042E-01  0.10279336772E+00  0.51100000000E-03 0. -1.
         11    1    4    4    0    0 -0.17087280388E-01  0.21921140134E-01 -0.94265036301E-02  0.29353562433E-01  0.51100000000E-03 0.  1.
</event>
<event>
 8    1  0.1081309E+005  0.1043930E+01  0.7957747E-01            NaN
         13   -1    0    0    0    0  0.00000000000E+00  0.00000000000E+00  0.74505805969E-08  0.10566000000E+00  0.10566000000E+00 0.  1.
     999900   -1    0    0    0    0 -0.00000000000E+00 -0.00000000000E+00 -0.74505805969E-08  0.93827000000E+00  0.93827000000E+00 0.  1.
     999902    2    1    2    0    0  0.13809506315E-01 -0.69422256994E-02 -0.18089939961E-01  0.10201362426E+01  0.10198587209E+01 0.  0.
     999903    2    3    3    0    0  0.16019462816E-01  0.12484159984E+00 -0.27747311586E-01  0.13026820442E+00  0.18916752989E-01 0.  0.
         14    1    1    2    0    0 -0.13809506315E-01  0.69422256994E-02  0.18089939961E-01  0.23793757377E-01  0.00000000000E+00 0.  1.
     999901    1    3    3    0    0 -0.22099565006E-02 -0.13178382554E+00  0.96573716253E-02  0.88986803820E+00  0.88000000000E+00 0. -1.
        -11    1    4    4    0    0 -0.38084613038E-02  0.36601141407E-01 -0.66566048322E-02  0.37399457733E-01  0.51100000000E-03 0. -1.
         11    1    4    4    0    0  0.19827924120E-01  0.88240458434E-01 -0.21090706754E-01  0.92868746691E-01  0.51100000000E-03 0.  1.
</event>
<event>
 8    1  0.1081309E+005  0.1043930E+01  0.7957747E-01            NaN
         13   -1    0    0    0    0  0.00000000000E+00  0.00000000000E+00  0.74505805969E-08  0.10566000000E+00  0.10566000000E+00 0. -1.
     999900   -1    0    0    0    0 -0.00000000000E+00 -0.00000000000E+00 -0.74505805969E-08  0.93827000000E+00  0.93827000000E+00 0. -1.
     999902    2    1    2    0    0 -0.21092593613E-01 -0.26458614154E-02  0.11467190260E-01  0.10197764383E+01  0.10194903578E+01 0.  0.
     999903    2    3    3    0    0  0.19930830654E-01 -0.11647108842E+00  0.52209036200E-01  0.13056386441E+00  0.18931106180E-01 0.  0.
         14    1    1    2    0    0  0.21092593613E-01  0.26458614154E-02 -0.11467190260E-01  0.24153561651E-01  0.00000000000E+00 0. -1.
     999901    1    3    3    0    0 -0.41023424267E-01  0.11382522700E+00 -0.40741845940E-01  0.88921257394E+00  0.88000000000E+00 0. -1.
        -11    1    4    4    0    0  0.12698922531E-01 -0.28051880497E-01  0.16425273762E-01  0.34903028121E-01  0.51100000000E-03 0.  1.
         11    1    4    4    0    0  0.72319081225E-02 -0.88419207920E-01  0.35783762438E-01  0.95660836289E-01  0.51100000000E-03 0. -1.
</event>
<event>
 8    1  0.1081309E+005  0.1043930E+01  0.7957747E-01            NaN
         13   -1    0    0    0    0  0.00000000000E+00  0.00000000000E+00  0.74505805969E-08  0.10566000000E+00  0.10566000000E+00 0. -1.
     999900   -1    0    0    0    0 -0.00000000000E+00 -0.00000000000E+00 -0.74505805969E-08  0.93827000000E+00  0.93827000000E+00 0. -1.
     999902    2    1    2    0    0  0.24995103874E-02  0.21830773409E-01 -0.81300143572E-02  0.10205008013E+01  0.10202318158E+01 0.  0.
     999903    2    3    3    0    0 -0.11611699500E-01  0.60885987837E-01 -0.11568134727E+00  0.13298081545E+00  0.21442669858E-01 0.  0.
         14    1    1    2    0    0 -0.24995103874E-02 -0.21830773409E-01  0.81300143572E-02  0.23429198733E-01  0.00000000000E+00 0. -1.
     999901    1    3    3    0    0  0.14111209887E-01 -0.39055214428E-01  0.10755133291E+00  0.88751998582E+00  0.88000000000E+00 0.  1.
        -11    1    4    4    0    0 -0.17640179424E-02  0.23208531412E-01 -0.24332832914E-01  0.33676335434E-01  0.51100000000E-03 0.  1.
         11    1    4    4    0    0 -0.98476815576E-02  0.37677456425E-01 -0.91348514356E-01  0.99304480014E-01  0.51100000000E-03 0. -1.
</event>
<event>
 8    1  0.1081309E+005  0.1043930E+01  0.7957747E-01            NaN
         13   -1    0    0    0    0  0.00000000000E+00  0.00000000000E+00  0.74505805969E-08  0.10566000000E+00  0.10566000000E+00 0.  1.
     999900   -1    0    0    0    0 -0.00000000000E+00 -0.00000000000E+00 -0.74505805969E-08  0.93827000000E+00  0.93827000000E+00 0.  1.
     999902    2    1    2    0    0 -0.21195709588E-01 -0.69808427422E-02 -0.89763132764E-02  0.10198766329E+01  0.10195929491E+01 0.  0.
     999903    2    3    3    0    0  0.70216115174E-01  0.81253505922E-01 -0.68226951587E-01  0.12878064470E+00  0.19927430130E-01 0.  0.
         14    1    1    2    0    0  0.21195709588E-01  0.69808427422E-02  0.89763132764E-02  0.24053367132E-01  0.00000000000E+00 0. -1.
     999901    1    3    3    0    0 -0.91411824762E-01 -0.88234348665E-01  0.59250638310E-01  0.89109598817E+00  0.88000000000E+00 0.  1.
        -11    1    4    4    0    0  0.47028662308E-01  0.65364635312E-01 -0.44569830730E-01  0.92037826790E-01  0.51100000000E-03 0. -1.
         11    1    4    4    0    0  0.23187452866E-01  0.15888870611E-01 -0.23657120857E-01  0.36742817910E-01  0.51100000000E-03 0.  1.
</event>
<event>
 8    1  0.1081309E+005  0.1043930E+01  0.7957747E-01            NaN
         13   -1    0    0    0    0  0.00000000000E+00  0.00000000000E+00  0.74505805969E-08  0.10566000000E+00  0.10566000000E+00 0.  1.
     999900   -1    0    0    0    0 -0.00000000000E+00 -0.00000000000E+00 -0.74505805969E-08  0.93827000000E+00  0.93827000000E+00 0. -1.
     999902    2    1    2    0    0  0.30559927381E-02  0.17286390768E-01 -0.15911106511E-01  0.10202377712E+01  0.10199626405E+01 0.  0.
     999903    2    3    3    0    0  0.28671954434E-01  0.21007275367E-01  0.12232409917E+00  0.12907056206E+00  0.20799955799E-01 0.  0.
         14    1    1    2    0    0 -0.30559927381E-02 -0.17286390768E-01  0.15911106511E-01  0.23692228849E-01  0.00000000000E+00 0.  1.
     999901    1    3    3    0    0 -0.25615961696E-01 -0.37208845992E-02 -0.13823520569E+00  0.89116720910E+00  0.88000000000E+00 0. -1.
        -11    1    4    4    0    0  0.24429921284E-01  0.69412403495E-02  0.62459166840E-01  0.67427075532E-01  0.51100000000E-03 0.  1.
         11    1    4    4    0    0  0.42420331496E-02  0.14066035018E-01  0.59864932335E-01  0.61643486524E-01  0.51100000000E-03 0. -1.
</event>
<event>
 8    1  0.1207880E+005  0.1043930E+01  0.7957747E-01            NaN
         13   -1    0    0    0    0  0.00000000000E+00  0.00000000000E+00  0.74505805969E-08  0.10566000000E+00  0.10566000000E+00 0. -1.
     999900   -1    0    0    0    0 -0.00000000000E+00 -0.00000000000E+00 -0.74505805969E-08  0.93827000000E+00  0.93827000000E+00 0. -1.
     999902    2    1    2    0    0  0.96589491785E-02  0.28156399061E-01  0.61771035024E-02  0.10135287712E+01  0.10130727196E+01 0.  0.
     999903    2    3    3    0    0 -0.20940713589E-01 -0.42386403458E-01 -0.11117589681E+00  0.12241466341E+00  0.19752192344E-01 0.  0.
         14    1    1    2    0    0 -0.96589491785E-02 -0.28156399061E-01 -0.61771035024E-02  0.30401228840E-01  0.00000000000E+00 0.  1.
     999901    1    3    3    0    0  0.30599662768E-01  0.70542802519E-01  0.11735300031E+00  0.89111410775E+00  0.88000000000E+00 0.  1.
        -11    1    4    4    0    0 -0.17467783459E-01 -0.15008473746E-01 -0.59992055992E-01  0.64262630248E-01  0.51100000000E-03 0.  1.
         11    1    4    4    0    0 -0.34729301299E-02 -0.27377929711E-01 -0.51183840818E-01  0.58152033162E-01  0.51100000000E-03 0. -1.
</event>
<event>
 8    1  0.1081309E+005  0.1043930E+01  0.7957747E-01            NaN
         13   -1    0    0    0    0  0.00000000000E+00  0.00000000000E+00  0.74505805969E-08  0.10566000000E+00  0.10566000000E+00 0. -1.
     999900   -1    0    0    0    0 -0.00000000000E+00 -0.00000000000E+00 -0.74505805969E-08  0.93827000000E+00  0.93827000000E+00 0. -1.
     999902    2    1    2    0    0 -0.10717656036E-01 -0.13191108818E-01  0.17920658833E-01  0.10192313459E+01  0.10189320453E+01 0.  0.
     999903    2    3    3    0    0 -0.76631730347E-01  0.59095551851E-01  0.86625205305E-01  0.13114895036E+00  0.18204797254E-01 0.  0.
         14    1    1    2    0    0  0.10717656036E-01  0.13191108818E-01 -0.17920658833E-01  0.24698654129E-01  0.00000000000E+00 0.  1.
     999901    1    3    3    0    0  0.65914074312E-01 -0.72286660669E-01 -0.68704546471E-01  0.88808239551E+00  0.88000000000E+00 0. -1.
        -11    1    4    4    0    0 -0.24401426790E-01  0.11392969650E-01  0.31655625555E-01  0.41564036584E-01  0.51100000000E-03 0.  1.
         11    1    4    4    0    0 -0.52230303557E-01  0.47702582200E-01  0.54969579750E-01  0.89584913781E-01  0.51100000000E-03 0. -1.
</event>
<event>
 8    1  0.1081309E+005  0.1043930E+01  0.7957747E-01            NaN
         13   -1    0    0    0    0  0.00000000000E+00  0.00000000000E+00  0.74505805969E-08  0.10566000000E+00  0.10566000000E+00 0.  1.
     999900   -1    0    0    0    0 -0.00000000000E+00 -0.00000000000E+00 -0.74505805969E-08  0.93827000000E+00  0.93827000000E+00 0. -1.
     999902    2    1    2    0    0 -0.42515830263E-02  0.17468673635E-01 -0.13003794686E-01  0.10217415076E+01  0.10215005527E+01 0.  0.
     999903    2    3    3    0    0  0.11157186286E+00  0.21144590484E-01  0.62165286214E-01  0.13096714019E+00  0.19811479297E-01 0.  0.
         14    1    1    2    0    0  0.42515830263E-02 -0.17468673635E-01  0.13003794686E-01  0.22188492356E-01  0.00000000000E+00 0.  1.
     999901    1    3    3    0    0 -0.11582344589E+00 -0.36759168485E-02 -0.75169080900E-01  0.89077436745E+00  0.88000000000E+00 0. -1.
        -11    1    4    4    0    0  0.35005304123E-01  0.51526483415E-02  0.29999379893E-01  0.46391217021E-01  0.51100000000E-03 0. -1.
         11    1    4    4    0    0  0.76566558736E-01  0.15991942142E-01  0.32165906321E-01  0.84575923173E-01  0.51100000000E-03 0.  1.
</event>
<event>
 8    1  0.1081309E+005  0.1043930E+01  0.7957747E-01            NaN
         13   -1    0    0    0    0  0.00000000000E+00  0.00000000000E+00  0.74505805969E-08  0.10566000000E+00  0.10566000000E+00 0. -1.
     999900   -1    0    0    0    0 -0.00000000000E+00 -0.00000000000E+00 -0.74505805969E-08  0.93827000000E+00  0.93827000000E+00 0. -1.
     999902    2    1    2    0    0 -0.69837475682E-02  0.23231509039E-01 -0.28721430187E-02  0.10195020458E+01  0.10192093487E+01 0.  0.
     999903    2    3    3    0    0  0.27682566819E-01  0.95370814552E-02  0.12478581204E+00  0.12950999851E+00  0.18548865165E-01 0.  0.
         14    1    1    2    0    0  0.69837475682E-02 -0.23231509039E-01  0.28721430187E-02  0.24427954229E-01  0.00000000000E+00 0. -1.
     999901    1    3    3    0    0 -0.34666314387E-01  0.13694427584E-01 -0.12765795506E+00  0.88999204726E+00  0.88000000000E+00 0. -1.
        -11    1    4    4    0    0  0.13541233147E-01  0.11635066284E-01  0.44337922890E-01  0.47800128554E-01  0.51100000000E-03 0. -1.
         11    1    4    4    0    0  0.14141333672E-01 -0.20979848290E-02  0.80447889149E-01  0.81709869954E-01  0.51100000000E-03 0.  1.
</event>
<event>
 8    1  0.1081309E+005  0.1043930E+01  0.7957747E-01            NaN
         13   -1    0    0    0    0  0.00000000000E+00  0.00000000000E+00  0.74505805969E-08  0.10566000000E+00  0.10566000000E+00 0. -1.
     999900   -1    0    0    0    0 -0.00000000000E+00 -0.00000000000E+00 -0.74505805969E-08  0.93827000000E+00  0.93827000000E+00 0. -1.
     999902    2    1    2    0    0 -0.12529522255E-01  0.20096834549E-01  0.64596498320E-02  0.10193821129E+01  0.10190864994E+01 0.  0.
     999903    2    3    3    0    0 -0.63458302242E-01 -0.33387469783E-02 -0.11138361701E+00  0.12975859550E+00  0.19821191003E-01 0.  0.
         14    1    1    2    0    0  0.12529522255E-01 -0.20096834549E-01 -0.64596498320E-02  0.24547887135E-01  0.00000000000E+00 0.  1.
     999901    1    3    3    0    0  0.50928779987E-01  0.23435581527E-01  0.11784326684E+00  0.88962351737E+00  0.88000000000E+00 0.  1.
        -11    1    4    4    0    0 -0.31236347192E-01 -0.96548861468E-02 -0.66934396910E-01  0.74494300608E-01  0.51100000000E-03 0. -1.
         11    1    4    4    0    0 -0.32221955050E-01  0.63161391684E-02 -0.44449220099E-01  0.55264294890E-01  0.51100000000E-03 0.  1.
</event>
<event>
 8    1  0.1081309E+005  0.1043930E+01  0.7957747E-01            NaN
         13   -1    0    0    0    0  0.00000000000E+00  0.00000000000E+00  0.74505805969E-08  0.10566000000E+00  0.10566000000E+00 0.  1.
     999900   -1    0    0    0    0 -0.00000000000E+00 -0.00000000000E+00 -0.74505805969E-08  0.93827000000E+00  0.93827000000E+00 0.  1.
     999902    2    1    2    0    0 -0.43362340415E-02 -0.25428692089E-02  0.23413083177E-01  0.10199833599E+01  0.10197022177E+01 0.  0.
     999903    2    3    3    0    0  0.26199483924E-01 -0.10570188070E+00  0.72141165463E-01  0.13209336797E+00  0.19621660604E-01 0.  0.
         14    1    1    2    0    0  0.43362340415E-02  0.25428692089E-02 -0.23413083177E-01  0.23946640126E-01  0.00000000000E+00 0. -1.
     999901    1    3    3    0    0 -0.30535717965E-01  0.10315901149E+00 -0.48728082286E-01  0.88788999191E+00  0.88000000000E+00 0.  1.
        -11    1    4    4    0    0  0.51446723320E-02 -0.58944060289E-01  0.42611100163E-01  0.72916643333E-01  0.51100000000E-03 0.  1.
         11    1    4    4    0    0  0.21054811592E-01 -0.46757820412E-01  0.29530065301E-01  0.59176724635E-01  0.51100000000E-03 0. -1.
</event>
<event>
 8    1  0.1081309E+005  0.1043930E+01  0.7957747E-01            NaN
         13   -1    0    0    0    0  0.00000000000E+00  0.00000000000E+00  0.74505805969E-08  0.10566000000E+00  0.10566000000E+00 0. -1.
     999900   -1    0    0    0    0 -0.00000000000E+00 -0.00000000000E+00 -0.74505805969E-08  0.93827000000E+00  0.93827000000E+00 0. -1.
     999902    2    1    2    0    0 -0.11875447026E-01 -0.10760399818E-01  0.17350819031E-01  0.10203108686E+01  0.10200374529E+01 0.  0.
     999903    2    3    3    0    0  0.12367735785E+00  0.29335264314E-01 -0.51214418744E-02  0.12874638542E+00  0.19818072882E-01 0.  0.
         14    1    1    2    0    0  0.11875447026E-01  0.10760399818E-01 -0.17350819031E-01  0.23619131384E-01  0.00000000000E+00 0.  1.
     999901    1    3    3    0    0 -0.13555280488E+00 -0.40095664133E-01  0.22472260905E-01  0.89156448320E+00  0.88000000000E+00 0.  1.
        -11    1    4    4    0    0  0.18026370479E-02 -0.10627507139E-02  0.19942536199E-02  0.29354910844E-02  0.51100000000E-03 0. -1.
         11    1    4    4    0    0  0.12187472081E+00  0.30398015028E-01 -0.71156954943E-02  0.12581089433E+00  0.51100000000E-03 0.  1.
</event>
<event>
 8    1  0.1081309E+005  0.1043930E+01  0.7957747E-01            NaN
         13   -1    0    0    0    0  0.00000000000E+00  0.00000000000E+00  0.74505805969E-08  0.10566000000E+00  0.10566000000E+00 0. -1.
     999900   -1    0    0    0    0 -0.00000000000E+00 -0.00000000000E+00 -0.74505805969E-08  0.93827000000E+00  0.93827000000E+00 0.  1.
     999902    2    1    2    0    0 -0.85232277681E-04  0.46669900110E-03  0.23388941367E-01  0.10205362476E+01  0.10202680849E+01 0.  0.
     999903    2    3    3    0    0 -0.28010589469E-01  0.10712247429E+00 -0.63665739891E-01  0.12939439723E+00  0.20730797812E-01 0.  0.
         14    1    1    2    0    0  0.85232277681E-04 -0.46669900110E-03 -0.23388941367E-01  0.23393752387E-01  0.00000000000E+00 0.  1.
     999901    1    3    3    0    0  0.27925357191E-01 -0.10665577529E+00  0.87054681258E-01  0.89114185038E+00  0.88000000000E+00 0. -1.
        -11    1    4    4    0    0 -0.15079766777E-01  0.69076228482E-01 -0.29368192712E-01  0.76561586789E-01  0.51100000000E-03 0.  1.
         11    1    4    4    0    0 -0.12930822691E-01  0.38046245808E-01 -0.34297547178E-01  0.52832810440E-01  0.51100000000E-03 0. -1.
</event>
<event>
 8    1  0.1081309E+005  0.1043930E+01  0.7957747E-01            NaN
         13   -1    0    0    0    0  0.00000000000E+00  0.00000000000E+00  0.74505805969E-08  0.10566000000E+00  0.10566000000E+00 0. -1.
     999900   -1    0    0    0    0 -0.00000000000E+00 -0.00000000000E+00 -0.74505805969E-08  0.93827000000E+00  0.93827000000E+00 0.  1.
     999902    2    1    2    0    0 -0.18620130270E-01  0.13999242132E-01 -0.34810459595E-02  0.10203756859E+01  0.10201037862E+01 0.  0.
     999903    2    3    3    0    0  0.52956972459E-01  0.98757431654E-01 -0.65882216387E-01  0.13121814171E+00  0.17895894473E-01 0.  0.
         14    1    1    2    0    0  0.18620130270E-01 -0.13999242132E-01  0.34810459595E-02  0.23554314095E-01  0.00000000000E+00 0.  1.
     999901    1    3    3    0    0 -0.71577102729E-01 -0.84758189522E-01  0.62401170428E-01  0.88915754419E+00  0.88000000000E+00 0. -1.
        -11    1    4    4    0    0  0.15540049989E-01  0.36621983240E-01 -0.14570855145E-01  0.42370198851E-01  0.51100000000E-03 0. -1.
         11    1    4    4    0    0  0.37416922470E-01  0.62135448414E-01 -0.51311361242E-01  0.88847942859E-01  0.51100000000E-03 0.  1.
</event>
<event>
 8    1  0.1081309E+005  0.1043930E+01  0.7957747E-01            NaN
         13   -1    0    0    0    0  0.00000000000E+00  0.00000000000E+00  0.74505805969E-08  0.10566000000E+00  0.10566000000E+00 0.  1.
     999900   -1    0    0    0    0 -0.00000000000E+00 -0.00000000000E+00 -0.74505805969E-08  0.93827000000E+00  0.93827000000E+00 0.  1.
     999902    2    1    2    0    0  0.97804778848E-02 -0.22182904418E-01  0.28859305120E-02  0.10195155045E+01  0.10192231337E+01 0.  0.
     999903    2    3    3    0    0  0.11022173235E+00  0.21022978886E-01  0.63650217059E-01  0.13066934656E+00  0.20792596614E-01 0.  0.
         14    1    1    2    0    0 -0.97804778848E-02  0.22182904418E-01 -0.28859305120E-02  0.24414495510E-01  0.00000000000E+00 0. -1.
     999901    1    3    3    0    0 -0.10044125447E+00 -0.43205883304E-01 -0.60764286547E-01  0.88884615793E+00  0.88000000000E+00 0. -1.
        -11    1    4    4    0    0  0.92342502891E-01  0.23917989116E-01  0.58217773914E-01  0.11175320292E+00  0.51100000000E-03 0.  1.
         11    1    4    4    0    0  0.17879229463E-01 -0.28950102305E-02  0.54324431455E-02  0.18916143633E-01  0.51100000000E-03 0. -1.
</event>
<event>
 8    1  0.1081309E+005  0.1043930E+01  0.7957747E-01            NaN
         13   -1    0    0    0    0  0.00000000000E+00  0.00000000000E+00  0.74505805969E-08  0.10566000000E+00  0.10566000000E+00 0.  1.
     999900   -1    0    0    0    0 -0.00000000000E+00 -0.00000000000E+00 -0.74505805969E-08  0.93827000000E+00  0.93827000000E+00 0. -1.
     999902    2    1    2    0    0  0.13280995480E-01  0.11506130290E-01  0.15922240718E-01  0.10202172687E+01  0.10199416561E+01 0.  0.
     999903    2    3    3    0    0 -0.76733489674E-02 -0.12215409259E+00  0.37775993615E-01  0.12960976469E+00  0.19777835765E-01 0.  0.
         14    1    1    2    0    0 -0.13280995480E-01 -0.11506130290E-01 -0.15922240718E-01  0.23712731278E-01  0.00000000000E+00 0. -1.
     999901    1    3    3    0    0  0.20954344448E-01  0.13366022288E+00 -0.21853752897E-01  0.89060750404E+00  0.88000000000E+00 0. -1.
        -11    1    4    4    0    0  0.18957945388E-02 -0.60394319042E-01  0.27019833084E-01  0.66192146893E-01  0.51100000000E-03 0. -1.
         11    1    4    4    0    0 -0.95691435062E-02 -0.61759773547E-01  0.10756160531E-01  0.63417617792E-01  0.51100000000E-03 0.  1.
</event>
<event>
 8    1  0.1081309E+005  0.1043930E+01  0.7957747E-01            NaN
         13   -1    0    0    0    0  0.00000000000E+00  0.00000000000E+00  0.74505805969E-08  0.10566000000E+00  0.10566000000E+00 0. -1.
     999900   -1    0    0    0    0 -0.00000000000E+00 -0.00000000000E+00 -0.74505805969E-08  0.93827000000E+00  0.93827000000E+00 0.  1.
     999902    2    1    2    0    0  0.20134281668E-01  0.75885608595E-02  0.10305858609E-01  0.10200723749E+01  0.10197933436E+01 0.  0.
     999903    2    3    3    0    0  0.64279834443E-01  0.96105268518E-01 -0.59294605543E-01  0.13179974671E+00  0.22072680702E-01 0.  0.
         14    1    1    2    0    0 -0.20134281668E-01 -0.75885608595E-02 -0.10305858609E-01  0.23857625110E-01  0.00000000000E+00 0.  1.
     999901    1    3    3    0    0 -0.44145552775E-01 -0.88516707659E-01  0.69600464152E-01  0.88827262818E+00  0.88000000000E+00 0.  1.
        -11    1    4    4    0    0  0.25074569450E-01  0.45401517197E-01 -0.15367762865E-01  0.54096774889E-01  0.51100000000E-03 0. -1.
         11    1    4    4    0    0  0.39205264993E-01  0.50703751321E-01 -0.43926842678E-01  0.77702971821E-01  0.51100000000E-03 0.  1.
</event>
<event>
 8    1  0.1081309E+005  0.1043930E+01  0.7957747E-01            NaN
         13   -1    0    0    0    0  0.00000000000E+00  0.00000000000E+00  0.74505805969E-08  0.10566000000E+00  0.10566000000E+00 0.  1.
     999900   -1    0    0    0    0 -0.00000000000E+00 -0.00000000000E+00 -0.74505805969E-08  0.93827000000E+00  0.93827000000E+00 0. -1.
     999902    2    1    2    0    0 -0.11111979220E-01  0.66014407576E-02  0.17678510472E-01  0.10220305746E+01  0.10217959241E+01 0.  0.
     999903    2    3    3    0    0 -0.35530503992E-01  0.35151515748E-01  0.12356830712E+00  0.13488683188E+00  0.20670876037E-01 0.  0.
         14    1    1    2    0    0  0.11111979220E-01 -0.66014407576E-02 -0.17678510472E-01  0.21899425444E-01  0.00000000000E+00 0. -1.
     999901    1    3    3    0    0  0.24418524773E-01 -0.28550074990E-01 -0.10588979665E+00  0.88714374268E+00  0.88000000000E+00 0. -1.
        -11    1    4    4    0    0 -0.29878213274E-01  0.22412416051E-01  0.10640967457E+00  0.11277545826E+00  0.51100000000E-03 0.  1.
         11    1    4    4    0    0 -0.56522907178E-02  0.12739099697E-01  0.17158632550E-01  0.22111373621E-01  0.51100000000E-03 0. -1.
</event>
<event>
 8    1  0.1081309E+005  0.1043930E+01  0.7957747E-01            NaN
         13   -1    0    0    0    0  0.00000000000E+00  0.00000000000E+00  0.74505805969E-08  0.10566000000E+00  0.10566000000E+00 0. -1.
     999900   -1    0    0    0    0 -0.00000000000E+00 -0.00000000000E+00 -0.74505805969E-08  0.93827000000E+00  0.93827000000E+00 0. -1.
     999902    2    1    2    0    0 -0.94991028001E-02  0.11551346891E-01 -0.18315912544E-01  0.10202838751E+01  0.10200098267E+01 0.  0.
     999903    2    3    3    0    0  0.44445704094E-01 -0.11269009882E+00 -0.42675242671E-01  0.12958787986E+00  0.17244224733E-01 0.  0.
         14    1    1    2    0    0  0.94991028001E-02 -0.11551346891E-01  0.18315912544E-01  0.23646124869E-01  0.00000000000E+00 0. -1.
     999901    1    3    3    0    0 -0.53944806894E-01  0.12424144571E+00  0.24359330127E-01  0.89069599527E+00  0.88000000000E+00 0. -1.
        -11    1    4    4    0    0  0.13420931211E-01 -0.16432065619E-01 -0.71694812836E-02  0.22400820475E-01  0.51100000000E-03 0. -1.
         11    1    4    4    0    0  0.31024772882E-01 -0.96258033197E-01 -0.35505761387E-01  0.10718705939E+00  0.51100000000E-03 0.  1.
</event>
<event>
 8    1  0.1081309E+005  0.1043930E+01  0.7957747E-01            NaN
         13   -1    0    0    0    0  0.00000000000E+00  0.00000000000E+00  0.74505805969E-08  0.10566000000E+00  0.10566000000E+00 0. -1.
     999900   -1    0    0    0    0 -0.00000000000E+00 -0.00000000000E+00 -0.74505805969E-08  0.93827000000E+00  0.93827000000E+00 0.  1.
     999902    2    1    2    0    0 -0.12670428670E-02 -0.21509040559E-01  0.90694492823E-02  0.10205526791E+01  0.10202848973E+01 0.  0.
     999903    2    3    3    0    0  0.19433464135E-01 -0.25777114713E-01 -0.12453382933E+00  0.13021759412E+00  0.20145173089E-01 0.  0.
         14    1    1    2    0    0  0.12670428670E-02  0.21509040559E-01 -0.90694492823E-02  0.23377320926E-01  0.00000000000E+00 0. -1.
     999901    1    3    3    0    0 -0.20700507002E-01  0.42680741544E-02  0.13360327861E+00  0.89033508496E+00  0.88000000000E+00 0. -1.
        -11    1    4    4    0    0 -0.33269301942E-02 -0.42551549002E-02 -0.33674226834E-01  0.34108495740E-01  0.51100000000E-03 0. -1.
         11    1    4    4    0    0  0.22760394329E-01 -0.21521959813E-01 -0.90859602497E-01  0.96109098379E-01  0.51100000000E-03 0.  1.
</event>
<event>
 8    1  0.1081309E+005  0.1043930E+01  0.7957747E-01            NaN
         13   -1    0    0    0    0  0.00000000000E+00  0.00000000000E+00  0.74505805969E-08  0.10566000000E+00  0.10566000000E+00 0. -1.
     999900   -1    0    0    0    0 -0.00000000000E+00 -0.00000000000E+00 -0.74505805969E-08  0.93827000000E+00  0.93827000000E+00 0.  1.
     999902    2    1    2    0    0 -0.17844321838E-01  0.96556287142E-02  0.12111315622E-01  0.10203008876E+01  0.10200272380E+01 0.  0.
     999903    2    3    3    0    0 -0.22951062648E-01 -0.78251595772E-01  0.10170837676E+00  0.13137941057E+00  0.16306198234E-01 0.  0.
         14    1    1    2    0    0  0.17844321838E-01 -0.96556287142E-02 -0.12111315622E-01  0.23629112421E-01  0.00000000000E+00 0.  1.
     999901    1    3    3    0    0  0.51067408099E-02  0.87907224487E-01 -0.89597061141E-01  0.88892147701E+00  0.88000000000E+00 0. -1.
        -11    1    4    4    0    0 -0.47165901945E-02 -0.26753087040E-01  0.23175226636E-01  0.35711708722E-01  0.51100000000E-03 0.  1.
         11    1    4    4    0    0 -0.18234472453E-01 -0.51498508733E-01  0.78533150127E-01  0.95667701850E-01  0.51100000000E-03 0. -1.
</event>
<event>
 8    1  0.1081309E+005  0.1043930E+01  0.7957747E-01            NaN
         13   -1    0    0    0    0  0.00000000000E+00  0.00000000000E+00  0.74505805969E-08  0.10566000000E+00  0.10566000000E+00 0.  1.
     999900   -1    0    0    0    0 -0.00000000000E+00 -0.00000000000E+00 -0.74505805969E-08  0.93827000000E+00  0.93827000000E+00 0. -1.
     999902    2    1    2    0    0 -0.23405676178E-01 -0.93796429149E-03 -0.43109996456E-02  0.10201121459E+01  0.10198340552E+01 0.  0.
     999903    2    3    3    0    0 -0.51900085197E-01  0.18372909102E-01  0.11718785559E+00  0.13109762805E+00  0.20552662849E-01 0.  0.
         14    1    1    2    0    0  0.23405676178E-01  0.93796429149E-03  0.43109996456E-02  0.23817854066E-01  0.00000000000E+00 0.  1.
     999901    1    3    3    0    0  0.28494409019E-01 -0.19310873394E-01 -0.12149885524E+00  0.88901451788E+00  0.88000000000E+00 0. -1.
        -11    1    4    4    0    0 -0.19324787298E-01  0.98703235363E-02  0.68837742773E-01  0.72178713219E-01  0.51100000000E-03 0.  1.
         11    1    4    4    0    0 -0.32575297899E-01  0.85025855660E-02  0.48350112821E-01  0.58918914835E-01  0.51100000000E-03 0. -1.
</event>
<event>
 8    1  0.1081309E+005  0.1043930E+01  0.7957747E-01            NaN
         13   -1    0    0    0    0  0.00000000000E+00  0.00000000000E+00  0.74505805969E-08  0.10566000000E+00  0.10566000000E+00 0. -1.
     999900   -1    0    0    0    0 -0.00000000000E+00 -0.00000000000E+00 -0.74505805969E-08  0.93827000000E+00  0.93827000000E+00 0.  1.
     999902    2    1    2    0    0  0.96311402887E-03  0.18802580819E-01 -0.12252965488E-01  0.10214667011E+01  0.10212196736E+01 0.  0.
     999903    2    3    3    0    0 -0.44755679355E-01 -0.10721220702E+00 -0.55734760653E-01  0.13025370673E+00  0.19029881867E-01 0.  0.
         14    1    1    2    0    0 -0.96311402887E-03 -0.18802580819E-01  0.12252965488E-01  0.22463298897E-01  0.00000000000E+00 0. -1.
     999901    1    3    3    0    0  0.45718793384E-01  0.12601478784E+00  0.43481795165E-01  0.89121299437E+00  0.88000000000E+00 0. -1.
        -11    1    4    4    0    0 -0.18957632977E-01 -0.35241794051E-01 -0.10331902204E-01  0.41332616904E-01  0.51100000000E-03 0.  1.
         11    1    4    4    0    0 -0.25798046378E-01 -0.71970412970E-01 -0.45402858449E-01  0.88921089829E-01  0.51100000000E-03 0. -1.
</event>
<event>
 8    1  0.1081309E+005  0.1043930E+01  0.7957747E-01            NaN
         13   -1    0    0    0    0  0.00000000000E+00  0.00000000000E+00  0.74505805969E-08  0.10566000000E+00  0.10566000000E+00 0. -1.
     999900   -1    0    0    0    0 -0.00000000000E+00 -0.00000000000E+00 -0.74505805969E-08  0.93827000000E+00  0.93827000000E+00 0.  1.
     999902    2    1    2    0    0 -0.39342234823E-02  0.71685934067E-02 -0.22612491644E-01  0.10198843845E+01  0.10196008857E+01 0.  0.
     999903    2    3    3    0    0 -0.77465093806E-01 -0.68102031915E-01  0.75028110795E-01  0.12825321459E+00  0.13451473321E-01 0.  0.
         14    1    1    2    0    0  0.39342234823E-02 -0.71685934067E-02  0.22612491644E-01  0.24045615488E-01  0.00000000000E+00 0. -1.
     999901    1    3    3    0    0  0.73530870324E-01  0.75270625321E-01 -0.97640602440E-01  0.89163116992E+00  0.88000000000E+00 0.  1.
        -11    1    4    4    0    0 -0.28804079968E-01 -0.17961247484E-01  0.28269392430E-01  0.44178061336E-01  0.51100000000E-03 0.  1.
         11    1    4    4    0    0 -0.48661013838E-01 -0.50140784430E-01  0.46758718365E-01  0.84075153257E-01  0.51100000000E-03 0. -1.
</event>
<event>
 7    1  0.1081309E+005  0.1043930E+01  0.7957747E-01            NaN
         13   -1    0    0    0    0  0.00000000000E+00  0.00000000000E+00  0.74505805969E-08  0.10566000000E+00  0.10566000000E+00 0.  1.
     999900   -1    0    0    0    0 -0.00000000000E+00 -0.00000000000E+00 -0.74505805969E-08  0.93827000000E+00  0.93827000000E+00 0.  1.
     999903    2    1    2    0    0  0.76365366572E-01  0.31549060875E-01  0.76932901536E-01  0.11472860481E+00  0.20419818043E-01 0.  0.
         14    1    1    2    0    0  0.24976660620E-01  0.27776437443E-01 -0.11073937590E-01  0.38961470025E-01  0.00000000000E+00 0.  1.
     999901    1    1    2    0    0 -0.10134202719E+00 -0.59325498318E-01 -0.65858963946E-01  0.89023992517E+00  0.88000000000E+00 0.  1.
        -11    1    3    3    0    0  0.24055956932E-01  0.59847691210E-03  0.25971097931E-01  0.35409127175E-01  0.51100000000E-03 0. -1.
         11    1    3    3    0    0  0.52309409640E-01  0.30950583963E-01  0.50961803606E-01  0.79319477635E-01  0.51100000000E-03 0.  1.
</event>
<event>
 8    1  0.1081309E+005  0.1043930E+01  0.7957747E-01            NaN
         13   -1    0    0    0    0  0.00000000000E+00  0.00000000000E+00  0.74505805969E-08  0.10566000000E+00  0.10566000000E+00 0.  1.
     999900   -1    0    0    0    0 -0.00000000000E+00 -0.00000000000E+00 -0.74505805969E-08  0.93827000000E+00  0.93827000000E+00 0. -1.
     999902    2    1    2    0    0 -0.13685841640E-01  0.80104512828E-02 -0.17831381438E-01  0.10200673146E+01  0.10197881636E+01 0.  0.
     999903    2    3    3    0    0 -0.56079060605E-01 -0.57644346713E-01  0.98525317576E-01  0.12897437952E+00  0.21434099552E-01 0.  0.
         14    1    1    2    0    0  0.13685841640E-01 -0.80104512828E-02  0.17831381438E-01  0.23862685413E-01  0.00000000000E+00 0.  1.
     999901    1    3    3    0    0  0.42393218965E-01  0.65654797996E-01 -0.11635669901E+00  0.89109293506E+00  0.88000000000E+00 0. -1.
        -11    1    4    4    0    0 -0.43249395714E-01 -0.43020863201E-01  0.58753326548E-01  0.84696631584E-01  0.51100000000E-03 0. -1.
         11    1    4    4    0    0 -0.12829664891E-01 -0.14623483513E-01  0.39771991028E-01  0.44277747940E-01  0.51100000000E-03 0.  1.
</event>
<event>
 8    1  0.1081309E+005  0.1043930E+01  0.7957747E-01            NaN
         13   -1    0    0    0    0  0.00000000000E+00  0.00000000000E+00  0.74505805969E-08  0.10566000000E+00  0.10566000000E+00 0. -1.
     999900   -1    0    0    0    0 -0.00000000000E+00 -0.00000000000E+00 -0.74505805969E-08  0.93827000000E+00  0.93827000000E+00 0.  1.
     999902    2    1    2    0    0  0.18229361789E-01  0.17492844943E-01  0.97408255252E-03  0.10186464462E+01  0.10183326197E+01 0.  0.
     999903    2    3    3    0    0  0.83315504544E-02 -0.86882909885E-01 -0.90981703840E-01  0.12766489112E+00  0.20064875464E-01 0.  0.
         14    1    1    2    0    0 -0.18229361789E-01 -0.17492844943E-01 -0.97408255252E-03  0.25283553790E-01  0.00000000000E+00 0. -1.
     999901    1    3    3    0    0  0.98978113341E-02  0.10437575483E+00  0.91955786392E-01  0.89098155509E+00  0.88000000000E+00 0. -1.
        -11    1    4    4    0    0 -0.19155220479E-02 -0.62616039688E-01 -0.70352606867E-01  0.94202909004E-01  0.51100000000E-03 0.  1.
         11    1    4    4    0    0  0.10247072502E-01 -0.24266870197E-01 -0.20629096973E-01  0.33461982113E-01  0.51100000000E-03 0. -1.
</event>
<event>
 8    1  0.1081309E+005  0.1043930E+01  0.7957747E-01            NaN
         13   -1    0    0    0    0  0.00000000000E+00  0.00000000000E+00  0.74505805969E-08  0.10566000000E+00  0.10566000000E+00 0. -1.
     999900   -1    0    0    0    0 -0.00000000000E+00 -0.00000000000E+00 -0.74505805969E-08  0.93827000000E+00  0.93827000000E+00 0. -1.
     999902    2    1    2    0    0  0.28603894265E-01 -0.42739747133E-02 -0.13691194127E-01  0.10119315872E+01  0.10114255478E+01 0.  0.
     999903    2    3    3    0    0 -0.11672895096E+00  0.16713282687E-01 -0.54676952709E-02  0.11972660691E+00  0.19989569786E-01 0.  0.
         14    1    1    2    0    0 -0.28603894265E-01  0.42739747133E-02  0.13691194127E-01  0.31998412829E-01  0.00000000000E+00 0. -1.
     999901    1    3    3    0    0  0.14533284522E+00 -0.20987257401E-01 -0.82234988562E-02  0.89220498026E+00  0.88000000000E+00 0.  1.
        -11    1    4    4    0    0 -0.44303178669E-01 -0.71927522956E-03  0.46140960775E-02  0.44551543190E-01  0.51100000000E-03 0. -1.
         11    1    4    4    0    0 -0.72425772288E-01  0.17432557917E-01 -0.10081791348E-01  0.75175063717E-01  0.51100000000E-03 0.  1.
</event>
<event>
 8    1  0.1081309E+005  0.1043930E+01  0.7957747E-01            NaN
         13   -1    0    0    0    0  0.00000000000E+00  0.00000000000E+00  0.74505805969E-08  0.10566000000E+00  0.10566000000E+00 0. -1.
     999900   -1    0    0    0    0 -0.00000000000E+00 -0.00000000000E+00 -0.74505805969E-08  0.93827000000E+00  0.93827000000E+00 0.  1.
     999902    2    1    2    0    0 -0.10069589145E-01 -0.89564001229E-02  0.19445039063E-01  0.10202715285E+01  0.10199971905E+01 0.  0.
     999903    2    3    3    0    0 -0.10365773283E+00  0.77563689606E-01  0.95662479223E-02  0.13103474505E+00  0.17819646138E-01 0.  0.
         14    1    1    2    0    0  0.10069589145E-01  0.89564001229E-02 -0.19445039063E-01  0.23658471482E-01  0.00000000000E+00 0.  1.
     999901    1    3    3    0    0  0.93588143689E-01 -0.86520089729E-01  0.98787911404E-02  0.88923678347E+00  0.88000000000E+00 0. -1.
        -11    1    4    4    0    0 -0.74887656778E-01  0.55097956290E-01  0.14835582008E-01  0.94150419752E-01  0.51100000000E-03 0. -1.
         11    1    4    4    0    0 -0.28770076055E-01  0.22465733316E-01 -0.52693340853E-02  0.36884325294E-01  0.51100000000E-03 0.  1.
</event>
<event>
 8    1  0.1081309E+005  0.1043930E+01  0.7957747E-01            NaN
         13   -1    0    0    0    0  0.00000000000E+00  0.00000000000E+00  0.74505805969E-08  0.10566000000E+00  0.10566000000E+00 0. -1.
     999900   -1    0    0    0    0 -0.00000000000E+00 -0.00000000000E+00 -0.74505805969E-08  0.93827000000E+00  0.93827000000E+00 0.  1.
     999902    2    1    2    0    0  0.73078770832E-02 -0.27707283815E-01 -0.21575950761E-02  0.10151940667E+01  0.10147872877E+01 0.  0.
     999903    2    3    3    0    0  0.19147779515E-01  0.11879571943E+00  0.11592939186E-01  0.12289793291E+00  0.22145998748E-01 0.  0.
         14    1    1    2    0    0 -0.73078770832E-02  0.27707283815E-01  0.21575950761E-02  0.28735933261E-01  0.00000000000E+00 0. -1.
     999901    1    3    3    0    0 -0.11839902432E-01 -0.14650300324E+00 -0.13750534262E-01  0.89229613383E+00  0.88000000000E+00 0. -1.
        -11    1    4    4    0    0  0.15514746931E-01  0.56622065832E-01  0.14751059794E-01  0.60536109864E-01  0.51100000000E-03 0.  1.
         11    1    4    4    0    0  0.36330325842E-02  0.62173653595E-01 -0.31581206077E-02  0.62361823049E-01  0.51100000000E-03 0. -1.
</event>
<event>
 8    1  0.1081309E+005  0.1043930E+01  0.7957747E-01            NaN
         13   -1    0    0    0    0  0.00000000000E+00  0.00000000000E+00  0.74505805969E-08  0.10566000000E+00  0.10566000000E+00 0. -1.
     999900   -1    0    0    0    0 -0.00000000000E+00 -0.00000000000E+00 -0.74505805969E-08  0.93827000000E+00  0.93827000000E+00 0. -1.
     999902    2    1    2    0    0  0.26977547937E-02  0.19045072193E-01 -0.11063106272E-01  0.10217402507E+01  0.10214992681E+01 0.  0.
     999903    2    3    3    0    0 -0.11953837219E+00  0.26342777451E-01  0.43956668368E-01  0.13155931239E+00  0.19806555293E-01 0.  0.
         14    1    1    2    0    0 -0.26977547937E-02 -0.19045072193E-01  0.11063106272E-01  0.22189749349E-01  0.00000000000E+00 0. -1.
     999901    1    3    3    0    0  0.12223612698E+00 -0.72977052581E-02 -0.55019774641E-01  0.89018093826E+00  0.88000000000E+00 0.  1.
        -11    1    4    4    0    0 -0.86350491775E-01  0.97859806097E-02  0.31132087346E-01  0.92312733844E-01  0.51100000000E-03 0. -1.
         11    1    4    4    0    0 -0.33187880416E-01  0.16556796841E-01  0.12824581023E-01  0.39246578546E-01  0.51100000000E-03 0.  1.
</event>
<event>
 8    1  0.1081309E+005  0.1043930E+01  0.7957747E-01            NaN
         13   -1    0    0    0    0  0.00000000000E+00  0.00000000000E+00  0.74505805969E-08  0.10566000000E+00  0.10566000000E+00 0. -1.
     999900   -1    0    0    0    0 -0.00000000000E+00 -0.00000000000E+00 -0.74505805969E-08  0.93827000000E+00  0.93827000000E+00 0. -1.
     999902    2    1    2    0    0  0.85719884902E-02  0.22345377600E-01  0.25183224702E-02  0.10198647380E+01  0.10195807702E+01 0.  0.
     999903    2    3    3    0    0  0.10005273100E+00  0.52712536265E-01  0.65709207611E-01  0.13234911643E+00  0.20234332077E-01 0.  0.
         14    1    1    2    0    0 -0.85719884902E-02 -0.22345377600E-01 -0.25183224702E-02  0.24065261994E-01  0.00000000000E+00 0. -1.
     999901    1    3    3    0    0 -0.91480742512E-01 -0.30367158665E-01 -0.63190885141E-01  0.88751562158E+00  0.88000000000E+00 0.  1.
        -11    1    4    4    0    0  0.30752850499E-01  0.60785693196E-02  0.17592820123E-01  0.35950733785E-01  0.51100000000E-03 0.  1.
         11    1    4    4    0    0  0.69299880503E-01  0.46633966946E-01  0.48116387489E-01  0.96398382646E-01  0.51100000000E-03 0. -1.
</event>
<event>
 8    1  0.1081309E+005  0.1043930E+01  0.7957747E-01            NaN
         13   -1    0    0    0    0  0.00000000000E+00  0.00000000000E+00  0.74505805969E-08  0.10566000000E+00  0.10566000000E+00 0.  1.
     999900   -1    0    0    0    0 -0.00000000000E+00 -0.00000000000E+00 -0.74505805969E-08  0.93827000000E+00  0.93827000000E+00 0.  1.
     999902    2    1    2    0    0  0.50626145222E-02  0.33211269696E-02  0.23751280571E-01  0.10194191192E+01  0.10191244072E+01 0.  0.
     999903    2    3    3    0    0  0.45478687975E-01 -0.10455940018E+00 -0.55317665773E-01  0.12839523318E+00  0.20598847818E-01 0.  0.
         14    1    1    2    0    0 -0.50626145222E-02 -0.33211269696E-02 -0.23751280571E-01  0.24510880827E-01  0.00000000000E+00 0. -1.
     999901    1    3    3    0    0 -0.40416073453E-01  0.10788052715E+00  0.79068946344E-01  0.89102388599E+00  0.88000000000E+00 0. -1.
        -11    1    4    4    0    0  0.36531426920E-01 -0.70791817624E-01 -0.46954218469E-01  0.92471543452E-01  0.51100000000E-03 0. -1.
         11    1    4    4    0    0  0.89472610557E-02 -0.33767582555E-01 -0.83634473041E-02  0.35923689730E-01  0.51100000000E-03 0.  1.
</event>
<event>
 8    1  0.1081309E+005  0.1043930E+01  0.7957747E-01            NaN
         13   -1    0    0    0    0  0.00000000000E+00  0.00000000000E+00  0.74505805969E-08  0.10566000000E+00  0.10566000000E+00 0. -1.
     999900   -1    0    0    0    0 -0.00000000000E+00 -0.00000000000E+00 -0.74505805969E-08  0.93827000000E+00  0.93827000000E+00 0.  1.
     999902    2    1    2    0    0 -0.15749570650E-01  0.14716641299E-01 -0.95729166617E-02  0.10203446393E+01  0.10200720140E+01 0.  0.
     999903    2    3    3    0    0 -0.11756314069E+00 -0.47245534998E-01  0.28365583869E-01  0.13150008360E+00  0.20843056707E-01 0.  0.
         14    1    1    2    0    0  0.15749570650E-01 -0.14716641299E-01  0.95729166617E-02  0.23585360718E-01  0.00000000000E+00 0.  1.
     999901    1    3    3    0    0  0.10181357004E+00  0.61962176297E-01 -0.37938500530E-01  0.88884455568E+00  0.88000000000E+00 0.  1.
        -11    1    4    4    0    0 -0.65578953348E-01 -0.15175310862E-01  0.14155393817E-01  0.68786084909E-01  0.51100000000E-03 0. -1.
         11    1    4    4    0    0 -0.51984187344E-01 -0.32070224136E-01  0.14210190052E-01  0.62713998695E-01  0.51100000000E-03 0.  1.
</event>
<event>
 8    1  0.1081309E+005  0.1043930E+01  0.7957747E-01            NaN
         13   -1    0    0    0    0  0.00000000000E+00  0.00000000000E+00  0.74505805969E-08  0.10566000000E+00  0.10566000000E+00 0.  1.
     999900   -1    0    0    0    0 -0.00000000000E+00 -0.00000000000E+00 -0.74505805969E-08  0.93827000000E+00  0.93827000000E+00 0.  1.
     999902    2    1    2    0    0  0.77499883977E-03  0.24006940889E-01  0.10081662118E-02  0.10198894045E+01  0.10196060254E+01 0.  0.
     999903    2    3    3    0    0 -0.55349324879E-01  0.18243691037E-01 -0.11532645429E+00  0.13044188006E+00  0.17846932131E-01 0.  0.
         14    1    1    2    0    0 -0.77499883977E-03 -0.24006940889E-01 -0.10081662118E-02  0.24040595525E-01  0.00000000000E+00 0.  1.
     999901    1    3    3    0    0  0.56124323719E-01  0.57632498519E-02  0.11633462050E+00  0.88944752442E+00  0.88000000000E+00 0. -1.
        -11    1    4    4    0    0 -0.51513017779E-01  0.14562681060E-01 -0.91377409286E-01  0.10590446038E+00  0.51100000000E-03 0.  1.
         11    1    4    4    0    0 -0.38363071004E-02  0.36810099776E-02 -0.23949045006E-01  0.24537419675E-01  0.51100000000E-03 0. -1.
</event>
<event>
 8    1  0.1081309E+005  0.1043930E+01  0.7957747E-01            NaN
         13   -1    0    0    0    0  0.00000000000E+00  0.00000000000E+00  0.74505805969E-08  0.10566000000E+00  0.10566000000E+00 0.  1.
     999900   -1    0    0    0    0 -0.00000000000E+00 -0.00000000000E+00 -0.74505805969E-08  0.93827000000E+00  0.93827000000E+00 0.  1.
     999902    2    1    2    0    0 -0.53983297856E-02  0.17678657239E-01 -0.83203952469E-02  0.10236591869E+01  0.10234584628E+01 0.  0.
     999903    2    3    3    0    0 -0.87856339407E-01 -0.39356784654E-01  0.89065965862E-01  0.13262806045E+00  0.19742423175E-01 0.  0.
         14    1    1    2    0    0  0.53983297856E-02 -0.17678657239E-01  0.83203952469E-02  0.20270813089E-01  0.00000000000E+00 0.  1.
     999901    1    3    3    0    0  0.82458009622E-01  0.57035441893E-01 -0.97386361109E-01  0.89103112646E+00  0.88000000000E+00 0.  1.
        -11    1    4    4    0    0 -0.45484481610E-01 -0.18519562038E-01  0.32269456120E-01  0.58765561043E-01  0.51100000000E-03 0. -1.
         11    1    4    4    0    0 -0.42371857797E-01 -0.20837222616E-01  0.56796509742E-01  0.73862499412E-01  0.51100000000E-03 0.  1.
</event>
<event>
 8    1  0.1081309E+005  0.1043930E+01  0.7957747E-01            NaN
         13   -1    0    0    0    0  0.00000000000E+00  0.00000000000E+00  0.74505805969E-08  0.10566000000E+00  0.10566000000E+00 0.  1.
     999900   -1    0    0    0    0 -0.00000000000E+00 -0.00000000000E+00 -0.74505805969E-08  0.93827000000E+00  0.93827000000E+00 0.  1.
     999902    2    1    2    0    0 -0.19846798949E-01 -0.14944083740E-01 -0.42738647528E-02  0.10187211328E+01  0.10184091807E+01 0.  0.
     999903    2    3    3    0    0  0.37571502195E-01 -0.53445244632E-01  0.10912394004E+00  0.12875581724E+00  0.20050292575E-01 0.  0.
         14    1    1    2    0    0  0.19846798949E-01  0.14944083740E-01  0.42738647528E-02  0.25208867235E-01  0.00000000000E+00 0.  1.
     999901    1    3    3    0    0 -0.57418301144E-01  0.38501160892E-01 -0.11339780480E+00  0.88996531552E+00  0.88000000000E+00 0.  1.
        -11    1    4    4    0    0  0.15653646668E-01 -0.77235503234E-02  0.24138206438E-01  0.29792683911E-01  0.51100000000E-03 0. -1.
         11    1    4    4    0    0  0.21917855527E-01 -0.45721694309E-01  0.84985733607E-01  0.98963133333E-01  0.51100000000E-03 0.  1.
</event>
<event>
 8    1  0.1081309E+005  0.1043930E+01  0.7957747E-01            NaN
         13   -1    0    0    0    0  0.00000000000E+00  0.00000000000E+00  0.74505805969E-08  0.10566000000E+00  0.10566000000E+00 0.  1.
     999900   -1    0    0    0    0 -0.00000000000E+00 -0.00000000000E+00 -0.74505805969E-08  0.93827000000E+00  0.93827000000E+00 0. -1.
     999902    2    1    2    0    0  0.86874575431E-02  0.19828540564E-01  0.95804304831E-02  0.10202566482E+01  0.10199819609E+01 0.  0.
     999903    2    3    3    0    0  0.51967959551E-01  0.34053042350E-01  0.11570530940E+00  0.13271057711E+00  0.19081408229E-01 0.  0.
         14    1    1    2    0    0 -0.86874575431E-02 -0.19828540564E-01 -0.95804304831E-02  0.23673351848E-01  0.00000000000E+00 0. -1.
     999901    1    3    3    0    0 -0.43280502008E-01 -0.14224501786E-01 -0.10612487891E+00  0.88754607105E+00  0.88000000000E+00 0. -1.
        -11    1    4    4    0    0  0.44582791750E-01  0.34937851435E-01  0.93856277340E-01  0.10962454424E+00  0.51100000000E-03 0.  1.
         11    1    4    4    0    0  0.73851678005E-02 -0.88480908566E-03  0.21849032058E-01  0.23086032864E-01  0.51100000000E-03 0. -1.
</event>
<event>
 8    1  0.1081309E+005  0.1043930E+01  0.7957747E-01            NaN
         13   -1    0    0    0    0  0.00000000000E+00  0.00000000000E+00  0.74505805969E-08  0.10566000000E+00  0.10566000000E+00 0.  1.
     999900   -1    0    0    0    0 -0.00000000000E+00 -0.00000000000E+00 -0.74505805969E-08  0.93827000000E+00  0.93827000000E+00 0.  1.
     999902    2    1    2    0    0  0.20104609419E-01  0.12164289343E-01 -0.12315813722E-01  0.10173999317E+01  0.10170539693E+01 0.  0.
     999903    2    3    3    0    0  0.70464760610E-01 -0.14463241042E-01 -0.10701909651E+00  0.13048737573E+00  0.19985003847E-01 0.  0.
         14    1    1    2    0    0 -0.20104609419E-01 -0.12164289343E-01  0.12315813722E-01  0.26530068276E-01  0.00000000000E+00 0.  1.
     999901    1    3    3    0    0 -0.50360151191E-01  0.26627530385E-01  0.94703282788E-01  0.88691255599E+00  0.88000000000E+00 0. -1.
        -11    1    4    4    0    0  0.48260269556E-01 -0.17005993086E-01 -0.63410987828E-01  0.81482954762E-01  0.51100000000E-03 0.  1.
         11    1    4    4    0    0  0.22204491054E-01  0.25427520431E-02 -0.43608108682E-01  0.49004420971E-01  0.51100000000E-03 0. -1.
</event>
<event>
 8    1  0.1081309E+005  0.1043930E+01  0.7957747E-01            NaN
         13   -1    0    0    0    0  0.00000000000E+00  0.00000000000E+00  0.74505805969E-08  0.10566000000E+00  0.10566000000E+00 0. -1.
     999900   -1    0    0    0    0 -0.00000000000E+00 -0.00000000000E+00 -0.74505805969E-08  0.93827000000E+00  0.93827000000E+00 0. -1.
     999902    2    1    2    0    0 -0.51593522845E-02  0.10148494358E-01  0.18115889386E-01  0.10225338251E+01  0.10223099467E+01 0.  0.
     999903    2    3    3    0    0  0.49287743209E-02  0.70997273377E-01 -0.10880577676E+00  0.13129117935E+00  0.18269402714E-01 0.  0.
         14    1    1    2    0    0  0.51593522845E-02 -0.10148494358E-01 -0.18115889386E-01  0.21396174938E-01  0.00000000000E+00 0. -1.
     999901    1    3    3    0    0 -0.10088126605E-01 -0.60848779019E-01  0.12692166614E+00  0.89124264572E+00  0.88000000000E+00 0.  1.
        -11    1    4    4    0    0 -0.43873993188E-02  0.53151492103E-01 -0.79540488310E-01  0.95766804202E-01  0.51100000000E-03 0. -1.
         11    1    4    4    0    0  0.93161736397E-02  0.17845781274E-01 -0.29265288445E-01  0.35524375144E-01  0.51100000000E-03 0.  1.
</event>
<event>
 8    1  0.1081309E+005  0.1043930E+01  0.7957747E-01            NaN
         13   -1    0    0    0    0  0.00000000000E+00  0.00000000000E+00  0.74505805969E-08  0.10566000000E+00  0.10566000000E+00 0. -1.
     999900   -1    0    0    0    0 -0.00000000000E+00 -0.00000000000E+00 -0.74505805969E-08  0.93827000000E+00  0.93827000000E+00 0. -1.
     999902    2    1    2    0    0  0.67330783993E-02  0.22382179652E-01 -0.37495126433E-02  0.10202581780E+01  0.10199835267E+01 0.  0.
     999903    2    3    3    0    0 -0.96582162479E-01  0.46194799767E-02  0.83598884774E-01  0.12974186990E+00  0.22242427156E-01 0.  0.
         14    1    1    2    0    0 -0.67330783993E-02 -0.22382179652E-01  0.37495126433E-02  0.23671821978E-01  0.00000000000E+00 0.  1.
     999901    1    3    3    0    0  0.10331524088E+00  0.17762699675E-01 -0.87348397417E-01  0.89051630812E+00  0.88000000000E+00 0. -1.
        -11    1    4    4    0    0 -0.75625042573E-01 -0.55111894668E-02  0.61349271279E-01  0.97537246634E-01  0.51100000000E-03 0. -1.
         11    1    4    4    0    0 -0.20957119906E-01  0.10130669444E-01  0.22249613495E-01  0.32204623267E-01  0.51100000000E-03 0.  1.
</event>
<event>
 8    1  0.1081309E+005  0.1043930E+01  0.7957747E-01            NaN
         13   -1    0    0    0    0  0.00000000000E+00  0.00000000000E+00  0.74505805969E-08  0.10566000000E+00  0.10566000000E+00 0. -1.
     999900   -1    0    0    0    0 -0.00000000000E+00 -0.00000000000E+00 -0.74505805969E-08  0.93827000000E+00  0.93827000000E+00 0.  1.
     999902    2    1    2    0    0  0.68560611298E-02 -0.25940012027E-02 -0.21894321758E-01  0.10208411338E+01  0.10205799943E+01 0.  0.
     999903    2    3    3    0    0 -0.32675171564E-01  0.62058964718E-01  0.10576646539E+00  0.12840626172E+00  0.19561209257E-01 0.  0.
         14    1    1    2    0    0 -0.68560611298E-02  0.25940012027E-02  0.21894321758E-01  0.23088866185E-01  0.00000000000E+00 0.  1.
     999901    1    3    3    0    0  0.39531232694E-01 -0.64652965921E-01 -0.12766078715E+00  0.89243487210E+00  0.88000000000E+00 0.  1.
        -11    1    4    4    0    0 -0.49535889583E-02  0.20949189261E-01  0.45685673854E-01  0.50505925303E-01  0.51100000000E-03 0.  1.
         11    1    4    4    0    0 -0.27721582606E-01  0.41109775457E-01  0.60080791540E-01  0.77900336414E-01  0.51100000000E-03 0. -1.
</event>
<event>
 8    1  0.1081309E+005  0.1043930E+01  0.7957747E-01            NaN
         13   -1    0    0    0    0  0.00000000000E+00  0.00000000000E+00  0.74505805969E-08  0.10566000000E+00  0.10566000000E+00 0.  1.
     999900   -1    0    0    0    0 -0.00000000000E+00 -0.00000000000E+00 -0.74505805969E-08  0.93827000000E+00  0.93827000000E+00 0. -1.
     999902    2    1    2    0    0 -0.74733227490E-02  0.22257367319E-01  0.36779989750E-02  0.10201651388E+01  0.10198882987E+01 0.  0.
     999903    2    3    3    0    0 -0.10952368446E+00  0.62112593609E-01  0.37060957532E-01  0.13274351558E+00  0.19847282219E-01 0.  0.
         14    1    1    2    0    0  0.74733227490E-02 -0.22257367319E-01 -0.36779989750E-02  0.23764861232E-01  0.00000000000E+00 0. -1.
     999901    1    3    3    0    0  0.10205036171E+00 -0.39855226289E-01 -0.33382958557E-01  0.88742162319E+00  0.88000000000E+00 0. -1.
        -11    1    4    4    0    0 -0.50101569342E-01  0.25744542515E-01  0.66384389228E-02  0.56721060570E-01  0.51100000000E-03 0. -1.
         11    1    4    4    0    0 -0.59422115119E-01  0.36368051094E-01  0.30422518609E-01  0.76022455006E-01  0.51100000000E-03 0.  1.
</event>
<event>
 8    1  0.1081309E+005  0.1043930E+01  0.7957747E-01            NaN
         13   -1    0    0    0    0  0.00000000000E+00  0.00000000000E+00  0.74505805969E-08  0.10566000000E+00  0.10566000000E+00 0. -1.
     999900   -1    0    0    0    0 -0.00000000000E+00 -0.00000000000E+00 -0.74505805969E-08  0.93827000000E+00  0.93827000000E+00 0. -1.
     999902    2    1    2    0    0  0.14940757970E-01 -0.10586589759E-01  0.14170085927E-01  0.10207763077E+01  0.10205136829E+01 0.  0.
     999903    2    3    3    0    0 -0.33775199174E-01  0.95164838281E-01 -0.76788751849E-01  0.12845903276E+00  0.20201489095E-01 0.  0.
         14    1    1    2    0    0 -0.14940757970E-01  0.10586589759E-01 -0.14170085927E-01  0.23153692290E-01  0.00000000000E+00 0.  1.
     999901    1    3    3    0    0  0.48715957144E-01 -0.10575142804E+00  0.90958837776E-01  0.89231727495E+00  0.88000000000E+00 0.  1.
        -11    1    4    4    0    0 -0.13087105623E-01  0.15953230666E-01 -0.10738905110E-01  0.23267210968E-01  0.51100000000E-03 0. -1.
         11    1    4    4    0    0 -0.20688093551E-01  0.79211607615E-01 -0.66049846740E-01  0.10519182179E+00  0.51100000000E-03 0.  1.
</event>
<event>
 8    1  0.1081309E+005  0.1043930E+01  0.7957747E-01            NaN
         13   -1    0    0    0    0  0.00000000000E+00  0.00000000000E+00  0.74505805969E-08  0.10566000000E+00  0.10566000000E+00 0. -1.
     999900   -1    0    0    0    0 -0.00000000000E+00 -0.00000000000E+00 -0.74505805969E-08  0.93827000000E+00  0.93827000000E+00 0.  1.
     999902    2    1    2    0    0  0.11105154342E-01  0.13627145879E-01  0.13097167479E-01  0.10220083360E+01  0.10217732035E+01 0.  0.
     999903    2    3    3    0    0 -0.11525780821E+00  0.40690869831E-01 -0.42325723429E-01  0.13084519698E+00  0.19720280638E-01 0.  0.
         14    1    1    2    0    0 -0.11105154342E-01 -0.13627145879E-01 -0.13097167479E-01  0.21921664028E-01  0.00000000000E+00 0.  1.
     999901    1    3    3    0    0  0.12636296255E+00 -0.27063723952E-01  0.55422890908E-01  0.89116313899E+00  0.88000000000E+00 0. -1.
        -11    1    4    4    0    0 -0.86907273195E-01  0.35682572999E-01 -0.39493129027E-01  0.10191216076E+00  0.51100000000E-03 0.  1.
         11    1    4    4    0    0 -0.28350535015E-01  0.50082968314E-02 -0.28325944020E-02  0.28933036219E-01  0.51100000000E-03 0. -1.
</event>
<event>
 8    1  0.1081309E+005  0.1043930E+01  0.7957747E-01            NaN
         13   -1    0    0    0    0  0.00000000000E+00  0.00000000000E+00  0.74505805969E-08  0.10566000000E+00  0.10566000000E+00 0.  1.
     999900   -1    0    0    0    0 -0.00000000000E+00 -0.00000000000E+00 -0.74505805969E-08  0.93827000000E+00  0.93827000000E+00 0.  1.
     999902    2    1    2    0    0 -0.13428703708E-01  0.19953037494E-01 -0.14777116060E-02  0.10198335808E+01  0.10195488684E+01 0.  0.
     999903    2    3    3    0    0  0.79384672165E-01  0.10099327776E+00 -0.17004197355E-01  0.13111376269E+00  0.20002692601E-01 0.  0.
         14    1    1    2    0    0  0.13428703708E-01 -0.19953037494E-01  0.14777116060E-02  0.24096419238E-01  0.00000000000E+00 0.  1.
     999901    1    3    3    0    0 -0.92813375873E-01 -0.81040240261E-01  0.15526485749E-01  0.88871981808E+00  0.88000000000E+00 0.  1.
        -11    1    4    4    0    0  0.55847774374E-01  0.55252668189E-01 -0.10363453475E-01  0.79243255444E-01  0.51100000000E-03 0.  1.
         11    1    4    4    0    0  0.23536897791E-01  0.45740609566E-01 -0.66407438805E-02  0.51870507241E-01  0.51100000000E-03 0. -1.
</event>
<event>
 8    1  0.1081309E+005  0.1043930E+01  0.7957747E-01            NaN
         13   -1    0    0    0    0  0.00000000000E+00  0.00000000000E+00  0.74505805969E-08  0.10566000000E+00  0.10566000000E+00 0. -1.
     999900   -1    0    0    0    0 -0.00000000000E+00 -0.00000000000E+00 -0.74505805969E-08  0.93827000000E+00  0.93827000000E+00 0. -1.
     999902    2    1    2    0    0 -0.16430771490E-02  0.19185194432E-01 -0.14196704761E-01  0.10200068352E+01  0.10197262505E+01 0.  0.
     999903    2    3    3    0    0  0.10470359517E+00  0.31905122281E-01 -0.71299399682E-01  0.13167574318E+00  0.16556487519E-01 0.  0.
         14    1    1    2    0    0  0.16430771490E-02 -0.19185194432E-01  0.14196704761E-01  0.23923164799E-01  0.00000000000E+00 0. -1.
     999901    1    3    3    0    0 -0.10634667232E+00 -0.12719927849E-01  0.57102694920E-01  0.88833109202E+00  0.88000000000E+00 0.  1.
        -11    1    4    4    0    0  0.31407139861E-01  0.12726444538E-01 -0.13939288663E-01  0.36646087298E-01  0.51100000000E-03 0.  1.
         11    1    4    4    0    0  0.73296455308E-01  0.19178677743E-01 -0.57360111019E-01  0.95029655886E-01  0.51100000000E-03 0. -1.
</event>
<event>
 8    1  0.1081309E+005  0.1043930E+01  0.7957747E-01            NaN
         13   -1    0    0    0    0  0.00000000000E+00  0.00000000000E+00  0.74505805969E-08  0.10566000000E+00  0.10566000000E+00 0.  1.
     999900   -1    0    0    0    0 -0.00000000000E+00 -0.00000000000E+00 -0.74505805969E-08  0.93827000000E+00  0.93827000000E+00 0. -1.
     999902    2    1    2    0    0 -0.17130041309E-01 -0.15729943918E-01 -0.10057196487E-02  0.10206516641E+01  0.10203861712E+01 0.  0.
     999903    2    3    3    0    0 -0.12589920945E+00 -0.17954501254E-01 -0.34458211852E-01  0.13332153960E+00  0.20354102801E-01 0.  0.
         14    1    1    2    0    0  0.17130041309E-01  0.15729943918E-01  0.10057196487E-02  0.23278335914E-01  0.00000000000E+00 0.  1.
     999901    1    3    3    0    0  0.10876916814E+00  0.22245573357E-02  0.33452492203E-01  0.88733012449E+00  0.88000000000E+00 0. -1.
        -11    1    4    4    0    0 -0.56621429377E-01 -0.17835615003E-01 -0.12746115283E-01  0.60719189743E-01  0.51100000000E-03 0.  1.
         11    1    4    4    0    0 -0.69277780072E-01 -0.11888625089E-03 -0.21712096569E-01  0.72602349852E-01  0.51100000000E-03 0. -1.
</event>
<event>
 8    1  0.1081309E+005  0.1043930E+01  0.7957747E-01            NaN
         13   -1    0    0    0    0  0.00000000000E+00  0.00000000000E+00  0.74505805969E-08  0.10566000000E+00  0.10566000000E+00 0.  1.
     999900   -1    0    0    0    0 -0.00000000000E+00 -0.00000000000E+00 -0.74505805969E-08  0.93827000000E+00  0.93827000000E+00 0. -1.
     999902    2    1    2    0    0  0.23178409527E-02  0.15137375403E-01  0.19573166971E-01  0.10190780104E+01  0.10187749359E+01 0.  0.
     999903    2    3    3    0    0  0.25074283790E-01  0.61933207251E-01 -0.10828053636E+00  0.12831750668E+00  0.16621254427E-01 0.  0.
         14    1    1    2    0    0 -0.23178409527E-02 -0.15137375403E-01 -0.19573166971E-01  0.24851989580E-01  0.00000000000E+00 0. -1.
     999901    1    3    3    0    0 -0.22756442838E-01 -0.46795831848E-01  0.12785370333E+00  0.89076050374E+00  0.88000000000E+00 0.  1.
        -11    1    4    4    0    0  0.22835165383E-01  0.47427871548E-01 -0.72118508231E-01  0.89287110649E-01  0.51100000000E-03 0. -1.
         11    1    4    4    0    0  0.22391184075E-02  0.14505335703E-01 -0.36162028126E-01  0.39030396030E-01  0.51100000000E-03 0.  1.
</event>
<event>
 8    1  0.1081309E+005  0.1043930E+01  0.7957747E-01            NaN
         13   -1    0    0    0    0  0.00000000000E+00  0.00000000000E+00  0.74505805969E-08  0.10566000000E+00  0.10566000000E+00 0.  1.
     999900   -1    0    0    0    0 -0.00000000000E+00 -0.00000000000E+00 -0.74505805969E-08  0.93827000000E+00  0.93827000000E+00 0. -1.
     999902    2    1    2    0    0  0.13660140186E-01  0.16860128972E-01  0.74207955707E-02  0.10209968017E+01  0.10207392113E+01 0.  0.
     999903    2    3    3    0    0 -0.80438540763E-01  0.29063171602E-01  0.97634557534E-01  0.13131034069E+00  0.19871385528E-01 0.  0.
         14    1    1    2    0    0 -0.13660140186E-01 -0.16860128972E-01 -0.74207955707E-02  0.22933198332E-01  0.00000000000E+00 0.  1.
     999901    1    3    3    0    0  0.94098680949E-01 -0.12203042631E-01 -0.90213761963E-01  0.88968646098E+00  0.88000000000E+00 0. -1.
        -11    1    4    4    0    0 -0.24870176752E-01  0.65642428146E-02  0.43475817348E-01  0.50517549331E-01  0.51100000000E-03 0. -1.
         11    1    4    4    0    0 -0.55568364011E-01  0.22498928788E-01  0.54158740186E-01  0.80792791355E-01  0.51100000000E-03 0.  1.
</event>
<event>
 8    1  0.1081309E+005  0.1043930E+01  0.7957747E-01            NaN
         13   -1    0    0    0    0  0.00000000000E+00  0.00000000000E+00  0.74505805969E-08  0.10566000000E+00  0.10566000000E+00 0. -1.
     999900   -1    0    0    0    0 -0.00000000000E+00 -0.00000000000E+00 -0.74505805969E-08  0.93827000000E+00  0.93827000000E+00 0.  1.
     999902    2    1    2    0    0 -0.91981731993E-02 -0.62546587444E-02  0.20786749051E-01  0.10203542480E+01  0.10200818474E+01 0.  0.
     999903    2    3    3    0    0  0.82023821809E-01  0.79967617890E-01  0.59510091644E-01  0.13060415352E+00  0.19830951943E-01 0.  0.
         14    1    1    2    0    0  0.91981731993E-02  0.62546587444E-02 -0.20786749051E-01  0.23575751999E-01  0.00000000000E+00 0.  1.
     999901    1    3    3    0    0 -0.91221995008E-01 -0.86222276634E-01 -0.38723342593E-01  0.88975009448E+00  0.88000000000E+00 0.  1.
        -11    1    4    4    0    0  0.16248400326E-01  0.17569029636E-01  0.39249955847E-02  0.24255886437E-01  0.51100000000E-03 0.  1.
         11    1    4    4    0    0  0.65775421483E-01  0.62398588253E-01  0.55585096060E-01  0.10634826709E+00  0.51100000000E-03 0. -1.
</event>
<event>
 8    1  0.1081309E+005  0.1043930E+01  0.7957747E-01            NaN
         13   -1    0    0    0    0  0.00000000000E+00  0.00000000000E+00  0.74505805969E-08  0.10566000000E+00  0.10566000000E+00 0.  1.
     999900   -1    0    0    0    0 -0.00000000000E+00 -0.00000000000E+00 -0.74505805969E-08  0.93827000000E+00  0.93827000000E+00 0.  1.
     999902    2    1    2    0    0  0.96591095893E-03 -0.16734260171E-01 -0.14734494856E-01  0.10216124332E+01  0.10213686357E+01 0.  0.
     999903    2    3    3    0    0 -0.11628045338E+00 -0.48541622381E-01  0.33593254343E-01  0.13195295367E+00  0.20140563617E-01 0.  0.
         14    1    1    2    0    0 -0.96591095893E-03  0.16734260171E-01  0.14734494856E-01  0.22317566761E-01  0.00000000000E+00 0.  1.
     999901    1    3    3    0    0  0.11724636434E+00  0.31807362210E-01 -0.48327749199E-01  0.88965947957E+00  0.88000000000E+00 0.  1.
        -11    1    4    4    0    0 -0.31097049455E-01 -0.22436824673E-01  0.70913366999E-02  0.38999817480E-01  0.51100000000E-03 0. -1.
         11    1    4    4    0    0 -0.85183403928E-01 -0.26104797708E-01  0.26501917644E-01  0.92953136192E-01  0.51100000000E-03 0.  1.
</event>
<event>
 8    1  0.1081309E+005  0.1043930E+01  0.7957747E-01            NaN
         13   -1    0    0    0    0  0.00000000000E+00  0.00000000000E+00  0.74505805969E-08  0.10566000000E+00  0.10566000000E+00 0. -1.
     999900   -1    0    0    0    0 -0.00000000000E+00 -0.00000000000E+00 -0.74505805969E-08  0.93827000000E+00  0.93827000000E+00 0. -1.
     999902    2    1    2    0    0  0.12292692010E-01 -0.22049684486E-01  0.77947105649E-02  0.10175092435E+01  0.10171661635E+01 0.  0.
     999903    2    3    3    0    0  0.31615975763E-01 -0.10767904825E+00 -0.63757366173E-01  0.13025196572E+00  0.17499299334E-01 0.  0.
         14    1    1    2    0    0 -0.12292692010E-01  0.22049684486E-01 -0.77947105649E-02  0.26420756529E-01  0.00000000000E+00 0. -1.
     999901    1    3    3    0    0 -0.19323283753E-01  0.85629363766E-01  0.71552076738E-01  0.88725727775E+00  0.88000000000E+00 0.  1.
        -11    1    4    4    0    0  0.31409521000E-01 -0.81012394200E-01 -0.49776389086E-01  0.10013748576E+00  0.51100000000E-03 0.  1.
         11    1    4    4    0    0  0.20645476312E-03 -0.26666654052E-01 -0.13980977087E-01  0.30114479959E-01  0.51100000000E-03 0. -1.
</event>
<event>
 8    1  0.1081309E+005  0.1043930E+01  0.7957747E-01            NaN
         13   -1    0    0    0    0  0.00000000000E+00  0.00000000000E+00  0.74505805969E-08  0.10566000000E+00  0.10566000000E+00 0.  1.
     999900   -1    0    0    0    0 -0.00000000000E+00 -0.00000000000E+00 -0.74505805969E-08  0.93827000000E+00  0.93827000000E+00 0.  1.
     999902    2    1    2    0    0 -0.18673029656E-01 -0.13889032536E-01 -0.56293414111E-02  0.10199868017E+01  0.10197057413E+01 0.  0.
     999903    2    3    3    0    0  0.76996041936E-01 -0.85873060012E-01 -0.57729990156E-01  0.13035274822E+00  0.18881586127E-01 0.  0.
         14    1    1    2    0    0  0.18673029656E-01  0.13889032536E-01  0.56293414111E-02  0.23943198326E-01  0.00000000000E+00 0. -1.
     999901    1    3    3    0    0 -0.95669071593E-01  0.71984027476E-01  0.52100648745E-01  0.88963405346E+00  0.88000000000E+00 0. -1.
        -11    1    4    4    0    0  0.23840970963E-01 -0.19257700828E-01 -0.23007566037E-01  0.38325711390E-01  0.51100000000E-03 0. -1.
         11    1    4    4    0    0  0.53155070973E-01 -0.66615359185E-01 -0.34722424119E-01  0.92027036827E-01  0.51100000000E-03 0.  1.
</event>
<event>
 8    1  0.1081309E+005  0.1043930E+01  0.7957747E-01            NaN
         13   -1    0    0    0    0  0.00000000000E+00  0.00000000000E+00  0.74505805969E-08  0.10566000000E+00  0.10566000000E+00 0.  1.
     999900   -1    0    0    0    0 -0.00000000000E+00 -0.00000000000E+00 -0.74505805969E-08  0.93827000000E+00  0.93827000000E+00 0. -1.
     999902    2    1    2    0    0  0.15751849694E-01 -0.14925094492E-01 -0.10084031950E-01  0.10200016295E+01  0.10197209213E+01 0.  0.
     999903    2    3    3    0    0  0.89349475985E-01  0.78816221867E-01 -0.50777270979E-01  0.13103594698E+00  0.19918897205E-01 0.  0.
         14    1    1    2    0    0 -0.15751849694E-01  0.14925094492E-01  0.10084031950E-01  0.23928370499E-01  0.00000000000E+00 0.  1.
     999901    1    3    3    0    0 -0.73597626291E-01 -0.93741316359E-01  0.40693239029E-01  0.88896568252E+00  0.88000000000E+00 0. -1.
        -11    1    4    4    0    0  0.12344415326E-01  0.32359724285E-02 -0.72594415946E-02  0.14690701841E-01  0.51100000000E-03 0.  1.
         11    1    4    4    0    0  0.77005060659E-01  0.75580249439E-01 -0.43517829385E-01  0.11634524514E+00  0.51100000000E-03 0. -1.
</event>
<event>
 8    1  0.1081309E+005  0.1043930E+01  0.7957747E-01            NaN
         13   -1    0    0    0    0  0.00000000000E+00  0.00000000000E+00  0.74505805969E-08  0.10566000000E+00  0.10566000000E+00 0.  1.
     999900   -1    0    0    0    0 -0.00000000000E+00 -0.00000000000E+00 -0.74505805969E-08  0.93827000000E+00  0.93827000000E+00 0.  1.
     999902    2    1    2    0    0 -0.97646969775E-02  0.15476231751E-01 -0.15232040994E-01  0.10201207974E+01  0.10198429110E+01 0.  0.
     999903    2    3    3    0    0  0.52809707211E-01 -0.84781593513E-01 -0.80497245395E-01  0.12982492831E+00  0.19947975344E-01 0.  0.
         14    1    1    2    0    0  0.97646969775E-02 -0.15476231751E-01  0.15232040994E-01  0.23809202614E-01  0.00000000000E+00 0.  1.
     999901    1    3    3    0    0 -0.62574404189E-01  0.10025782526E+00  0.65265204401E-01  0.89029586907E+00  0.88000000000E+00 0. -1.
        -11    1    4    4    0    0  0.82893703803E-02 -0.31821876082E-02 -0.74508240908E-02  0.11602408367E-01  0.51100000000E-03 0.  1.
         11    1    4    4    0    0  0.44520336831E-01 -0.81599405904E-01 -0.73046421304E-01  0.11822251994E+00  0.51100000000E-03 0. -1.
</event>
<event>
 8    1  0.1081309E+005  0.1043930E+01  0.7957747E-01            NaN
         13   -1    0    0    0    0  0.00000000000E+00  0.00000000000E+00  0.74505805969E-08  0.10566000000E+00  0.10566000000E+00 0. -1.
     999900   -1    0    0    0    0 -0.00000000000E+00 -0.00000000000E+00 -0.74505805969E-08  0.93827000000E+00  0.93827000000E+00 0. -1.
     999902    2    1    2    0    0 -0.17838081566E-01 -0.98762318160E-03 -0.16107243220E-01  0.10198755651E+01  0.10195918558E+01 0.  0.
     999903    2    3    3    0    0 -0.10130486213E+00  0.44468588372E-01 -0.71109241507E-01  0.13305078510E+00  0.20145886583E-01 0.  0.
         14    1    1    2    0    0  0.17838081566E-01  0.98762318160E-03  0.16107243220E-01  0.24054434886E-01  0.00000000000E+00 0. -1.
     999901    1    3    3    0    0  0.83466780562E-01 -0.45456211553E-01  0.55001998286E-01  0.88682478001E+00  0.88000000000E+00 0.  1.
        -11    1    4    4    0    0 -0.10899651805E-01  0.92643470759E-02 -0.16016050892E-01  0.21480352497E-01  0.51100000000E-03 0.  1.
         11    1    4    4    0    0 -0.90405210323E-01  0.35204241296E-01 -0.55093190615E-01  0.11157043261E+00  0.51100000000E-03 0. -1.
</event>
<event>
 8    1  0.1081309E+005  0.1043930E+01  0.7957747E-01            NaN
         13   -1    0    0    0    0  0.00000000000E+00  0.00000000000E+00  0.74505805969E-08  0.10566000000E+00  0.10566000000E+00 0. -1.
     999900   -1    0    0    0    0 -0.00000000000E+00 -0.00000000000E+00 -0.74505805969E-08  0.93827000000E+00  0.93827000000E+00 0.  1.
     999902    2    1    2    0    0 -0.35661507030E-02 -0.23834392821E-01 -0.19746822735E-03  0.10198294874E+01  0.10195446772E+01 0.  0.
     999903    2    3    3    0    0  0.41317071704E-01 -0.85073967401E-01  0.89921545158E-01  0.13197464248E+00  0.19665747634E-01 0.  0.
         14    1    1    2    0    0  0.35661507030E-02  0.23834392821E-01  0.19746822735E-03  0.24100512560E-01  0.00000000000E+00 0.  1.
     999901    1    3    3    0    0 -0.44883222407E-01  0.61239574580E-01 -0.90119013386E-01  0.88785484496E+00  0.88000000000E+00 0.  1.
        -11    1    4    4    0    0  0.31962914403E-01 -0.72036849843E-01  0.64182957014E-01  0.10163979892E+00  0.51100000000E-03 0.  1.
         11    1    4    4    0    0  0.93541573007E-02 -0.13037117558E-01  0.25738588144E-01  0.30334843558E-01  0.51100000000E-03 0. -1.
</event>
<event>
 8    1  0.1081309E+005  0.1043930E+01  0.7957747E-01            NaN
         13   -1    0    0    0    0  0.00000000000E+00  0.00000000000E+00  0.74505805969E-08  0.10566000000E+00  0.10566000000E+00 0.  1.
     999900   -1    0    0    0    0 -0.00000000000E+00 -0.00000000000E+00 -0.74505805969E-08  0.93827000000E+00  0.93827000000E+00 0.  1.
     999902    2    1    2    0    0 -0.14985483325E-01  0.10250087853E-02  0.17366414637E-01  0.10209689959E+01  0.10207107733E+01 0.  0.
     999903    2    3    3    0    0 -0.97749340854E-01 -0.81104363723E-01 -0.30071228799E-01  0.13201150534E+00  0.19746070215E-01 0.  0.
         14    1    1    2    0    0  0.14985483325E-01 -0.10250087853E-02 -0.17366414637E-01  0.22961004134E-01  0.00000000000E+00 0.  1.
     999901    1    3    3    0    0  0.82763857529E-01  0.82129372509E-01  0.47437643436E-01  0.88895749052E+00  0.88000000000E+00 0. -1.
        -11    1    4    4    0    0 -0.39447254881E-01 -0.22386207997E-01 -0.15858648737E-01  0.48051910335E-01  0.51100000000E-03 0.  1.
         11    1    4    4    0    0 -0.58302085974E-01 -0.58718155727E-01 -0.14212580062E-01  0.83959595008E-01  0.51100000000E-03 0. -1.
</event>
<event>
 8    1  0.1081309E+005  0.1043930E+01  0.7957747E-01            NaN
         13   -1    0    0    0    0  0.00000000000E+00  0.00000000000E+00  0.74505805969E-08  0.10566000000E+00  0.10566000000E+00 0. -1.
     999900   -1    0    0    0    0 -0.00000000000E+00 -0.00000000000E+00 -0.74505805969E-08  0.93827000000E+00  0.93827000000E+00 0. -1.
     999902    2    1    2    0    0  0.27826454998E-02  0.21756160967E-01  0.91431872751E-02  0.10201671818E+01  0.10198903898E+01 0.  0.
     999903    2    3    3    0    0  0.40700990688E-01  0.10221026509E-01  0.12339770076E+00  0.13189641559E+00  0.20214644834E-01 0.  0.
         14    1    1    2    0    0 -0.27826454998E-02 -0.21756160967E-01 -0.91431872751E-02  0.23762818216E-01  0.00000000000E+00 0.  1.
     999901    1    3    3    0    0 -0.37918345189E-01  0.11535134458E-01 -0.11425451349E+00  0.88827076620E+00  0.88000000000E+00 0. -1.
        -11    1    4    4    0    0  0.66453245642E-02 -0.61729160450E-03  0.47900557982E-01  0.48365958726E-01  0.51100000000E-03 0.  1.
         11    1    4    4    0    0  0.34055666124E-01  0.10838318114E-01  0.75497142779E-01  0.83530456861E-01  0.51100000000E-03 0. -1.
</event>
<event>
 8    1  0.1081309E+005  0.1043930E+01  0.7957747E-01            NaN
         13   -1    0    0    0    0  0.00000000000E+00  0.00000000000E+00  0.74505805969E-08  0.10566000000E+00  0.10566000000E+00 0. -1.
     999900   -1    0    0    0    0 -0.00000000000E+00 -0.00000000000E+00 -0.74505805969E-08  0.93827000000E+00  0.93827000000E+00 0. -1.
     999902    2    1    2    0    0  0.25144097815E-03 -0.73155719944E-02  0.21077871936E-01  0.10216172794E+01  0.10213735889E+01 0.  0.
     999903    2    3    3    0    0  0.92933822786E-01  0.90197869877E-01 -0.31772747343E-02  0.13106284119E+00  0.19875163328E-01 0.  0.
         14    1    1    2    0    0 -0.25144097815E-03  0.73155719944E-02 -0.21077871936E-01  0.22312720621E-01  0.00000000000E+00 0.  1.
     999901    1    3    3    0    0 -0.92682381807E-01 -0.97513441872E-01  0.24255146670E-01  0.89055443819E+00  0.88000000000E+00 0.  1.
        -11    1    4    4    0    0  0.21940250285E-01  0.21353955177E-01 -0.92391199998E-02  0.31984190527E-01  0.51100000000E-03 0.  1.
         11    1    4    4    0    0  0.70993572501E-01  0.68843914700E-01  0.60618452656E-02  0.99078650660E-01  0.51100000000E-03 0. -1.
</event>
<event>
 8    1  0.1081309E+005  0.1043930E+01  0.7957747E-01            NaN
         13   -1    0    0    0    0  0.00000000000E+00  0.00000000000E+00  0.74505805969E-08  0.10566000000E+00  0.10566000000E+00 0.  1.
     999900   -1    0    0    0    0 -0.00000000000E+00 -0.00000000000E+00 -0.74505805969E-08  0.93827000000E+00  0.93827000000E+00 0. -1.
     999902    2    1    2    0    0 -0.14061400375E-01  0.27742323868E-02 -0.13440602333E-01  0.10242813579E+01  0.10240928820E+01 0.  0.
     999903    2    3    3    0    0 -0.12002755640E+00  0.33105629263E-01 -0.51990433615E-01  0.13656805431E+00  0.21100504359E-01 0.  0.
         14    1    1    2    0    0  0.14061400375E-01 -0.27742323868E-02  0.13440602333E-01  0.19648642114E-01  0.00000000000E+00 0. -1.
     999901    1    3    3    0    0  0.10596615603E+00 -0.30331396876E-01  0.38549831282E-01  0.88771330358E+00  0.88000000000E+00 0.  1.
        -11    1    4    4    0    0 -0.79568771694E-01  0.25683401156E-01 -0.24637025321E-01  0.87166912653E-01  0.51100000000E-03 0. -1.
         11    1    4    4    0    0 -0.40458784711E-01  0.74222281067E-02 -0.27353408294E-01  0.49401141654E-01  0.51100000000E-03 0.  1.
</event>
<event>
 8    1  0.1081309E+005  0.1043930E+01  0.7957747E-01            NaN
         13   -1    0    0    0    0  0.00000000000E+00  0.00000000000E+00  0.74505805969E-08  0.10566000000E+00  0.10566000000E+00 0.  1.
     999900   -1    0    0    0    0 -0.00000000000E+00 -0.00000000000E+00 -0.74505805969E-08  0.93827000000E+00  0.93827000000E+00 0. -1.
     999902    2    1    2    0    0  0.21688531538E-02  0.13879902176E-01  0.18236489083E-01  0.10209098970E+01  0.10206503283E+01 0.  0.
     999903    2    3    3    0    0  0.18877133833E-01  0.10086596174E+00  0.84004972933E-01  0.13402138389E+00  0.19354778297E-01 0.  0.
         14    1    1    2    0    0 -0.21688531538E-02 -0.13879902176E-01 -0.18236489083E-01  0.23020103008E-01  0.00000000000E+00 0. -1.
     999901    1    3    3    0    0 -0.16708280679E-01 -0.86986059564E-01 -0.65768483850E-01  0.88688851310E+00  0.88000000000E+00 0. -1.
        -11    1    4    4    0    0  0.15668187834E-01  0.49545547341E-01  0.32799377475E-01  0.61451718081E-01  0.51100000000E-03 0. -1.
         11    1    4    4    0    0  0.32089459987E-02  0.51320414400E-01  0.51205595458E-01  0.72569665810E-01  0.51100000000E-03 0.  1.
</event>
<event>
 8    1  0.1081309E+005  0.1043930E+01  0.7957747E-01            NaN
         13   -1    0    0    0    0  0.00000000000E+00  0.00000000000E+00  0.74505805969E-08  0.10566000000E+00  0.10566000000E+00 0.  1.
     999900   -1    0    0    0    0 -0.00000000000E+00 -0.00000000000E+00 -0.74505805969E-08  0.93827000000E+00  0.93827000000E+00 0.  1.
     999902    2    1    2    0    0  0.27490967561E-01  0.65307660427E-02 -0.26295963217E-02  0.10155518574E+01  0.10151552867E+01 0.  0.
     999903    2    3    3    0    0 -0.10658052946E+00 -0.43822931587E-01 -0.38981184990E-01  0.12323347294E+00  0.19674792930E-01 0.  0.
         14    1    1    2    0    0 -0.27490967561E-01 -0.65307660427E-02  0.26295963217E-02  0.28378142634E-01  0.00000000000E+00 0. -1.
     999901    1    3    3    0    0  0.13407149703E+00  0.50353697629E-01  0.36351588668E-01  0.89231838442E+00  0.88000000000E+00 0. -1.
        -11    1    4    4    0    0 -0.64991555356E-01 -0.23376173787E-01 -0.32849688644E-01  0.76483402994E-01  0.51100000000E-03 0. -1.
         11    1    4    4    0    0 -0.41588974108E-01 -0.20446757800E-01 -0.61314963463E-02  0.46750069950E-01  0.51100000000E-03 0.  1.
</event>
<event>
 8    1  0.1081309E+005  0.1043930E+01  0.7957747E-01            NaN
         13   -1    0    0    0    0  0.00000000000E+00  0.00000000000E+00  0.74505805969E-08  0.10566000000E+00  0.10566000000E+00 0.  1.
     999900   -1    0    0    0    0 -0.00000000000E+00 -0.00000000000E+00 -0.74505805969E-08  0.93827000000E+00  0.93827000000E+00 0.  1.
     999902    2    1    2    0    0 -0.36624852227E-02  0.14712532109E-01 -0.18152994335E-01  0.10202782854E+01  0.10200041059E+01 0.  0.
     999903    2    3    3    0    0 -0.49134468724E-01  0.97918928228E-02  0.11696432451E+00  0.12879154754E+00  0.19913119466E-01 0.  0.
         14    1    1    2    0    0  0.36624852227E-02 -0.14712532109E-01  0.18152994335E-01  0.23651714577E-01  0.00000000000E+00 0.  1.
     999901    1    3    3    0    0  0.45471983501E-01  0.49206392865E-02 -0.13511731885E+00  0.89148673789E+00  0.88000000000E+00 0.  1.
        -11    1    4    4    0    0 -0.19649742804E-01  0.12823014599E-01  0.62857304927E-01  0.67095782277E-01  0.51100000000E-03 0.  1.
         11    1    4    4    0    0 -0.29484725920E-01 -0.30311217758E-02  0.54107019584E-01  0.61695765261E-01  0.51100000000E-03 0. -1.
</event>
<event>
 8    1  0.1081309E+005  0.1043930E+01  0.7957747E-01            NaN
         13   -1    0    0    0    0  0.00000000000E+00  0.00000000000E+00  0.74505805969E-08  0.10566000000E+00  0.10566000000E+00 0.  1.
     999900   -1    0    0    0    0 -0.00000000000E+00 -0.00000000000E+00 -0.74505805969E-08  0.93827000000E+00  0.93827000000E+00 0.  1.
     999902    2    1    2    0    0  0.10108795918E-01  0.20992109387E-01  0.37572172192E-02  0.10203297226E+01  0.10200567483E+01 0.  0.
     999903    2    3    3    0    0  0.55163054216E-01  0.96985590324E-01 -0.69436698452E-01  0.13288268497E+00  0.19677032084E-01 0.  0.
         14    1    1    2    0    0 -0.10108795918E-01 -0.20992109387E-01 -0.37572172192E-02  0.23600277386E-01  0.00000000000E+00 0. -1.
     999901    1    3    3    0    0 -0.45054258297E-01 -0.75993480937E-01  0.73193915671E-01  0.88744703765E+00  0.88000000000E+00 0.  1.
        -11    1    4    4    0    0  0.29185250187E-01  0.69772714170E-01 -0.48025204777E-01  0.89591807025E-01  0.51100000000E-03 0.  1.
         11    1    4    4    0    0  0.25977804029E-01  0.27212876154E-01 -0.21411493674E-01  0.43290877943E-01  0.51100000000E-03 0. -1.
</event>
<event>
 8    1  0.1081309E+005  0.1043930E+01  0.7957747E-01            NaN
         13   -1    0    0    0    0  0.00000000000E+00  0.00000000000E+00  0.74505805969E-08  0.10566000000E+00  0.10566000000E+00 0. -1.
     999900   -1    0    0    0    0 -0.00000000000E+00 -0.00000000000E+00 -0.74505805969E-08  0.93827000000E+00  0.93827000000E+00 0. -1.
     999902    2    1    2    0    0 -0.18123127766E-01 -0.14264766703E-01 -0.58210160857E-02  0.10201431222E+01  0.10198657628E+01 0.  0.
     999903    2    3    3    0    0  0.12294883496E+00 -0.33268001042E-01 -0.96070989234E-03  0.12869147223E+00  0.18368346420E-01 0.  0.
         14    1    1    2    0    0  0.18123127766E-01  0.14264766703E-01  0.58210160857E-02  0.23786877840E-01  0.00000000000E+00 0. -1.
     999901    1    3    3    0    0 -0.14107196273E+00  0.19003234339E-01 -0.48603061934E-02  0.89145164993E+00  0.88000000000E+00 0.  1.
        -11    1    4    4    0    0  0.51206910668E-01 -0.47765955447E-02 -0.23419741263E-02  0.51485041798E-01  0.51100000000E-03 0.  1.
         11    1    4    4    0    0  0.71741924293E-01 -0.28491405498E-01  0.13812642340E-02  0.77206430434E-01  0.51100000000E-03 0. -1.
</event>
<event>
 8    1  0.1081309E+005  0.1043930E+01  0.7957747E-01            NaN
         13   -1    0    0    0    0  0.00000000000E+00  0.00000000000E+00  0.74505805969E-08  0.10566000000E+00  0.10566000000E+00 0.  1.
     999900   -1    0    0    0    0 -0.00000000000E+00 -0.00000000000E+00 -0.74505805969E-08  0.93827000000E+00  0.93827000000E+00 0.  1.
     999902    2    1    2    0    0 -0.29851139420E-02  0.24004732103E-01 -0.11788965988E-02  0.10197116626E+01  0.10194240271E+01 0.  0.
     999903    2    3    3    0    0  0.67073334626E-01  0.76565059646E-01 -0.80571949477E-01  0.13180737099E+00  0.22810160608E-01 0.  0.
         14    1    1    2    0    0  0.29851139420E-02 -0.24004732103E-01  0.11788965988E-02  0.24218337386E-01  0.00000000000E+00 0.  1.
     999901    1    3    3    0    0 -0.70058448568E-01 -0.52560327544E-01  0.79393052878E-01  0.88790429163E+00  0.88000000000E+00 0. -1.
        -11    1    4    4    0    0  0.18202286191E-01  0.25794455295E-01 -0.12909757962E-01  0.34111583343E-01  0.51100000000E-03 0.  1.
         11    1    4    4    0    0  0.48871048436E-01  0.50770604352E-01 -0.67662191515E-01  0.97695787642E-01  0.51100000000E-03 0. -1.
</event>
<event>
 8    1  0.1081309E+005  0.1043930E+01  0.7957747E-01            NaN
         13   -1    0    0    0    0  0.00000000000E+00  0.00000000000E+00  0.74505805969E-08  0.10566000000E+00  0.10566000000E+00 0. -1.
     999900   -1    0    0    0    0 -0.00000000000E+00 -0.00000000000E+00 -0.74505805969E-08  0.93827000000E+00  0.93827000000E+00 0.  1.
     999902    2    1    2    0    0 -0.52171930104E-03 -0.13052260672E-01  0.20530940858E-01  0.10195958012E+01  0.10193053736E+01 0.  0.
     999903    2    3    3    0    0  0.95385961995E-01 -0.85362576429E-01 -0.17049759137E-01  0.13064171119E+00  0.19781587804E-01 0.  0.
         14    1    1    2    0    0  0.52171930104E-03  0.13052260672E-01 -0.20530940858E-01  0.24334198820E-01  0.00000000000E+00 0.  1.
     999901    1    3    3    0    0 -0.95907681296E-01  0.72310315757E-01  0.37580699996E-01  0.88895408999E+00  0.88000000000E+00 0. -1.
        -11    1    4    4    0    0  0.62771824455E-01 -0.60811549274E-01 -0.20173653209E-01  0.89697178748E-01  0.51100000000E-03 0.  1.
         11    1    4    4    0    0  0.32614137540E-01 -0.24551027155E-01  0.31238940719E-02  0.40944532443E-01  0.51100000000E-03 0. -1.
</event>
<event>
 8    1  0.1081309E+005  0.1043930E+01  0.7957747E-01            NaN
         13   -1    0    0    0    0  0.00000000000E+00  0.00000000000E+00  0.74505805969E-08  0.10566000000E+00  0.10566000000E+00 0.  1.
     999900   -1    0    0    0    0 -0.00000000000E+00 -0.00000000000E+00 -0.74505805969E-08  0.93827000000E+00  0.93827000000E+00 0. -1.
     999902    2    1    2    0    0 -0.17683185129E-01  0.13906472658E-01 -0.10160049507E-01  0.10192457616E+01  0.10189468146E+01 0.  0.
     999903    2    3    3    0    0 -0.61630900847E-01 -0.50794965214E-01 -0.10198874708E+00  0.13101708191E+00  0.19628417909E-01 0.  0.
         14    1    1    2    0    0  0.17683185129E-01 -0.13906472658E-01  0.10160049507E-01  0.24684238373E-01  0.00000000000E+00 0.  1.
     999901    1    3    3    0    0  0.43947715719E-01  0.64701437873E-01  0.91828697574E-01  0.88822867972E+00  0.88000000000E+00 0.  1.
        -11    1    4    4    0    0 -0.17265832796E-01 -0.23060226109E-01 -0.26349462747E-01  0.39044056121E-01  0.51100000000E-03 0. -1.
         11    1    4    4    0    0 -0.44365068052E-01 -0.27734739105E-01 -0.75639284334E-01  0.91973025785E-01  0.51100000000E-03 0.  1.
</event>
<event>
 8    1  0.1081309E+005  0.1043930E+01  0.7957747E-01            NaN
         13   -1    0    0    0    0  0.00000000000E+00  0.00000000000E+00  0.74505805969E-08  0.10566000000E+00  0.10566000000E+00 0.  1.
     999900   -1    0    0    0    0 -0.00000000000E+00 -0.00000000000E+00 -0.74505805969E-08  0.93827000000E+00  0.93827000000E+00 0. -1.
     999902    2    1    2    0    0 -0.15527547029E-02 -0.23674200118E-01 -0.41243643851E-02  0.10198491117E+01  0.10195647706E+01 0.  0.
     999903    2    3    3    0    0 -0.36224545066E-01 -0.10396617443E+00 -0.71735905785E-01  0.13293296309E+00  0.20098492622E-01 0.  0.
         14    1    1    2    0    0  0.15527547029E-02  0.23674200118E-01  0.41243643851E-02  0.24080888273E-01  0.00000000000E+00 0. -1.
     999901    1    3    3    0    0  0.34671790363E-01  0.80291974313E-01  0.67611541400E-01  0.88691614864E+00  0.88000000000E+00 0.  1.
        -11    1    4    4    0    0 -0.61889044185E-02 -0.45581613210E-01 -0.25179578126E-01  0.52442904919E-01  0.51100000000E-03 0. -1.
         11    1    4    4    0    0 -0.30035640647E-01 -0.58384561221E-01 -0.46556327659E-01  0.80490058170E-01  0.51100000000E-03 0.  1.
</event>
<event>
 8    1  0.1081309E+005  0.1043930E+01  0.7957747E-01            NaN
         13   -1    0    0    0    0  0.00000000000E+00  0.00000000000E+00  0.74505805969E-08  0.10566000000E+00  0.10566000000E+00 0. -1.
     999900   -1    0    0    0    0 -0.00000000000E+00 -0.00000000000E+00 -0.74505805969E-08  0.93827000000E+00  0.93827000000E+00 0.  1.
     999902    2    1    2    0    0 -0.21230056305E-01 -0.89484321263E-03  0.11799404539E-01  0.10196248157E+01  0.10193350886E+01 0.  0.
     999903    2    3    3    0    0 -0.12449231910E+00  0.60165844875E-02  0.42094000947E-01  0.13304226158E+00  0.19844436154E-01 0.  0.
         14    1    1    2    0    0  0.21230056305E-01  0.89484321263E-03 -0.11799404539E-01  0.24305184274E-01  0.00000000000E+00 0. -1.
     999901    1    3    3    0    0  0.10326226279E+00 -0.69114277002E-02 -0.30294596408E-01  0.88658255415E+00  0.88000000000E+00 0.  1.
        -11    1    4    4    0    0 -0.38137567601E-01  0.87755350889E-02  0.19552714901E-01  0.43749901253E-01  0.51100000000E-03 0. -1.
         11    1    4    4    0    0 -0.86354751498E-01 -0.27589506014E-02  0.22541286046E-01  0.89292360325E-01  0.51100000000E-03 0.  1.
</event>
<event>
 8    1  0.1081309E+005  0.1043930E+01  0.7957747E-01            NaN
         13   -1    0    0    0    0  0.00000000000E+00  0.00000000000E+00  0.74505805969E-08  0.10566000000E+00  0.10566000000E+00 0.  1.
     999900   -1    0    0    0    0 -0.00000000000E+00 -0.00000000000E+00 -0.74505805969E-08  0.93827000000E+00  0.93827000000E+00 0.  1.
     999902    2    1    2    0    0 -0.52286687169E-03  0.20701657738E-01 -0.18582548315E-01  0.10161065724E+01  0.10157255650E+01 0.  0.
     999903    2    3    3    0    0 -0.96138099827E-01  0.82910645993E-01  0.82286588519E-03  0.12853189885E+00  0.20076415392E-01 0.  0.
         14    1    1    2    0    0  0.52286687169E-03 -0.20701657738E-01  0.18582548315E-01  0.27823427624E-01  0.00000000000E+00 0.  1.
     999901    1    3    3    0    0  0.95615232956E-01 -0.62208988255E-01 -0.19405414200E-01  0.88757467353E+00  0.88000000000E+00 0.  1.
        -11    1    4    4    0    0 -0.27332069261E-01  0.16864803113E-01 -0.68672276199E-02  0.32846362513E-01  0.51100000000E-03 0. -1.
         11    1    4    4    0    0 -0.68806030566E-01  0.66045842881E-01  0.76900935051E-02  0.95685536332E-01  0.51100000000E-03 0.  1.
</event>
<event>
 8    1  0.1081309E+005  0.1043930E+01  0.7957747E-01            NaN
         13   -1    0    0    0    0  0.00000000000E+00  0.00000000000E+00  0.74505805969E-08  0.10566000000E+00  0.10566000000E+00 0. -1.
     999900   -1    0    0    0    0 -0.00000000000E+00 -0.00000000000E+00 -0.74505805969E-08  0.93827000000E+00  0.93827000000E+00 0.  1.
     999902    2    1    2    0    0 -0.15022951136E-01 -0.16757017547E-01  0.59128483966E-02  0.10206609546E+01  0.10203956761E+01 0.  0.
     999903    2    3    3    0    0 -0.11290239633E+00 -0.67725664865E-01  0.15141814364E-01  0.13372050416E+00  0.17837654376E-01 0.  0.
         14    1    1    2    0    0  0.15022951136E-01  0.16757017547E-01 -0.59128483966E-02  0.23269045405E-01  0.00000000000E+00 0.  1.
     999901    1    3    3    0    0  0.97879445190E-01  0.50968647318E-01 -0.92289659671E-02  0.88694045043E+00  0.88000000000E+00 0. -1.
        -11    1    4    4    0    0 -0.49847208896E-01 -0.22134823837E-01  0.11984297516E-01  0.55844240249E-01  0.51100000000E-03 0. -1.
         11    1    4    4    0    0 -0.63055187430E-01 -0.45590841029E-01  0.31575168478E-02  0.77876263914E-01  0.51100000000E-03 0.  1.
</event>
<event>
 8    1  0.1117547E+005  0.1043930E+01  0.7957747E-01            NaN
         13   -1    0    0    0    0  0.00000000000E+00  0.00000000000E+00  0.74505805969E-08  0.10566000000E+00  0.10566000000E+00 0.  1.
     999900   -1    0    0    0    0 -0.00000000000E+00 -0.00000000000E+00 -0.74505805969E-08  0.93827000000E+00  0.93827000000E+00 0.  1.
     999902    2    1    2    0    0 -0.43766412450E-02 -0.17884970476E-01  0.14252344509E-01  0.10206457461E+01  0.10203801167E+01 0.  0.
     999903    2    3    3    0    0 -0.12564009518E+00  0.20986672209E-01 -0.20470228167E-01  0.13080222784E+00  0.21548054186E-01 0.  0.
         14    1    1    2    0    0  0.43766412450E-02  0.17884970476E-01 -0.14252344509E-01  0.23284253940E-01  0.00000000000E+00 0. -1.
     999901    1    3    3    0    0  0.12126345394E+00 -0.38871642686E-01  0.34722572676E-01  0.88984351822E+00  0.88000000000E+00 0.  1.
        -11    1    4    4    0    0 -0.70969588942E-01  0.13456064204E-02 -0.13970395099E-01  0.72345879436E-01  0.51100000000E-03 0. -1.
         11    1    4    4    0    0 -0.54670506239E-01  0.19641065789E-01 -0.64998330681E-02  0.58456348403E-01  0.51100000000E-03 0.  1.
</event>
<event>
 8    1  0.1081309E+005  0.1043930E+01  0.7957747E-01            NaN
         13   -1    0    0    0    0  0.00000000000E+00  0.00000000000E+00  0.74505805969E-08  0.10566000000E+00  0.10566000000E+00 0. -1.
     999900   -1    0    0    0    0 -0.00000000000E+00 -0.00000000000E+00 -0.74505805969E-08  0.93827000000E+00  0.93827000000E+00 0.  1.
     999902    2    1    2    0    0 -0.19138899567E-01 -0.10068567373E-01  0.90484002684E-02  0.10204875796E+01  0.10202182870E+01 0.  0.
     999903    2    3    3    0    0 -0.38193504932E-01  0.77348406530E-01  0.97251773843E-01  0.13156427561E+00  0.20241820312E-01 0.  0.
         14    1    1    2    0    0  0.19138899567E-01  0.10068567373E-01 -0.90484002684E-02  0.23442420374E-01  0.00000000000E+00 0. -1.
     999901    1    3    3    0    0  0.19054605365E-01 -0.87416973903E-01 -0.88203373574E-01  0.88892330402E+00  0.88000000000E+00 0. -1.
        -11    1    4    4    0    0 -0.23899780428E-01  0.53635542102E-01  0.51608335993E-01  0.78177057671E-01  0.51100000000E-03 0. -1.
         11    1    4    4    0    0 -0.14293724504E-01  0.23712864428E-01  0.45643437849E-01  0.53387217939E-01  0.51100000000E-03 0.  1.
</event>
<event>
 8    1  0.1081309E+005  0.1043930E+01  0.7957747E-01            NaN
         13   -1    0    0    0    0  0.00000000000E+00  0.00000000000E+00  0.74505805969E-08  0.10566000000E+00  0.10566000000E+00 0. -1.
     999900   -1    0    0    0    0 -0.00000000000E+00 -0.00000000000E+00 -0.74505805969E-08  0.93827000000E+00  0.93827000000E+00 0.  1.
     999902    2    1    2    0    0 -0.22413854640E-01 -0.86701671396E-02  0.40031160361E-02  0.10195665516E+01  0.10192754170E+01 0.  0.
     999903    2    3    3    0    0  0.78317859399E-01  0.72487796860E-01  0.67375826901E-01  0.12785494253E+00  0.20474776793E-01 0.  0.
         14    1    1    2    0    0  0.22413854640E-01  0.86701671396E-02 -0.40031160361E-02  0.24363448361E-01  0.00000000000E+00 0. -1.
     999901    1    3    3    0    0 -0.10073171404E+00 -0.81157963999E-01 -0.63372710865E-01  0.89171160911E+00  0.88000000000E+00 0. -1.
        -11    1    4    4    0    0  0.31397821870E-01  0.16484102697E-01  0.19074754870E-01  0.40269793323E-01  0.51100000000E-03 0. -1.
         11    1    4    4    0    0  0.46920037530E-01  0.56003694163E-01  0.48301072031E-01  0.87585149209E-01  0.51100000000E-03 0.  1.
</event>
<event>
 8    1  0.1081309E+005  0.1043930E+01  0.7957747E-01            NaN
         13   -1    0    0    0    0  0.00000000000E+00  0.00000000000E+00  0.74505805969E-08  0.10566000000E+00  0.10566000000E+00 0. -1.
     999900   -1    0    0    0    0 -0.00000000000E+00 -0.00000000000E+00 -0.74505805969E-08  0.93827000000E+00  0.93827000000E+00 0.  1.
     999902    2    1    2    0    0 -0.88706453123E-02 -0.13067651769E-01  0.21756275100E-01  0.10170452947E+01  0.10166898958E+01 0.  0.
     999903    2    3    3    0    0  0.45841476571E-01  0.10931178404E+00  0.39848793507E-01  0.12670969407E+00  0.20418450535E-01 0.  0.
         14    1    1    2    0    0  0.88706453123E-02  0.13067651769E-01 -0.21756275100E-01  0.26884705266E-01  0.00000000000E+00 0.  1.
     999901    1    3    3    0    0 -0.54712121883E-01 -0.12237943581E+00 -0.18092518407E-01  0.89033560067E+00  0.88000000000E+00 0.  1.
        -11    1    4    4    0    0  0.37849769308E-01  0.69478807298E-01  0.31897624479E-01  0.85309022199E-01  0.51100000000E-03 0.  1.
         11    1    4    4    0    0  0.79917072632E-02  0.39832976745E-01  0.79511690275E-02  0.41400671869E-01  0.51100000000E-03 0. -1.
</event>
<event>
 8    1  0.1081309E+005  0.1043930E+01  0.7957747E-01            NaN
         13   -1    0    0    0    0  0.00000000000E+00  0.00000000000E+00  0.74505805969E-08  0.10566000000E+00  0.10566000000E+00 0.  1.
     999900   -1    0    0    0    0 -0.00000000000E+00 -0.00000000000E+00 -0.74505805969E-08  0.93827000000E+00  0.93827000000E+00 0.  1.
     999902    2    1    2    0    0  0.35199172572E-02  0.11778797179E-01 -0.15894172162E-01  0.10238363545E+01  0.10236391582E+01 0.  0.
     999903    2    3    3    0    0 -0.99137034176E-01  0.63617537572E-01  0.58845625493E-01  0.13321199933E+00  0.20181340233E-01 0.  0.
         14    1    1    2    0    0 -0.35199172572E-02 -0.11778797179E-01  0.15894172162E-01  0.20093645493E-01  0.00000000000E+00 0.  1.
     999901    1    3    3    0    0  0.10265695143E+00 -0.51838740393E-01 -0.74739797655E-01  0.89062435518E+00  0.88000000000E+00 0.  1.
        -11    1    4    4    0    0 -0.65550036817E-01  0.40080748369E-01  0.27566593357E-01  0.81629969415E-01  0.51100000000E-03 0.  1.
         11    1    4    4    0    0 -0.33586997359E-01  0.23536789203E-01  0.31279032136E-01  0.51582029913E-01  0.51100000000E-03 0. -1.
</event>
<event>
 8    1  0.1081309E+005  0.1043930E+01  0.7957747E-01            NaN
         13   -1    0    0    0    0  0.00000000000E+00  0.00000000000E+00  0.74505805969E-08  0.10566000000E+00  0.10566000000E+00 0.  1.
     999900   -1    0    0    0    0 -0.00000000000E+00 -0.00000000000E+00 -0.74505805969E-08  0.93827000000E+00  0.93827000000E+00 0. -1.
     999902    2    1    2    0    0 -0.24152183463E-01 -0.11313375630E-01 -0.81193919393E-02  0.10160508867E+01  0.10156683314E+01 0.  0.
     999903    2    3    3    0    0  0.79039949162E-01 -0.78220512828E-01  0.54214565936E-01  0.12531484073E+00  0.19970677433E-01 0.  0.
         14    1    1    2    0    0  0.24152183463E-01  0.11313375630E-01  0.81193919393E-02  0.27879113322E-01  0.00000000000E+00 0. -1.
     999901    1    3    3    0    0 -0.10319213263E+00  0.66907137199E-01 -0.62333957875E-01  0.89073604595E+00  0.88000000000E+00 0. -1.
        -11    1    4    4    0    0  0.14703905415E-01 -0.25358959626E-01  0.18798624798E-01  0.34827160135E-01  0.51100000000E-03 0. -1.
         11    1    4    4    0    0  0.64336043747E-01 -0.52861553202E-01  0.35415941138E-01  0.90487680596E-01  0.51100000000E-03 0.  1.
</event>
<event>
 8    1  0.1081309E+005  0.1043930E+01  0.7957747E-01            NaN
         13   -1    0    0    0    0  0.00000000000E+00  0.00000000000E+00  0.74505805969E-08  0.10566000000E+00  0.10566000000E+00 0.  1.
     999900   -1    0    0    0    0 -0.00000000000E+00 -0.00000000000E+00 -0.74505805969E-08  0.93827000000E+00  0.93827000000E+00 0.  1.
     999902    2    1    2    0    0 -0.75980602347E-02 -0.72774573583E-02 -0.20848746841E-01  0.10205770098E+01  0.10203097916E+01 0.  0.
     999903    2    3    3    0    0 -0.63077047289E-01  0.69646140264E-01  0.86055762300E-01  0.12904813652E+00  0.20457970718E-01 0.  0.
         14    1    1    2    0    0  0.75980602347E-02  0.72774573583E-02  0.20848746841E-01  0.23352990167E-01  0.00000000000E+00 0.  1.
     999901    1    3    3    0    0  0.55478987054E-01 -0.76923597623E-01 -0.10690450914E+00  0.89152887331E+00  0.88000000000E+00 0.  1.
        -11    1    4    4    0    0 -0.20762713580E-01  0.36042484582E-01  0.30780867216E-01  0.51748177529E-01  0.51100000000E-03 0. -1.
         11    1    4    4    0    0 -0.42314333709E-01  0.33603655683E-01  0.55274895083E-01  0.77299958991E-01  0.51100000000E-03 0.  1.
</event>
<event>
 8    1  0.1081309E+005  0.1043930E+01  0.7957747E-01            NaN
         13   -1    0    0    0    0  0.00000000000E+00  0.00000000000E+00  0.74505805969E-08  0.10566000000E+00  0.10566000000E+00 0.  1.
     999900   -1    0    0    0    0 -0.00000000000E+00 -0.00000000000E+00 -0.74505805969E-08  0.93827000000E+00  0.93827000000E+00 0.  1.
     999902    2    1    2    0    0 -0.19444071200E-01 -0.14083049755E-01  0.22560720944E-02  0.10198158121E+01  0.10195306747E+01 0.  0.
     999903    2    3    3    0    0  0.66795255071E-01 -0.31924938532E-01 -0.10380012067E+00  0.12908382640E+00  0.20183195643E-01 0.  0.
         14    1    1    2    0    0  0.19444071200E-01  0.14083049755E-01 -0.22560720944E-02  0.24114187868E-01  0.00000000000E+00 0.  1.
     999901    1    3    3    0    0 -0.86239326271E-01  0.17841888777E-01  0.10605619276E+00  0.89073198574E+00  0.88000000000E+00 0. -1.
        -11    1    4    4    0    0  0.47826878150E-01 -0.20431040948E-01 -0.86575938621E-01  0.10099748500E+00  0.51100000000E-03 0. -1.
         11    1    4    4    0    0  0.18968376921E-01 -0.11493897585E-01 -0.17224182045E-01  0.28086341393E-01  0.51100000000E-03 0.  1.
</event>
<event>
 8    1  0.1081309E+005  0.1043930E+01  0.7957747E-01            NaN
         13   -1    0    0    0    0  0.00000000000E+00  0.00000000000E+00  0.74505805969E-08  0.10566000000E+00  0.10566000000E+00 0. -1.
     999900   -1    0    0    0    0 -0.00000000000E+00 -0.00000000000E+00 -0.74505805969E-08  0.93827000000E+00  0.93827000000E+00 0. -1.
     999902    2    1    2    0    0 -0.40526916107E-02  0.16839772747E-02  0.22446854187E-01  0.10210581537E+01  0.10208019553E+01 0.  0.
     999903    2    3    3    0    0 -0.35866059212E-01  0.96662540954E-01  0.82029792435E-01  0.13337400695E+00  0.20729637152E-01 0.  0.
         14    1    1    2    0    0  0.40526916107E-02 -0.16839772747E-02 -0.22446854187E-01  0.22871846267E-01  0.00000000000E+00 0.  1.
     999901    1    3    3    0    0  0.31813367601E-01 -0.94978563679E-01 -0.59582938248E-01  0.88768414678E+00  0.88000000000E+00 0.  1.
        -11    1    4    4    0    0 -0.23694451608E-01  0.38941854540E-01  0.42790019053E-01  0.62523131108E-01  0.51100000000E-03 0. -1.
         11    1    4    4    0    0 -0.12171607603E-01  0.57720686414E-01  0.39239773382E-01  0.70850875844E-01  0.51100000000E-03 0.  1.
</event>
<event>
 8    1  0.1081309E+005  0.1043930E+01  0.7957747E-01            NaN
         13   -1    0    0    0    0  0.00000000000E+00  0.00000000000E+00  0.74505805969E-08  0.10566000000E+00  0.10566000000E+00 0.  1.
     999900   -1    0    0    0    0 -0.00000000000E+00 -0.00000000000E+00 -0.74505805969E-08  0.93827000000E+00  0.93827000000E+00 0. -1.
     999902    2    1    2    0    0  0.12952850061E-01  0.16503918363E-02  0.18795827540E-01  0.10210436886E+01  0.10207871623E+01 0.  0.
     999903    2    3    3    0    0 -0.68831551055E-02  0.12769348897E+00  0.24061195462E-01  0.13182602482E+00  0.21122375401E-01 0.  0.
         14    1    1    2    0    0 -0.12952850061E-01 -0.16503918363E-02 -0.18795827540E-01  0.22886311429E-01  0.00000000000E+00 0. -1.
     999901    1    3    3    0    0  0.19836005167E-01 -0.12604309713E+00 -0.52653679219E-02  0.88921766376E+00  0.88000000000E+00 0. -1.
        -11    1    4    4    0    0  0.34239934416E-02  0.84315311025E-01  0.21914957501E-01  0.87185560087E-01  0.51100000000E-03 0.  1.
         11    1    4    4    0    0 -0.10307148547E-01  0.43378177942E-01  0.21462379604E-02  0.44640464728E-01  0.51100000000E-03 0. -1.
</event>
<event>
 8    1  0.1081309E+005  0.1043930E+01  0.7957747E-01            NaN
         13   -1    0    0    0    0  0.00000000000E+00  0.00000000000E+00  0.74505805969E-08  0.10566000000E+00  0.10566000000E+00 0.  1.
     999900   -1    0    0    0    0 -0.00000000000E+00 -0.00000000000E+00 -0.74505805969E-08  0.93827000000E+00  0.93827000000E+00 0.  1.
     999902    2    1    2    0    0  0.10372145523E-02 -0.24407508794E-01 -0.26749762267E-02  0.10193544472E+01  0.10190581589E+01 0.  0.
     999903    2    3    3    0    0  0.47573561308E-01  0.84177385496E-01 -0.81534745502E-01  0.12796498455E+00  0.19443420048E-01 0.  0.
         14    1    1    2    0    0 -0.10372145523E-02  0.24407508794E-01  0.26749762267E-02  0.24575552839E-01  0.00000000000E+00 0. -1.
     999901    1    3    3    0    0 -0.46536346755E-01 -0.10858489429E+00  0.78859769275E-01  0.89138946261E+00  0.88000000000E+00 0.  1.
        -11    1    4    4    0    0  0.11497335101E-01  0.34169880069E-01 -0.38634014789E-01  0.52845223418E-01  0.51100000000E-03 0.  1.
         11    1    4    4    0    0  0.36076226206E-01  0.50007505427E-01 -0.42900730713E-01  0.75119761135E-01  0.51100000000E-03 0. -1.
</event>
<event>
 8    1  0.1081309E+005  0.1043930E+01  0.7957747E-01            NaN
         13   -1    0    0    0    0  0.00000000000E+00  0.00000000000E+00  0.74505805969E-08  0.10566000000E+00  0.10566000000E+00 0.  1.
     999900   -1    0    0    0    0 -0.00000000000E+00 -0.00000000000E+00 -0.74505805969E-08  0.93827000000E+00  0.93827000000E+00 0.  1.
     999902    2    1    2    0    0  0.59339275849E-03  0.21229171980E-01  0.11256122974E-01  0.10198939820E+01  0.10196107121E+01 0.  0.
     999903    2    3    3    0    0 -0.80725717152E-01  0.78214868433E-01  0.66170661670E-01  0.13260836066E+00  0.23920990737E-01 0.  0.
         14    1    1    2    0    0 -0.59339275849E-03 -0.21229171980E-01 -0.11256122974E-01  0.24036018021E-01  0.00000000000E+00 0. -1.
     999901    1    3    3    0    0  0.81319109910E-01 -0.56985696453E-01 -0.54914538696E-01  0.88728562132E+00  0.88000000000E+00 0.  1.
        -11    1    4    4    0    0 -0.56612048351E-01  0.39274910897E-01  0.43658671446E-01  0.81570726108E-01  0.51100000000E-03 0. -1.
         11    1    4    4    0    0 -0.24113668801E-01  0.38939957535E-01  0.22511990224E-01  0.51037634553E-01  0.51100000000E-03 0.  1.
</event>
<event>
 8    1  0.1081309E+005  0.1043930E+01  0.7957747E-01            NaN
         13   -1    0    0    0    0  0.00000000000E+00  0.00000000000E+00  0.74505805969E-08  0.10566000000E+00  0.10566000000E+00 0. -1.
     999900   -1    0    0    0    0 -0.00000000000E+00 -0.00000000000E+00 -0.74505805969E-08  0.93827000000E+00  0.93827000000E+00 0. -1.
     999902    2    1    2    0    0 -0.16579072880E-01  0.27457197410E-02 -0.17579320991E-01  0.10196105189E+01  0.10193204467E+01 0.  0.
     999903    2    3    3    0    0  0.10031020241E+00  0.75926965315E-01 -0.22079351918E-01  0.12885867486E+00  0.17029959983E-01 0.  0.
         14    1    1    2    0    0  0.16579072880E-01 -0.27457197410E-02  0.17579320991E-01  0.24319481100E-01  0.00000000000E+00 0. -1.
     999901    1    3    3    0    0 -0.11688927529E+00 -0.73181245574E-01  0.45000309268E-02  0.89075184404E+00  0.88000000000E+00 0.  1.
        -11    1    4    4    0    0  0.40272943183E-01  0.20380813794E-01 -0.89663578877E-02  0.46021127956E-01  0.51100000000E-03 0. -1.
         11    1    4    4    0    0  0.60037259223E-01  0.55546151521E-01 -0.13112994031E-01  0.82837546905E-01  0.51100000000E-03 0.  1.
</event>
<event>
 8    1  0.1081309E+005  0.1043930E+01  0.7957747E-01            NaN
         13   -1    0    0    0    0  0.00000000000E+00  0.00000000000E+00  0.74505805969E-08  0.10566000000E+00  0.10566000000E+00 0.  1.
     999900   -1    0    0    0    0 -0.00000000000E+00 -0.00000000000E+00 -0.74505805969E-08  0.93827000000E+00  0.93827000000E+00 0. -1.
     999902    2    1    2    0    0 -0.14087365375E-02 -0.20797865966E-01 -0.10861874585E-01  0.10204243393E+01  0.10201535747E+01 0.  0.
     999903    2    3    3    0    0  0.11296461971E+00 -0.30481829240E-01  0.54396851375E-01  0.13057393325E+00  0.20009682292E-01 0.  0.
         14    1    1    2    0    0  0.14087365375E-02  0.20797865966E-01  0.10861874585E-01  0.23505660741E-01  0.00000000000E+00 0. -1.
     999901    1    3    3    0    0 -0.11437335624E+00  0.96839632740E-02 -0.65258725960E-01  0.88985040601E+00  0.88000000000E+00 0. -1.
        -11    1    4    4    0    0  0.65860706650E-01 -0.19166355146E-01  0.21021114234E-01  0.71743502944E-01  0.51100000000E-03 0. -1.
         11    1    4    4    0    0  0.47103913055E-01 -0.11315474095E-01  0.33375737141E-01  0.58830430304E-01  0.51100000000E-03 0.  1.
</event>
<event>
 8    1  0.1081309E+005  0.1043930E+01  0.7957747E-01            NaN
         13   -1    0    0    0    0  0.00000000000E+00  0.00000000000E+00  0.74505805969E-08  0.10566000000E+00  0.10566000000E+00 0.  1.
     999900   -1    0    0    0    0 -0.00000000000E+00 -0.00000000000E+00 -0.74505805969E-08  0.93827000000E+00  0.93827000000E+00 0. -1.
     999902    2    1    2    0    0 -0.74909667384E-02  0.20402582711E-01  0.88498229044E-02  0.10204630162E+01  0.10201931523E+01 0.  0.
     999903    2    3    3    0    0 -0.41646832909E-01  0.22876193241E-01  0.12211086516E+00  0.13254364730E+00  0.19974387142E-01 0.  0.
         14    1    1    2    0    0  0.74909667384E-02 -0.20402582711E-01 -0.88498229044E-02  0.23466983815E-01  0.00000000000E+00 0. -1.
     999901    1    3    3    0    0  0.34155866170E-01 -0.24736105304E-02 -0.11326104226E+00  0.88791936888E+00  0.88000000000E+00 0. -1.
        -11    1    4    4    0    0 -0.24778819958E-01  0.23005887734E-01  0.69459986228E-01  0.77254201159E-01  0.51100000000E-03 0.  1.
         11    1    4    4    0    0 -0.16868012951E-01 -0.12969449284E-03  0.52650878932E-01  0.55289446144E-01  0.51100000000E-03 0. -1.
</event>
<event>
 8    1  0.1081309E+005  0.1043930E+01  0.7957747E-01            NaN
         13   -1    0    0    0    0  0.00000000000E+00  0.00000000000E+00  0.74505805969E-08  0.10566000000E+00  0.10566000000E+00 0.  1.
     999900   -1    0    0    0    0 -0.00000000000E+00 -0.00000000000E+00 -0.74505805969E-08  0.93827000000E+00  0.93827000000E+00 0. -1.
     999902    2    1    2    0    0  0.92040653430E-02  0.21158830733E-01  0.22513491271E-02  0.10207463957E+01  0.10204830840E+01 0.  0.
     999903    2    3    3    0    0 -0.35881457397E-01 -0.10400995432E+00  0.63360892301E-01  0.12865093812E+00  0.20758410918E-01 0.  0.
         14    1    1    2    0    0 -0.92040653430E-02 -0.21158830733E-01 -0.22513491271E-02  0.23183604329E-01  0.00000000000E+00 0.  1.
     999901    1    3    3    0    0  0.45085522740E-01  0.12516878505E+00 -0.61109543174E-01  0.89209545755E+00  0.88000000000E+00 0. -1.
        -11    1    4    4    0    0 -0.86645586394E-02 -0.56575689895E-01  0.34085386604E-01  0.66618000304E-01  0.51100000000E-03 0.  1.
         11    1    4    4    0    0 -0.27216898757E-01 -0.47434264425E-01  0.29275505697E-01  0.62032937818E-01  0.51100000000E-03 0. -1.
</event>
<event>
 8    1  0.1081309E+005  0.1043930E+01  0.7957747E-01            NaN
         13   -1    0    0    0    0  0.00000000000E+00  0.00000000000E+00  0.74505805969E-08  0.10566000000E+00  0.10566000000E+00 0.  1.
     999900   -1    0    0    0    0 -0.00000000000E+00 -0.00000000000E+00 -0.74505805969E-08  0.93827000000E+00  0.93827000000E+00 0.  1.
     999902    2    1    2    0    0  0.22372631270E-01  0.90815091801E-02 -0.86740592964E-03  0.10197688570E+01  0.10194825947E+01 0.  0.
     999903    2    3    3    0    0 -0.81707238524E-01  0.37819408478E-01  0.89616755113E-01  0.12856412767E+00  0.19778565191E-01 0.  0.
         14    1    1    2    0    0 -0.22372631270E-01 -0.90815091801E-02  0.86740592964E-03  0.24161143019E-01  0.00000000000E+00 0.  1.
     999901    1    3    3    0    0  0.10407986979E+00 -0.28737899298E-01 -0.90484161043E-01  0.89120472931E+00  0.88000000000E+00 0.  1.
        -11    1    4    4    0    0 -0.30363645677E-01  0.12690608093E-01  0.20114432903E-01  0.38572711138E-01  0.51100000000E-03 0.  1.
         11    1    4    4    0    0 -0.51343592847E-01  0.25128800385E-01  0.69502322211E-01  0.89991416529E-01  0.51100000000E-03 0. -1.
</event>
<event>
 8    1  0.1081309E+005  0.1043930E+01  0.7957747E-01            NaN
         13   -1    0    0    0    0  0.00000000000E+00  0.00000000000E+00  0.74505805969E-08  0.10566000000E+00  0.10566000000E+00 0.  1.
     999900   -1    0    0    0    0 -0.00000000000E+00 -0.00000000000E+00 -0.74505805969E-08  0.93827000000E+00  0.93827000000E+00 0. -1.
     999902    2    1    2    0    0 -0.12370668842E-01  0.19040284226E-01 -0.62370595901E-02  0.10203828816E+01  0.10201111500E+01 0.  0.
     999903    2    3    3    0    0 -0.75968158869E-01 -0.97069121592E-01 -0.36610078129E-01  0.12996244436E+00  0.18877595068E-01 0.  0.
         14    1    1    2    0    0  0.12370668842E-01 -0.19040284226E-01  0.62370595901E-02  0.23547118365E-01  0.00000000000E+00 0.  1.
     999901    1    3    3    0    0  0.63597490027E-01  0.11610940582E+00  0.30373018539E-01  0.89042043727E+00  0.88000000000E+00 0. -1.
        -11    1    4    4    0    0 -0.25858504788E-01 -0.43835985054E-01 -0.21793012362E-01  0.55366527472E-01  0.51100000000E-03 0.  1.
         11    1    4    4    0    0 -0.50109654081E-01 -0.53233136538E-01 -0.14817065767E-01  0.74595916890E-01  0.51100000000E-03 0. -1.
</event>
<event>
 8    1  0.1081309E+005  0.1043930E+01  0.7957747E-01            NaN
         13   -1    0    0    0    0  0.00000000000E+00  0.00000000000E+00  0.74505805969E-08  0.10566000000E+00  0.10566000000E+00 0.  1.
     999900   -1    0    0    0    0 -0.00000000000E+00 -0.00000000000E+00 -0.74505805969E-08  0.93827000000E+00  0.93827000000E+00 0. -1.
     999902    2    1    2    0    0 -0.94229575550E-02  0.60125892772E-02  0.20203967113E-01  0.10208400964E+01  0.10205789332E+01 0.  0.
     999903    2    3    3    0    0 -0.12233711277E+00 -0.31269212547E-01  0.35486852992E-01  0.13271110481E+00  0.20218501199E-01 0.  0.
         14    1    1    2    0    0  0.94229575550E-02 -0.60125892772E-02 -0.20203967113E-01  0.23089903551E-01  0.00000000000E+00 0. -1.
     999901    1    3    3    0    0  0.11291415521E+00  0.37281801825E-01 -0.15282885880E-01  0.88812899164E+00  0.88000000000E+00 0. -1.
        -11    1    4    4    0    0 -0.77639843651E-01 -0.26619043446E-01  0.30209857192E-01  0.87460936359E-01  0.51100000000E-03 0.  1.
         11    1    4    4    0    0 -0.44697269114E-01 -0.46501691015E-02  0.52769957999E-02  0.45250168448E-01  0.51100000000E-03 0. -1.
</event>
<event>
 8    1  0.1081309E+005  0.1043930E+01  0.7957747E-01            NaN
         13   -1    0    0    0    0  0.00000000000E+00  0.00000000000E+00  0.74505805969E-08  0.10566000000E+00  0.10566000000E+00 0. -1.
     999900   -1    0    0    0    0 -0.00000000000E+00 -0.00000000000E+00 -0.74505805969E-08  0.93827000000E+00  0.93827000000E+00 0. -1.
     999902    2    1    2    0    0 -0.21003074870E-01 -0.23009355391E-02  0.98454150396E-02  0.10206200095E+01  0.10203537858E+01 0.  0.
     999903    2    3    3    0    0  0.40291231131E-01  0.12937944239E-01  0.12248755220E+00  0.13119465208E+00  0.20446578777E-01 0.  0.
         14    1    1    2    0    0  0.21003074870E-01  0.23009355391E-02 -0.98454150396E-02  0.23309990468E-01  0.00000000000E+00 0.  1.
     999901    1    3    3    0    0 -0.61294306000E-01 -0.15238879778E-01 -0.11264213716E+00  0.88942535745E+00  0.88000000000E+00 0. -1.
        -11    1    4    4    0    0  0.41067313200E-02  0.96577820749E-02  0.32138935200E-01  0.33812871418E-01  0.51100000000E-03 0. -1.
         11    1    4    4    0    0  0.36184499811E-01  0.32801621642E-02  0.90348617003E-01  0.97381780667E-01  0.51100000000E-03 0.  1.
</event>
<event>
 8    1  0.1081309E+005  0.1043930E+01  0.7957747E-01            NaN
         13   -1    0    0    0    0  0.00000000000E+00  0.00000000000E+00  0.74505805969E-08  0.10566000000E+00  0.10566000000E+00 0. -1.
     999900   -1    0    0    0    0 -0.00000000000E+00 -0.00000000000E+00 -0.74505805969E-08  0.93827000000E+00  0.93827000000E+00 0.  1.
     999902    2    1    2    0    0  0.69711985725E-03  0.23021732574E-01  0.30708114795E-02  0.10206939067E+01  0.10204293877E+01 0.  0.
     999903    2    3    3    0    0  0.66252722378E-01  0.99757493554E-01  0.55160812096E-01  0.13339503815E+00  0.20261793351E-01 0.  0.
         14    1    1    2    0    0 -0.69711985725E-03 -0.23021732574E-01 -0.30708114795E-02  0.23236093260E-01  0.00000000000E+00 0.  1.
     999901    1    3    3    0    0 -0.65555602520E-01 -0.76735760980E-01 -0.52090000616E-01  0.88729886859E+00  0.88000000000E+00 0.  1.
        -11    1    4    4    0    0  0.35398982197E-01  0.39377929504E-01  0.17152555897E-01  0.55661302243E-01  0.51100000000E-03 0.  1.
         11    1    4    4    0    0  0.30853740181E-01  0.60379564050E-01  0.38008256199E-01  0.77733735909E-01  0.51100000000E-03 0. -1.
</event>
<event>
 8    1  0.1081309E+005  0.1043930E+01  0.7957747E-01            NaN
         13   -1    0    0    0    0  0.00000000000E+00  0.00000000000E+00  0.74505805969E-08  0.10566000000E+00  0.10566000000E+00 0. -1.
     999900   -1    0    0    0    0 -0.00000000000E+00 -0.00000000000E+00 -0.74505805969E-08  0.93827000000E+00  0.93827000000E+00 0.  1.
     999902    2    1    2    0    0 -0.85434653961E-02 -0.21617102948E-01 -0.89392207488E-03  0.10206686794E+01  0.10204035790E+01 0.  0.
     999903    2    3    3    0    0  0.39042766585E-01  0.12020084688E+00 -0.64955863787E-02  0.12802756503E+00  0.19398029592E-01 0.  0.
         14    1    1    2    0    0  0.85434653961E-02  0.21617102948E-01  0.89392207488E-03  0.23261320632E-01  0.00000000000E+00 0.  1.
     999901    1    3    3    0    0 -0.47586231981E-01 -0.14181794983E+00  0.56016643038E-02  0.89264111434E+00  0.88000000000E+00 0.  1.
        -11    1    4    4    0    0  0.20955378901E-01  0.45509282077E-01  0.48648433091E-02  0.50340346458E-01  0.51100000000E-03 0.  1.
         11    1    4    4    0    0  0.18087387683E-01  0.74691564800E-01 -0.11360429688E-01  0.77687218571E-01  0.51100000000E-03 0. -1.
</event>
<event>
 8    1  0.1081309E+005  0.1043930E+01  0.7957747E-01            NaN
         13   -1    0    0    0    0  0.00000000000E+00  0.00000000000E+00  0.74505805969E-08  0.10566000000E+00  0.10566000000E+00 0.  1.
     999900   -1    0    0    0    0 -0.00000000000E+00 -0.00000000000E+00 -0.74505805969E-08  0.93827000000E+00  0.93827000000E+00 0. -1.
     999902    2    1    2    0    0 -0.10017308684E-01 -0.10630493936E-01 -0.16881185074E-01  0.10216067322E+01  0.10213628087E+01 0.  0.
     999903    2    3    3    0    0 -0.63911252173E-02 -0.72420439727E-01 -0.11127055205E+00  0.13439734363E+00  0.19898332874E-01 0.  0.
         14    1    1    2    0    0  0.10017308684E-01  0.10630493936E-01  0.16881185074E-01  0.22323267774E-01  0.00000000000E+00 0.  1.
     999901    1    3    3    0    0 -0.36261834669E-02  0.61789945791E-01  0.94389366974E-01  0.88720938859E+00  0.88000000000E+00 0.  1.
        -11    1    4    4    0    0 -0.75722297366E-02 -0.10137547173E-01 -0.24508843387E-01  0.27587189981E-01  0.51100000000E-03 0. -1.
         11    1    4    4    0    0  0.11811045193E-02 -0.62282892554E-01 -0.86761708661E-01  0.10681015365E+00  0.51100000000E-03 0.  1.
</event>
<event>
 8    1  0.1081309E+005  0.1043930E+01  0.7957747E-01            NaN
         13   -1    0    0    0    0  0.00000000000E+00  0.00000000000E+00  0.74505805969E-08  0.10566000000E+00  0.10566000000E+00 0. -1.
     999900   -1    0    0    0    0 -0.00000000000E+00 -0.00000000000E+00 -0.74505805969E-08  0.93827000000E+00  0.93827000000E+00 0. -1.
     999902    2    1    2    0    0  0.75702569619E-02  0.21380588715E-01 -0.62483150351E-02  0.10204038485E+01  0.10201326062E+01 0.  0.
     999903    2    3    3    0    0 -0.54301948818E-01 -0.67628145246E-01  0.92124614552E-01  0.12831194860E+00  0.21324724430E-01 0.  0.
         14    1    1    2    0    0 -0.75702569619E-02 -0.21380588715E-01  0.62483150351E-02  0.23526151514E-01  0.00000000000E+00 0. -1.
     999901    1    3    3    0    0  0.61872205780E-01  0.89008733961E-01 -0.98372929587E-01  0.89209189989E+00  0.88000000000E+00 0. -1.
        -11    1    4    4    0    0 -0.28723288339E-01 -0.46661403094E-01  0.68214593772E-01  0.87497461427E-01  0.51100000000E-03 0.  1.
         11    1    4    4    0    0 -0.25578660480E-01 -0.20966742152E-01  0.23910020780E-01  0.40814487172E-01  0.51100000000E-03 0. -1.
</event>
<event>
 8    1  0.1081309E+005  0.1043930E+01  0.7957747E-01            NaN
         13   -1    0    0    0    0  0.00000000000E+00  0.00000000000E+00  0.74505805969E-08  0.10566000000E+00  0.10566000000E+00 0.  1.
     999900   -1    0    0    0    0 -0.00000000000E+00 -0.00000000000E+00 -0.74505805969E-08  0.93827000000E+00  0.93827000000E+00 0. -1.
     999902    2    1    2    0    0  0.35298330818E-02  0.19950751935E-01  0.10211583633E-01  0.10212414861E+01  0.10209894241E+01 0.  0.
     999903    2    3    3    0    0  0.82325544931E-01 -0.33225245786E-01 -0.92979120342E-01  0.13012714305E+00  0.20162942067E-01 0.  0.
         14    1    1    2    0    0 -0.35298330818E-02 -0.19950751935E-01 -0.10211583633E-01  0.22688513936E-01  0.00000000000E+00 0. -1.
     999901    1    3    3    0    0 -0.78795711849E-01  0.53175997720E-01  0.10319070398E+00  0.89111434301E+00  0.88000000000E+00 0.  1.
        -11    1    4    4    0    0  0.26811652295E-01 -0.12933821150E-01 -0.45192953164E-01  0.54118504830E-01  0.51100000000E-03 0. -1.
         11    1    4    4    0    0  0.55513892636E-01 -0.20291424635E-01 -0.47786167178E-01  0.76008638219E-01  0.51100000000E-03 0.  1.
</event>
<event>
 8    1  0.1081309E+005  0.1043930E+01  0.7957747E-01            NaN
         13   -1    0    0    0    0  0.00000000000E+00  0.00000000000E+00  0.74505805969E-08  0.10566000000E+00  0.10566000000E+00 0.  1.
     999900   -1    0    0    0    0 -0.00000000000E+00 -0.00000000000E+00 -0.74505805969E-08  0.93827000000E+00  0.93827000000E+00 0. -1.
     999902    2    1    2    0    0  0.18177609120E-03 -0.99742278058E-02  0.22425804827E-01  0.10193854490E+01  0.10190899168E+01 0.  0.
     999903    2    3    3    0    0  0.32909936467E-01  0.48324050748E-01 -0.11013379392E+00  0.12694953028E+00  0.23842249776E-01 0.  0.
         14    1    1    2    0    0 -0.18177609120E-03  0.99742278058E-02 -0.22425804827E-01  0.24544551025E-01  0.00000000000E+00 0. -1.
     999901    1    3    3    0    0 -0.32728160376E-01 -0.58298278554E-01  0.13255959875E+00  0.89243591870E+00  0.88000000000E+00 0.  1.
        -11    1    4    4    0    0  0.65592511154E-02  0.74083728485E-02 -0.42407138597E-01  0.43549216853E-01  0.51100000000E-03 0.  1.
         11    1    4    4    0    0  0.26350685352E-01  0.40915677900E-01 -0.67726655326E-01  0.83400313423E-01  0.51100000000E-03 0. -1.
</event>
<event>
 7    1  0.1081309E+005  0.1043930E+01  0.7957747E-01            NaN
         13   -1    0    0    0    0  0.00000000000E+00  0.00000000000E+00  0.74505805969E-08  0.10566000000E+00  0.10566000000E+00 0. -1.
     999900   -1    0    0    0    0 -0.00000000000E+00 -0.00000000000E+00 -0.74505805969E-08  0.93827000000E+00  0.93827000000E+00 0.  1.
     999903    2    1    2    0    0  0.10192120428E+00 -0.12039528083E-01  0.26158266527E-01  0.10799593449E+00  0.21118353175E-01 0.  0.
         14    1    1    2    0    0  0.12761435346E-01 -0.43992517145E-01  0.56731144960E-02  0.46156039962E-01  0.00000000000E+00 0.  1.
     999901    1    1    2    0    0 -0.11468263963E+00  0.56032045228E-01 -0.31831381023E-01  0.88977802554E+00  0.88000000000E+00 0.  1.
        -11    1    3    3    0    0  0.76290920949E-01 -0.17949875135E-01  0.17562714991E-01  0.80319441703E-01  0.51100000000E-03 0.  1.
         11    1    3    3    0    0  0.25630283332E-01  0.59103470524E-02  0.85955515364E-02  0.27676492790E-01  0.51100000000E-03 0. -1.
</event>
<event>
 8    1  0.1081309E+005  0.1043930E+01  0.7957747E-01            NaN
         13   -1    0    0    0    0  0.00000000000E+00  0.00000000000E+00  0.74505805969E-08  0.10566000000E+00  0.10566000000E+00 0. -1.
     999900   -1    0    0    0    0 -0.00000000000E+00 -0.00000000000E+00 -0.74505805969E-08  0.93827000000E+00  0.93827000000E+00 0. -1.
     999902    2    1    2    0    0  0.17492379151E-01  0.14138625178E-01  0.92140345857E-02  0.10196239826E+01  0.10193342353E+01 0.  0.
     999903    2    3    3    0    0  0.86584021277E-01  0.76453553586E-01  0.62740434783E-01  0.13310163043E+00  0.20922315117E-01 0.  0.
         14    1    1    2    0    0 -0.17492379151E-01 -0.14138625178E-01 -0.92140345857E-02  0.24306017437E-01  0.00000000000E+00 0.  1.
     999901    1    3    3    0    0 -0.69091642127E-01 -0.62314928408E-01 -0.53526400198E-01  0.88652235213E+00  0.88000000000E+00 0. -1.
        -11    1    4    4    0    0  0.63874440155E-01  0.57549949663E-01  0.56549390676E-01  0.10290789823E+00  0.51100000000E-03 0.  1.
         11    1    4    4    0    0  0.22709581122E-01  0.18903603923E-01  0.61910441077E-02  0.30193732200E-01  0.51100000000E-03 0. -1.
</event>
<event>
 8    1  0.1081309E+005  0.1043930E+01  0.7957747E-01            NaN
         13   -1    0    0    0    0  0.00000000000E+00  0.00000000000E+00  0.74505805969E-08  0.10566000000E+00  0.10566000000E+00 0.  1.
     999900   -1    0    0    0    0 -0.00000000000E+00 -0.00000000000E+00 -0.74505805969E-08  0.93827000000E+00  0.93827000000E+00 0. -1.
     999902    2    1    2    0    0 -0.21527039543E-01  0.10434195067E-01  0.17104024196E-02  0.10199464362E+01  0.10196644160E+01 0.  0.
     999903    2    3    3    0    0 -0.49267644849E-01  0.12328656672E-01  0.11978995914E+00  0.13162447207E+00  0.19901525864E-01 0.  0.
         14    1    1    2    0    0  0.21527039543E-01 -0.10434195067E-01 -0.17104024196E-02  0.23983563843E-01  0.00000000000E+00 0. -1.
     999901    1    3    3    0    0  0.27740605306E-01 -0.18944616050E-02 -0.11807955672E+00  0.88832196409E+00  0.88000000000E+00 0. -1.
        -11    1    4    4    0    0 -0.27990130485E-01  0.16776309131E-01  0.66779765901E-01  0.74328259817E-01  0.51100000000E-03 0. -1.
         11    1    4    4    0    0 -0.21277514364E-01 -0.44476524590E-02  0.53010193240E-01  0.57296212251E-01  0.51100000000E-03 0.  1.
</event>
<event>
 8    1  0.1081309E+005  0.1043930E+01  0.7957747E-01            NaN
         13   -1    0    0    0    0  0.00000000000E+00  0.00000000000E+00  0.74505805969E-08  0.10566000000E+00  0.10566000000E+00 0. -1.
     999900   -1    0    0    0    0 -0.00000000000E+00 -0.00000000000E+00 -0.74505805969E-08  0.93827000000E+00  0.93827000000E+00 0.  1.
     999902    2    1    2    0    0  0.73262540821E-02 -0.15025066532E-01 -0.16533630574E-01  0.10204185653E+01  0.10201476662E+01 0.  0.
     999903    2    3    3    0    0 -0.25532886342E-01  0.11019406619E+00  0.57175663120E-01  0.12789819335E+00  0.17153160055E-01 0.  0.
         14    1    1    2    0    0 -0.73262540821E-02  0.15025066532E-01  0.16533630574E-01  0.23511434732E-01  0.00000000000E+00 0. -1.
     999901    1    3    3    0    0  0.32859140425E-01 -0.12521913273E+00 -0.73709293695E-01  0.89252037192E+00  0.88000000000E+00 0.  1.
        -11    1    4    4    0    0 -0.62804198443E-02  0.62111915642E-01  0.34812424124E-01  0.71480764773E-01  0.51100000000E-03 0.  1.
         11    1    4    4    0    0 -0.19252466498E-01  0.48082150552E-01  0.22363238997E-01  0.56417428579E-01  0.51100000000E-03 0. -1.
</event>
<event>
 8    1  0.1081309E+005  0.1043930E+01  0.7957747E-01            NaN
         13   -1    0    0    0    0  0.00000000000E+00  0.00000000000E+00  0.74505805969E-08  0.10566000000E+00  0.10566000000E+00 0. -1.
     999900   -1    0    0    0    0 -0.00000000000E+00 -0.00000000000E+00 -0.74505805969E-08  0.93827000000E+00  0.93827000000E+00 0. -1.
     999902    2    1    2    0    0  0.11088965439E-01  0.39344727029E-02 -0.20269063367E-01  0.10204932733E+01  0.10202241129E+01 0.  0.
     999903    2    3    3    0    0 -0.10780452254E-01 -0.89505359068E-01  0.89271608181E-01  0.12852442162E+00  0.20534835599E-01 0.  0.
         14    1    1    2    0    0 -0.11088965439E-01 -0.39344727029E-02  0.20269063367E-01  0.23436726728E-01  0.00000000000E+00 0.  1.
     999901    1    3    3    0    0  0.21869417693E-01  0.93439831771E-01 -0.10954067155E+00  0.89196885165E+00  0.88000000000E+00 0. -1.
        -11    1    4    4    0    0 -0.93267392077E-02 -0.66216999300E-01  0.77569869705E-01  0.10241594050E+00  0.51100000000E-03 0.  1.
         11    1    4    4    0    0 -0.14537130461E-02 -0.23288359768E-01  0.11701738476E-01  0.26108481126E-01  0.51100000000E-03 0. -1.
</event>
<event>
 8    1  0.1081309E+005  0.1043930E+01  0.7957747E-01            NaN
         13   -1    0    0    0    0  0.00000000000E+00  0.00000000000E+00  0.74505805969E-08  0.10566000000E+00  0.10566000000E+00 0.  1.
     999900   -1    0    0    0    0 -0.00000000000E+00 -0.00000000000E+00 -0.74505805969E-08  0.93827000000E+00  0.93827000000E+00 0.  1.
     999902    2    1    2    0    0  0.18418680504E-01 -0.92602849917E-02  0.18877082542E-01  0.10159774524E+01  0.10155928510E+01 0.  0.
     999903    2    3    3    0    0  0.28448958325E-01 -0.33344089708E-01  0.12018988378E+00  0.12978056697E+00  0.21822370470E-01 0.  0.
         14    1    1    2    0    0 -0.18418680504E-01  0.92602849917E-02 -0.18877082542E-01  0.27952547557E-01  0.00000000000E+00 0. -1.
     999901    1    3    3    0    0 -0.10030277820E-01  0.24083804717E-01 -0.10131280124E+00  0.88619688547E+00  0.88000000000E+00 0. -1.
        -11    1    4    4    0    0  0.24277466829E-01 -0.13627549226E-01  0.56726990221E-01  0.63192705545E-01  0.51100000000E-03 0.  1.
         11    1    4    4    0    0  0.41714914956E-02 -0.19716540482E-01  0.63462893557E-01  0.66587861427E-01  0.51100000000E-03 0. -1.
</event>
<event>
 8    1  0.1081309E+005  0.1043930E+01  0.7957747E-01            NaN
         13   -1    0    0    0    0  0.00000000000E+00  0.00000000000E+00  0.74505805969E-08  0.10566000000E+00  0.10566000000E+00 0. -1.
     999900   -1    0    0    0    0 -0.00000000000E+00 -0.00000000000E+00 -0.74505805969E-08  0.93827000000E+00  0.93827000000E+00 0. -1.
     999902    2    1    2    0    0 -0.20092127286E-01 -0.59662572577E-02 -0.13323869221E-01  0.10190942335E+01  0.10187915594E+01 0.  0.
     999903    2    3    3    0    0 -0.53402475690E-01 -0.10616101326E+00 -0.53580918625E-01  0.13186867120E+00  0.19910963254E-01 0.  0.
         14    1    1    2    0    0  0.20092127286E-01  0.59662572577E-02  0.13323869221E-01  0.24835766458E-01  0.00000000000E+00 0. -1.
     999901    1    3    3    0    0  0.33310348404E-01  0.10019475600E+00  0.40257049404E-01  0.88722556234E+00  0.88000000000E+00 0.  1.
        -11    1    4    4    0    0 -0.86575176874E-02 -0.37110558992E-01 -0.19475289968E-01  0.42798297180E-01  0.51100000000E-03 0.  1.
         11    1    4    4    0    0 -0.44744958003E-01 -0.69050454269E-01 -0.34105628657E-01  0.89070374022E-01  0.51100000000E-03 0. -1.
</event>
<event>
 8    1  0.1081309E+005  0.1043930E+01  0.7957747E-01            NaN
         13   -1    0    0    0    0  0.00000000000E+00  0.00000000000E+00  0.74505805969E-08  0.10566000000E+00  0.10566000000E+00 0.  1.
     999900   -1    0    0    0    0 -0.00000000000E+00 -0.00000000000E+00 -0.74505805969E-08  0.93827000000E+00  0.93827000000E+00 0. -1.
     999902    2    1    2    0    0 -0.11658680702E-01  0.18575960204E-01  0.83343444248E-02  0.10204682773E+01  0.10201985359E+01 0.  0.
     999903    2    3    3    0    0  0.27858382054E-02 -0.10068035587E+00  0.78844756995E-01  0.12951236859E+00  0.20314107415E-01 0.  0.
         14    1    1    2    0    0  0.11658680702E-01 -0.18575960204E-01 -0.83343444248E-02  0.23461722660E-01  0.00000000000E+00 0. -1.
     999901    1    3    3    0    0 -0.14444518907E-01  0.11925631607E+00 -0.70510412571E-01  0.89095590875E+00  0.88000000000E+00 0. -1.
        -11    1    4    4    0    0  0.65030487852E-02 -0.21888026372E-01  0.25785925931E-01  0.34446341447E-01  0.51100000000E-03 0.  1.
         11    1    4    4    0    0 -0.37172105798E-02 -0.78792329499E-01  0.53058831064E-01  0.95066027146E-01  0.51100000000E-03 0. -1.
</event>
<event>
 8    1  0.1081309E+005  0.1043930E+01  0.7957747E-01            NaN
         13   -1    0    0    0    0  0.00000000000E+00  0.00000000000E+00  0.74505805969E-08  0.10566000000E+00  0.10566000000E+00 0. -1.
     999900   -1    0    0    0    0 -0.00000000000E+00 -0.00000000000E+00 -0.74505805969E-08  0.93827000000E+00  0.93827000000E+00 0. -1.
     999902    2    1    2    0    0  0.75484257002E-02  0.19769369798E-01 -0.13422941563E-01  0.10188704295E+01  0.10185622073E+01 0.  0.
     999903    2    3    3    0    0  0.29173974920E-01 -0.41114212989E-01 -0.11796012423E+00  0.13033089883E+00  0.23022879011E-01 0.  0.
         14    1    1    2    0    0 -0.75484257002E-02 -0.19769369798E-01  0.13422941563E-01  0.25059570486E-01  0.00000000000E+00 0. -1.
     999901    1    3    3    0    0 -0.21625549220E-01  0.60883582787E-01  0.10453718267E+00  0.88853953069E+00  0.88000000000E+00 0. -1.
        -11    1    4    4    0    0  0.29327547545E-01 -0.23147326523E-01 -0.76275972967E-01  0.84936381741E-01  0.51100000000E-03 0.  1.
         11    1    4    4    0    0 -0.15357262479E-03 -0.17966886466E-01 -0.41684151265E-01  0.45394517087E-01  0.51100000000E-03 0. -1.
</event>
<event>
 8    1  0.1081309E+005  0.1043930E+01  0.7957747E-01            NaN
         13   -1    0    0    0    0  0.00000000000E+00  0.00000000000E+00  0.74505805969E-08  0.10566000000E+00  0.10566000000E+00 0.  1.
     999900   -1    0    0    0    0 -0.00000000000E+00 -0.00000000000E+00 -0.74505805969E-08  0.93827000000E+00  0.93827000000E+00 0. -1.
     999902    2    1    2    0    0 -0.82205361980E-02 -0.21762801143E-01  0.18990953740E-05  0.10206663646E+01  0.10204012108E+01 0.  0.
     999903    2    3    3    0    0  0.45636174738E-01 -0.11426590165E+00  0.46507975814E-01  0.13296135498E+00  0.19400344806E-01 0.  0.
         14    1    1    2    0    0  0.82205361980E-02  0.21762801143E-01 -0.18990953740E-05  0.23263635412E-01  0.00000000000E+00 0.  1.
     999901    1    3    3    0    0 -0.53856710936E-01  0.92503100506E-01 -0.46506076719E-01  0.88770500961E+00  0.88000000000E+00 0.  1.
        -11    1    4    4    0    0  0.44943917293E-01 -0.93272674072E-01  0.39400753208E-01  0.11078099072E+00  0.51100000000E-03 0.  1.
         11    1    4    4    0    0  0.69225744516E-03 -0.20993227577E-01  0.71072226062E-02  0.22180364259E-01  0.51100000000E-03 0. -1.
</event>
<event>
 8    1  0.1081309E+005  0.1043930E+01  0.7957747E-01            NaN
         13   -1    0    0    0    0  0.00000000000E+00  0.00000000000E+00  0.74505805969E-08  0.10566000000E+00  0.10566000000E+00 0. -1.
     999900   -1    0    0    0    0 -0.00000000000E+00 -0.00000000000E+00 -0.74505805969E-08  0.93827000000E+00  0.93827000000E+00 0. -1.
     999902    2    1    2    0    0 -0.98908063945E-02  0.20999044633E-01 -0.48705509944E-02  0.10202127026E+01  0.10199369826E+01 0.  0.
     999903    2    3    3    0    0 -0.66904037146E-01  0.90214518673E-02 -0.11153925083E+00  0.13185906657E+00  0.19704623340E-01 0.  0.
         14    1    1    2    0    0  0.98908063945E-02 -0.20999044633E-01  0.48705509944E-02  0.23717297350E-01  0.00000000000E+00 0.  1.
     999901    1    3    3    0    0  0.57013230751E-01  0.11977592765E-01  0.10666869984E+00  0.88835363608E+00  0.88000000000E+00 0.  1.
        -11    1    4    4    0    0 -0.30638150609E-01  0.46085720120E-02 -0.33175173106E-01  0.45395907749E-01  0.51100000000E-03 0.  1.
         11    1    4    4    0    0 -0.36265886537E-01  0.44128798553E-02 -0.78364077724E-01  0.86463158822E-01  0.51100000000E-03 0. -1.
</event>
<event>
 8    1  0.1081309E+005  0.1043930E+01  0.7957747E-01            NaN
         13   -1    0    0    0    0  0.00000000000E+00  0.00000000000E+00  0.74505805969E-08  0.10566000000E+00  0.10566000000E+00 0.  1.
     999900   -1    0    0    0    0 -0.00000000000E+00 -0.00000000000E+00 -0.74505805969E-08  0.93827000000E+00  0.93827000000E+00 0.  1.
     999902    2    1    2    0    0 -0.51955444765E-02  0.18158509755E-02 -0.23369941638E-01  0.10199207274E+01  0.10196380951E+01 0.  0.
     999903    2    3    3    0    0 -0.16830323884E-01 -0.11143899250E+00  0.58524933333E-01  0.12881534746E+00  0.21594375884E-01 0.  0.
         14    1    1    2    0    0  0.51955444765E-02 -0.18158509755E-02  0.23369941638E-01  0.24009272569E-01  0.00000000000E+00 0.  1.
     999901    1    3    3    0    0  0.11634779407E-01  0.11325484347E+00 -0.81894874971E-01  0.89110537997E+00  0.88000000000E+00 0. -1.
        -11    1    4    4    0    0 -0.28250528080E-02 -0.75760770436E-01  0.45016797408E-01  0.88172832723E-01  0.51100000000E-03 0.  1.
         11    1    4    4    0    0 -0.14005271076E-01 -0.35678222059E-01  0.13508135925E-01  0.40642514740E-01  0.51100000000E-03 0. -1.
</event>
<event>
 8    1  0.1081309E+005  0.1043930E+01  0.7957747E-01            NaN
         13   -1    0    0    0    0  0.00000000000E+00  0.00000000000E+00  0.74505805969E-08  0.10566000000E+00  0.10566000000E+00 0. -1.
     999900   -1    0    0    0    0 -0.00000000000E+00 -0.00000000000E+00 -0.74505805969E-08  0.93827000000E+00  0.93827000000E+00 0.  1.
     999902    2    1    2    0    0  0.21666229981E-01  0.56471056126E-02  0.91047098950E-02  0.10197595415E+01  0.10194730557E+01 0.  0.
     999903    2    3    3    0    0  0.30005450452E-01 -0.63111789828E-01  0.10959454097E+00  0.13133648096E+00  0.18838331876E-01 0.  0.
         14    1    1    2    0    0 -0.21666229981E-01 -0.56471056126E-02 -0.91047098950E-02  0.24170458532E-01  0.00000000000E+00 0.  1.
     999901    1    3    3    0    0 -0.83392204708E-02  0.68758895441E-01 -0.10048983107E+00  0.88842306051E+00  0.88000000000E+00 0.  1.
        -11    1    4    4    0    0  0.23422389471E-01 -0.33721451990E-01  0.51208382515E-01  0.65637673737E-01  0.51100000000E-03 0.  1.
         11    1    4    4    0    0  0.65830609812E-02 -0.29390337838E-01  0.58386158452E-01  0.65698807219E-01  0.51100000000E-03 0. -1.
</event>
<event>
 8    1  0.1081309E+005  0.1043930E+01  0.7957747E-01            NaN
         13   -1    0    0    0    0  0.00000000000E+00  0.00000000000E+00  0.74505805969E-08  0.10566000000E+00  0.10566000000E+00 0. -1.
     999900   -1    0    0    0    0 -0.00000000000E+00 -0.00000000000E+00 -0.74505805969E-08  0.93827000000E+00  0.93827000000E+00 0.  1.
     999902    2    1    2    0    0  0.53323645241E-03 -0.17981562068E-01 -0.15350379249E-01  0.10202814259E+01  0.10200073200E+01 0.  0.
     999903    2    3    3    0    0 -0.12607519593E+00 -0.68764968149E-02 -0.28351355599E-01  0.13105589597E+00  0.20726969579E-01 0.  0.
         14    1    1    2    0    0 -0.53323645241E-03  0.17981562068E-01  0.15350379249E-01  0.23648574134E-01  0.00000000000E+00 0.  1.
     999901    1    3    3    0    0  0.12660843238E+00 -0.11105065253E-01  0.13000976351E-01  0.88922552989E+00  0.88000000000E+00 0.  1.
        -11    1    4    4    0    0 -0.92339424789E-01  0.38448621502E-02 -0.23125335586E-01  0.95270113899E-01  0.51100000000E-03 0. -1.
         11    1    4    4    0    0 -0.33735771141E-01 -0.10721358965E-01 -0.52260200131E-02  0.35785782075E-01  0.51100000000E-03 0.  1.
</event>
<event>
 8    1  0.1081309E+005  0.1043930E+01  0.7957747E-01            NaN
         13   -1    0    0    0    0  0.00000000000E+00  0.00000000000E+00  0.74505805969E-08  0.10566000000E+00  0.10566000000E+00 0. -1.
     999900   -1    0    0    0    0 -0.00000000000E+00 -0.00000000000E+00 -0.74505805969E-08  0.93827000000E+00  0.93827000000E+00 0.  1.
     999902    2    1    2    0    0  0.13138421835E-01 -0.24935591577E-01 -0.14558689295E-01  0.10122068651E+01  0.10117096325E+01 0.  0.
     999903    2    3    3    0    0 -0.16209169776E-01 -0.86883873573E-01 -0.88200945173E-01  0.12647437011E+00  0.20120012286E-01 0.  0.
         14    1    1    2    0    0 -0.13138421835E-01  0.24935591577E-01  0.14558689295E-01  0.31723134927E-01  0.00000000000E+00 0. -1.
     999901    1    3    3    0    0  0.29347591611E-01  0.61948281996E-01  0.73642255878E-01  0.88573249496E+00  0.88000000000E+00 0. -1.
        -11    1    4    4    0    0 -0.57819142301E-02 -0.49593336010E-01 -0.36363435665E-01  0.61769653416E-01  0.51100000000E-03 0.  1.
         11    1    4    4    0    0 -0.10427255546E-01 -0.37290537563E-01 -0.51837509508E-01  0.64704716698E-01  0.51100000000E-03 0. -1.
</event>
<event>
 8    1  0.1081309E+005  0.1043930E+01  0.7957747E-01            NaN
         13   -1    0    0    0    0  0.00000000000E+00  0.00000000000E+00  0.74505805969E-08  0.10566000000E+00  0.10566000000E+00 0. -1.
     999900   -1    0    0    0    0 -0.00000000000E+00 -0.00000000000E+00 -0.74505805969E-08  0.93827000000E+00  0.93827000000E+00 0. -1.
     999902    2    1    2    0    0  0.13524582637E-01  0.18935737377E-01 -0.48381653857E-02  0.10201627046E+01  0.10198858071E+01 0.  0.
     999903    2    3    3    0    0 -0.83677290567E-01 -0.50047019583E-01  0.79085548488E-01  0.12817054397E+00  0.25818040888E-01 0.  0.
         14    1    1    2    0    0 -0.13524582637E-01 -0.18935737377E-01  0.48381653857E-02  0.23767295382E-01  0.00000000000E+00 0. -1.
     999901    1    3    3    0    0  0.97201873204E-01  0.68982756960E-01 -0.83923713874E-01  0.89199216065E+00  0.88000000000E+00 0.  1.
        -11    1    4    4    0    0 -0.53404516794E-01 -0.17025488343E-01  0.44655342634E-01  0.71667778074E-01  0.51100000000E-03 0. -1.
         11    1    4    4    0    0 -0.30272773773E-01 -0.33021531240E-01  0.34430205854E-01  0.56502765892E-01  0.51100000000E-03 0.  1.
</event>
<event>
 8    1  0.1081309E+005  0.1043930E+01  0.7957747E-01            NaN
         13   -1    0    0    0    0  0.00000000000E+00  0.00000000000E+00  0.74505805969E-08  0.10566000000E+00  0.10566000000E+00 0.  1.
     999900   -1    0    0    0    0 -0.00000000000E+00 -0.00000000000E+00 -0.74505805969E-08  0.93827000000E+00  0.93827000000E+00 0. -1.
     999902    2    1    2    0    0  0.18903133624E-01 -0.18091308106E-03  0.14060859312E-01  0.10203700986E+01  0.10200980684E+01 0.  0.
     999903    2    3    3    0    0  0.11479034042E+00 -0.57227551790E-01 -0.28109001067E-01  0.13232338104E+00  0.16356842351E-01 0.  0.
         14    1    1    2    0    0 -0.18903133624E-01  0.18091308106E-03 -0.14060859312E-01  0.23559901420E-01  0.00000000000E+00 0. -1.
     999901    1    3    3    0    0 -0.95887206792E-01  0.57046638709E-01  0.42169860378E-01  0.88804671754E+00  0.88000000000E+00 0.  1.
        -11    1    4    4    0    0  0.27981432092E-01 -0.22040273760E-01 -0.70195366565E-02  0.36307977432E-01  0.51100000000E-03 0. -1.
         11    1    4    4    0    0  0.86808908323E-01 -0.35187278030E-01 -0.21089464410E-01  0.96015403605E-01  0.51100000000E-03 0.  1.
</event>
<event>
 8    1  0.1081309E+005  0.1043930E+01  0.7957747E-01            NaN
         13   -1    0    0    0    0  0.00000000000E+00  0.00000000000E+00  0.74505805969E-08  0.10566000000E+00  0.10566000000E+00 0.  1.
     999900   -1    0    0    0    0 -0.00000000000E+00 -0.00000000000E+00 -0.74505805969E-08  0.93827000000E+00  0.93827000000E+00 0. -1.
     999902    2    1    2    0    0  0.12654814269E-02 -0.86441487983E-02  0.21213017732E-01  0.10209884466E+01  0.10207306663E+01 0.  0.
     999903    2    3    3    0    0  0.11520534842E+00 -0.37826237145E-01  0.50207680092E-01  0.13268974794E+00  0.19561736849E-01 0.  0.
         14    1    1    2    0    0 -0.12654814269E-02  0.86441487983E-02 -0.21213017732E-01  0.22941553413E-01  0.00000000000E+00 0. -1.
     999901    1    3    3    0    0 -0.11393986699E+00  0.29182088346E-01 -0.28994662360E-01  0.88829869865E+00  0.88000000000E+00 0.  1.
        -11    1    4    4    0    0  0.88716209201E-01 -0.35583626396E-01  0.33503605414E-01  0.10128925382E+00  0.51100000000E-03 0. -1.
         11    1    4    4    0    0  0.26489139214E-01 -0.22426107486E-02  0.16704074678E-01  0.31400494123E-01  0.51100000000E-03 0.  1.
</event>
<event>
 8    1  0.1081309E+005  0.1043930E+01  0.7957747E-01            NaN
         13   -1    0    0    0    0  0.00000000000E+00  0.00000000000E+00  0.74505805969E-08  0.10566000000E+00  0.10566000000E+00 0. -1.
     999900   -1    0    0    0    0 -0.00000000000E+00 -0.00000000000E+00 -0.74505805969E-08  0.93827000000E+00  0.93827000000E+00 0.  1.
     999902    2    1    2    0    0 -0.95589330396E-02  0.20762691695E-01  0.60748435344E-02  0.10202790742E+01  0.10200049132E+01 0.  0.
     999903    2    3    3    0    0 -0.33561082925E-01 -0.77048306769E-01  0.96678066024E-01  0.12991283576E+00  0.21631194676E-01 0.  0.
         14    1    1    2    0    0  0.95589330396E-02 -0.20762691695E-01 -0.60748435344E-02  0.23650925801E-01  0.00000000000E+00 0.  1.
     999901    1    3    3    0    0  0.24002149885E-01  0.97810998463E-01 -0.90603222490E-01  0.89036623844E+00  0.88000000000E+00 0.  1.
        -11    1    4    4    0    0 -0.34197613578E-01 -0.62054341291E-01  0.86292158305E-01  0.11165489579E+00  0.51100000000E-03 0. -1.
         11    1    4    4    0    0  0.63653065349E-03 -0.14993965478E-01  0.10385907719E-01  0.18257939976E-01  0.51100000000E-03 0.  1.
</event>
<event>
 8    1  0.1081309E+005  0.1043930E+01  0.7957747E-01            NaN
         13   -1    0    0    0    0  0.00000000000E+00  0.00000000000E+00  0.74505805969E-08  0.10566000000E+00  0.10566000000E+00 0.  1.
     999900   -1    0    0    0    0 -0.00000000000E+00 -0.00000000000E+00 -0.74505805969E-08  0.93827000000E+00  0.93827000000E+00 0.  1.
     999902    2    1    2    0    0 -0.68537039305E-02 -0.19837112587E-01 -0.10497429613E-01  0.10204634212E+01  0.10201935667E+01 0.  0.
     999903    2    3    3    0    0 -0.36673481668E-01 -0.93449226226E-01  0.83490562414E-01  0.13190182789E+00  0.18700696448E-01 0.  0.
         14    1    1    2    0    0  0.68537039305E-02  0.19837112587E-01  0.10497429613E-01  0.23466578827E-01  0.00000000000E+00 0.  1.
     999901    1    3    3    0    0  0.29819777737E-01  0.73612113639E-01 -0.93987992027E-01  0.88856159329E+00  0.88000000000E+00 0.  1.
        -11    1    4    4    0    0 -0.27666538699E-01 -0.50292570153E-01  0.54365227400E-01  0.79060856607E-01  0.51100000000E-03 0. -1.
         11    1    4    4    0    0 -0.90069429689E-02 -0.43156656073E-01  0.29125335014E-01  0.52840971279E-01  0.51100000000E-03 0.  1.
</event>
<event>
 8    1  0.1081309E+005  0.1043930E+01  0.7957747E-01            NaN
         13   -1    0    0    0    0  0.00000000000E+00  0.00000000000E+00  0.74505805969E-08  0.10566000000E+00  0.10566000000E+00 0. -1.
     999900   -1    0    0    0    0 -0.00000000000E+00 -0.00000000000E+00 -0.74505805969E-08  0.93827000000E+00  0.93827000000E+00 0. -1.
     999902    2    1    2    0    0  0.85149779935E-02 -0.77459368095E-04 -0.22169314088E-01  0.10201815403E+01  0.10199050867E+01 0.  0.
     999903    2    3    3    0    0  0.72702857012E-01 -0.35953096868E-01 -0.10403769231E+00  0.13332778883E+00  0.19342369535E-01 0.  0.
         14    1    1    2    0    0 -0.85149779935E-02  0.77459368095E-04  0.22169314088E-01  0.23748459683E-01  0.00000000000E+00 0. -1.
     999901    1    3    3    0    0 -0.64187879019E-01  0.35875637500E-01  0.81868378226E-01  0.88685375149E+00  0.88000000000E+00 0.  1.
        -11    1    4    4    0    0  0.27973118058E-01 -0.18815228645E-01 -0.56789150412E-01  0.66043749806E-01  0.51100000000E-03 0. -1.
         11    1    4    4    0    0  0.44729738954E-01 -0.17137868223E-01 -0.47248541902E-01  0.67284039021E-01  0.51100000000E-03 0.  1.
</event>
<event>
 8    1  0.1081309E+005  0.1043930E+01  0.7957747E-01            NaN
         13   -1    0    0    0    0  0.00000000000E+00  0.00000000000E+00  0.74505805969E-08  0.10566000000E+00  0.10566000000E+00 0.  1.
     999900   -1    0    0    0    0 -0.00000000000E+00 -0.00000000000E+00 -0.74505805969E-08  0.93827000000E+00  0.93827000000E+00 0.  1.
     999902    2    1    2    0    0 -0.21589987326E-01 -0.57100682398E-02  0.13529535507E-02  0.10215567366E+01  0.10213117072E+01 0.  0.
     999903    2    3    3    0    0  0.10088965311E+00  0.77090292002E-01 -0.11610136781E-01  0.12913015492E+00  0.20449117530E-01 0.  0.
         14    1    1    2    0    0  0.21589987326E-01  0.57100682398E-02 -0.13529535507E-02  0.22373263404E-01  0.00000000000E+00 0.  1.
     999901    1    3    3    0    0 -0.12247964043E+00 -0.82800360242E-01  0.12963090332E-01  0.89242658168E+00  0.88000000000E+00 0.  1.
        -11    1    4    4    0    0  0.61152842971E-01  0.54017717982E-01  0.54471015220E-03  0.81597438009E-01  0.51100000000E-03 0.  1.
         11    1    4    4    0    0  0.39736810136E-01  0.23072574020E-01 -0.12154846934E-01  0.47532716908E-01  0.51100000000E-03 0. -1.
</event>
<event>
 8    1  0.1081309E+005  0.1043930E+01  0.7957747E-01            NaN
         13   -1    0    0    0    0  0.00000000000E+00  0.00000000000E+00  0.74505805969E-08  0.10566000000E+00  0.10566000000E+00 0. -1.
     999900   -1    0    0    0    0 -0.00000000000E+00 -0.00000000000E+00 -0.74505805969E-08  0.93827000000E+00  0.93827000000E+00 0.  1.
     999902    2    1    2    0    0 -0.21648508607E-01  0.84179726523E-02 -0.39292016930E-02  0.10203724362E+01  0.10201004606E+01 0.  0.
     999903    2    3    3    0    0 -0.53935625367E-01 -0.10683824850E+00 -0.49035109319E-01  0.13112500302E+00  0.21583823701E-01 0.  0.
         14    1    1    2    0    0  0.21648508607E-01 -0.84179726523E-02  0.39292016930E-02  0.23557563848E-01  0.00000000000E+00 0. -1.
     999901    1    3    3    0    0  0.32287116760E-01  0.11525622115E+00  0.45105907626E-01  0.88924743313E+00  0.88000000000E+00 0. -1.
        -11    1    4    4    0    0 -0.30461586807E-02 -0.18346293473E-01 -0.19484306504E-02  0.18706230778E-01  0.51100000000E-03 0.  1.
         11    1    4    4    0    0 -0.50889466686E-01 -0.88491955028E-01 -0.47086678669E-01  0.11241877225E+00  0.51100000000E-03 0. -1.
</event>
<event>
 8    1  0.1081309E+005  0.1043930E+01  0.7957747E-01            NaN
         13   -1    0    0    0    0  0.00000000000E+00  0.00000000000E+00  0.74505805969E-08  0.10566000000E+00  0.10566000000E+00 0. -1.
     999900   -1    0    0    0    0 -0.00000000000E+00 -0.00000000000E+00 -0.74505805969E-08  0.93827000000E+00  0.93827000000E+00 0. -1.
     999902    2    1    2    0    0  0.15888912047E-01 -0.16104510558E-01 -0.75937057657E-02  0.10200662796E+01  0.10197871040E+01 0.  0.
     999903    2    3    3    0    0 -0.45849295760E-01 -0.88601091270E-01 -0.83476286575E-01  0.13168261998E+00  0.20486841858E-01 0.  0.
         14    1    1    2    0    0 -0.15888912047E-01  0.16104510558E-01  0.75937057657E-02  0.23863720448E-01  0.00000000000E+00 0. -1.
     999901    1    3    3    0    0  0.61738207807E-01  0.72496580712E-01  0.75882580810E-01  0.88838365957E+00  0.88000000000E+00 0.  1.
        -11    1    4    4    0    0 -0.43921342515E-01 -0.71848326377E-01 -0.75156209716E-01  0.11287153455E+00  0.51100000000E-03 0.  1.
         11    1    4    4    0    0 -0.19279532444E-02 -0.16752764893E-01 -0.83200768596E-02  0.18811085434E-01  0.51100000000E-03 0. -1.
</event>
<event>
 8    1  0.1081309E+005  0.1043930E+01  0.7957747E-01            NaN
         13   -1    0    0    0    0  0.00000000000E+00  0.00000000000E+00  0.74505805969E-08  0.10566000000E+00  0.10566000000E+00 0. -1.
     999900   -1    0    0    0    0 -0.00000000000E+00 -0.00000000000E+00 -0.74505805969E-08  0.93827000000E+00  0.93827000000E+00 0.  1.
     999902    2    1    2    0    0  0.89634654426E-03  0.55564206483E-02 -0.23365215114E-01  0.10198964708E+01  0.10196132603E+01 0.  0.
     999903    2    3    3    0    0  0.66790261657E-01  0.54507450488E-01  0.93122786548E-01  0.12843269371E+00  0.19776304699E-01 0.  0.
         14    1    1    2    0    0 -0.89634654426E-03 -0.55564206483E-02  0.23365215114E-01  0.24033529181E-01  0.00000000000E+00 0. -1.
     999901    1    3    3    0    0 -0.65893915113E-01 -0.48951029840E-01 -0.11648800166E+00  0.89146377711E+00  0.88000000000E+00 0.  1.
        -11    1    4    4    0    0  0.75586281593E-02  0.14329018043E-01  0.11504853324E-01  0.19876528589E-01  0.51100000000E-03 0.  1.
         11    1    4    4    0    0  0.59231633498E-01  0.40178432446E-01  0.81617933223E-01  0.10855616512E+00  0.51100000000E-03 0. -1.
</event>
<event>
 8    1  0.1081309E+005  0.1043930E+01  0.7957747E-01            NaN
         13   -1    0    0    0    0  0.00000000000E+00  0.00000000000E+00  0.74505805969E-08  0.10566000000E+00  0.10566000000E+00 0. -1.
     999900   -1    0    0    0    0 -0.00000000000E+00 -0.00000000000E+00 -0.74505805969E-08  0.93827000000E+00  0.93827000000E+00 0. -1.
     999902    2    1    2    0    0 -0.98854083901E-02 -0.17275783246E-01 -0.12320431789E-01  0.10205213045E+01  0.10202527951E+01 0.  0.
     999903    2    3    3    0    0 -0.92563873703E-01  0.85209263122E-02  0.90611720739E-01  0.13029873296E+00  0.11251620995E-01 0.  0.
         14    1    1    2    0    0  0.98854083901E-02  0.17275783246E-01  0.12320431789E-01  0.23408695505E-01  0.00000000000E+00 0. -1.
     999901    1    3    3    0    0  0.82678465313E-01 -0.25796709558E-01 -0.10293215253E+00  0.89022257154E+00  0.88000000000E+00 0. -1.
        -11    1    4    4    0    0 -0.29142021808E-01  0.59737992480E-02  0.23403733256E-01  0.37854188195E-01  0.51100000000E-03 0. -1.
         11    1    4    4    0    0 -0.63421851895E-01  0.25471270642E-02  0.67207987482E-01  0.92444544763E-01  0.51100000000E-03 0.  1.
</event>
<event>
 8    1  0.1081309E+005  0.1043930E+01  0.7957747E-01            NaN
         13   -1    0    0    0    0  0.00000000000E+00  0.00000000000E+00  0.74505805969E-08  0.10566000000E+00  0.10566000000E+00 0.  1.
     999900   -1    0    0    0    0 -0.00000000000E+00 -0.00000000000E+00 -0.74505805969E-08  0.93827000000E+00  0.93827000000E+00 0.  1.
     999902    2    1    2    0    0 -0.16621714530E-01 -0.10443070116E-01  0.12147181335E-01  0.10208455221E+01  0.10205844829E+01 0.  0.
     999903    2    3    3    0    0  0.35594723543E-01 -0.12511959703E+00 -0.56658582158E-02  0.13169167339E+00  0.19715399712E-01 0.  0.
         14    1    1    2    0    0  0.16621714530E-01  0.10443070116E-01 -0.12147181335E-01  0.23084477939E-01  0.00000000000E+00 0. -1.
     999901    1    3    3    0    0 -0.52216438072E-01  0.11467652691E+00  0.17813039551E-01  0.88915384867E+00  0.88000000000E+00 0. -1.
        -11    1    4    4    0    0  0.10017047480E-01 -0.69760059403E-01 -0.56903430857E-02  0.70706776575E-01  0.51100000000E-03 0. -1.
         11    1    4    4    0    0  0.25577676063E-01 -0.55359537626E-01  0.24484869833E-04  0.60984896814E-01  0.51100000000E-03 0.  1.
</event>
<event>
 8    1  0.1081309E+005  0.1043930E+01  0.7957747E-01            NaN
         13   -1    0    0    0    0  0.00000000000E+00  0.00000000000E+00  0.74505805969E-08  0.10566000000E+00  0.10566000000E+00 0. -1.
     999900   -1    0    0    0    0 -0.00000000000E+00 -0.00000000000E+00 -0.74505805969E-08  0.93827000000E+00  0.93827000000E+00 0. -1.
     999902    2    1    2    0    0 -0.29697910244E-02  0.11746967549E-01 -0.20498088004E-01  0.10201186053E+01  0.10198406672E+01 0.  0.
     999903    2    3    3    0    0  0.37281974877E-01 -0.19517028447E-01  0.11888343409E+00  0.12769222134E+00  0.20029289574E-01 0.  0.
         14    1    1    2    0    0  0.29697910244E-02 -0.11746967549E-01  0.20498088004E-01  0.23811394691E-01  0.00000000000E+00 0.  1.
     999901    1    3    3    0    0 -0.40251765901E-01  0.31263995995E-01 -0.13938152209E+00  0.89242638397E+00  0.88000000000E+00 0. -1.
        -11    1    4    4    0    0  0.36833264838E-01 -0.22732643368E-01  0.11163427828E+00  0.11973276779E+00  0.51100000000E-03 0. -1.
         11    1    4    4    0    0  0.44871003836E-03  0.32156149216E-02  0.72491558008E-02  0.79594535521E-02  0.51100000000E-03 0.  1.
</event>
<event>
 8    1  0.1081309E+005  0.1043930E+01  0.7957747E-01            NaN
         13   -1    0    0    0    0  0.00000000000E+00  0.00000000000E+00  0.74505805969E-08  0.10566000000E+00  0.10566000000E+00 0. -1.
     999900   -1    0    0    0    0 -0.00000000000E+00 -0.00000000000E+00 -0.74505805969E-08  0.93827000000E+00  0.93827000000E+00 0. -1.
     999902    2    1    2    0    0 -0.25012783856E-03 -0.18914335318E-01 -0.13677108249E-01  0.10205873794E+01  0.10203204012E+01 0.  0.
     999903    2    3    3    0    0 -0.14030040477E-02  0.23948284896E-01  0.12479456405E+00  0.12872812072E+00  0.20536725118E-01 0.  0.
         14    1    1    2    0    0  0.25012783856E-03  0.18914335318E-01  0.13677108249E-01  0.23342620558E-01  0.00000000000E+00 0. -1.
     999901    1    3    3    0    0  0.11528762091E-02 -0.42862620215E-01 -0.13847167230E+00  0.89185925872E+00  0.88000000000E+00 0.  1.
        -11    1    4    4    0    0  0.49990325149E-02  0.23700885798E-01  0.83771488891E-01  0.87204620209E-01  0.51100000000E-03 0.  1.
         11    1    4    4    0    0 -0.64020365626E-02  0.24739909844E-03  0.41023075158E-01  0.41523500514E-01  0.51100000000E-03 0. -1.
</event>
<event>
 8    1  0.1081309E+005  0.1043930E+01  0.7957747E-01            NaN
         13   -1    0    0    0    0  0.00000000000E+00  0.00000000000E+00  0.74505805969E-08  0.10566000000E+00  0.10566000000E+00 0. -1.
     999900   -1    0    0    0    0 -0.00000000000E+00 -0.00000000000E+00 -0.74505805969E-08  0.93827000000E+00  0.93827000000E+00 0.  1.
     999902    2    1    2    0    0  0.21582710578E-01 -0.97011483693E-02  0.55878983228E-03  0.10202606544E+01  0.10199860612E+01 0.  0.
     999903    2    3    3    0    0  0.96282258658E-01 -0.87223753763E-01 -0.23222614480E-01  0.13338110675E+00  0.19312515672E-01 0.  0.
         14    1    1    2    0    0 -0.21582710578E-01  0.97011483693E-02 -0.55878983228E-03  0.23669345611E-01  0.00000000000E+00 0.  1.
     999901    1    3    3    0    0 -0.74699548080E-01  0.77522605394E-01  0.23781404312E-01  0.88687954764E+00  0.88000000000E+00 0. -1.
        -11    1    4    4    0    0  0.70447359653E-01 -0.59231790410E-01 -0.81089247401E-02  0.92397247030E-01  0.51100000000E-03 0. -1.
         11    1    4    4    0    0  0.25834899005E-01 -0.27991963353E-01 -0.15113689740E-01  0.40983859720E-01  0.51100000000E-03 0.  1.
</event>
<event>
 8    1  0.1081309E+005  0.1043930E+01  0.7957747E-01            NaN
         13   -1    0    0    0    0  0.00000000000E+00  0.00000000000E+00  0.74505805969E-08  0.10566000000E+00  0.10566000000E+00 0.  1.
     999900   -1    0    0    0    0 -0.00000000000E+00 -0.00000000000E+00 -0.74505805969E-08  0.93827000000E+00  0.93827000000E+00 0.  1.
     999902    2    1    2    0    0 -0.17944855658E-01 -0.89162162089E-02  0.10885381226E-01  0.10211263099E+01  0.10208716533E+01 0.  0.
     999903    2    3    3    0    0  0.36111158164E-01 -0.13759371851E-01 -0.12199230620E+00  0.12949746978E+00  0.19852854943E-01 0.  0.
         14    1    1    2    0    0  0.17944855658E-01  0.89162162089E-02 -0.10885381226E-01  0.22803690064E-01  0.00000000000E+00 0. -1.
     999901    1    3    3    0    0 -0.54056013822E-01  0.48431556423E-02  0.13287768743E+00  0.89162884016E+00  0.88000000000E+00 0. -1.
        -11    1    4    4    0    0  0.11245415340E-01  0.39446327006E-02 -0.23065785122E-01  0.25967500027E-01  0.51100000000E-03 0. -1.
         11    1    4    4    0    0  0.24865742824E-01 -0.17704004552E-01 -0.98926521077E-01  0.10352996975E+00  0.51100000000E-03 0.  1.
</event>
<event>
 8    1  0.1081309E+005  0.1043930E+01  0.7957747E-01            NaN
         13   -1    0    0    0    0  0.00000000000E+00  0.00000000000E+00  0.74505805969E-08  0.10566000000E+00  0.10566000000E+00 0.  1.
     999900   -1    0    0    0    0 -0.00000000000E+00 -0.00000000000E+00 -0.74505805969E-08  0.93827000000E+00  0.93827000000E+00 0. -1.
     999902    2    1    2    0    0 -0.57783916193E-02  0.21732934976E-01 -0.80165023822E-02  0.10200558595E+01  0.10197764373E+01 0.  0.
     999903    2    3    3    0    0  0.11780560618E+00 -0.44847131941E-01 -0.18409021739E-01  0.12886905854E+00  0.19465766778E-01 0.  0.
         14    1    1    2    0    0  0.57783916193E-02 -0.21732934976E-01  0.80165023822E-02  0.23874140462E-01  0.00000000000E+00 0.  1.
     999901    1    3    3    0    0 -0.12358399780E+00  0.66580066917E-01  0.10392519356E-01  0.89118680100E+00  0.88000000000E+00 0. -1.
        -11    1    4    4    0    0  0.88500519188E-01 -0.41921559252E-01 -0.16891865465E-01  0.99374822095E-01  0.51100000000E-03 0.  1.
         11    1    4    4    0    0  0.29305086989E-01 -0.29255726896E-02 -0.15171562739E-02  0.29494236440E-01  0.51100000000E-03 0. -1.
</event>
<event>
 8    1  0.1081309E+005  0.1043930E+01  0.7957747E-01            NaN
         13   -1    0    0    0    0  0.00000000000E+00  0.00000000000E+00  0.74505805969E-08  0.10566000000E+00  0.10566000000E+00 0.  1.
     999900   -1    0    0    0    0 -0.00000000000E+00 -0.00000000000E+00 -0.74505805969E-08  0.93827000000E+00  0.93827000000E+00 0. -1.
     999902    2    1    2    0    0 -0.57588756791E-02  0.11357514469E-01  0.23274406755E-01  0.10173997193E+01  0.10170537513E+01 0.  0.
     999903    2    3    3    0    0 -0.74278722045E-01 -0.11017781390E-01 -0.99091571793E-01  0.12601368850E+00  0.20532657714E-01 0.  0.
         14    1    1    2    0    0  0.57588756791E-02 -0.11357514469E-01 -0.23274406755E-01  0.26530280696E-01  0.00000000000E+00 0. -1.
     999901    1    3    3    0    0  0.68519846366E-01  0.22375295859E-01  0.12236597855E+00  0.89138603081E+00  0.88000000000E+00 0. -1.
        -11    1    4    4    0    0 -0.63946476108E-01 -0.87891565756E-02 -0.70804471731E-01  0.95811979512E-01  0.51100000000E-03 0.  1.
         11    1    4    4    0    0 -0.10332245937E-01 -0.22286248143E-02 -0.28287100063E-01  0.30201708985E-01  0.51100000000E-03 0. -1.
</event>
<event>
 8    1  0.1081309E+005  0.1043930E+01  0.7957747E-01            NaN
         13   -1    0    0    0    0  0.00000000000E+00  0.00000000000E+00  0.74505805969E-08  0.10566000000E+00  0.10566000000E+00 0.  1.
     999900   -1    0    0    0    0 -0.00000000000E+00 -0.00000000000E+00 -0.74505805969E-08  0.93827000000E+00  0.93827000000E+00 0.  1.
     999902    2    1    2    0    0  0.17666552219E-01  0.15599562406E-01  0.32469823190E-02  0.10201393231E+01  0.10198618741E+01 0.  0.
     999903    2    3    3    0    0  0.10813789531E+00  0.29073125448E-01 -0.68304041454E-01  0.13250981149E+00  0.18824373516E-01 0.  0.
         14    1    1    2    0    0 -0.17666552219E-01 -0.15599562406E-01 -0.32469823190E-02  0.23790676929E-01  0.00000000000E+00 0. -1.
     999901    1    3    3    0    0 -0.90471343088E-01 -0.13473563042E-01  0.71551023773E-01  0.88762951158E+00  0.88000000000E+00 0. -1.
        -11    1    4    4    0    0  0.52584051803E-01  0.18758642375E-01 -0.43603665053E-01  0.70841441931E-01  0.51100000000E-03 0. -1.
         11    1    4    4    0    0  0.55553843504E-01  0.10314483072E-01 -0.24700376400E-01  0.61668369562E-01  0.51100000000E-03 0.  1.
</event>
<event>
 8    1  0.1081309E+005  0.1043930E+01  0.7957747E-01            NaN
         13   -1    0    0    0    0  0.00000000000E+00  0.00000000000E+00  0.74505805969E-08  0.10566000000E+00  0.10566000000E+00 0. -1.
     999900   -1    0    0    0    0 -0.00000000000E+00 -0.00000000000E+00 -0.74505805969E-08  0.93827000000E+00  0.93827000000E+00 0. -1.
     999902    2    1    2    0    0  0.21172682565E-01  0.33965405683E-02 -0.80582076214E-03  0.10224714744E+01  0.10222462754E+01 0.  0.
     999903    2    3    3    0    0  0.11191868851E+00  0.31837342165E-01  0.65135862928E-01  0.13489498616E+00  0.20360929673E-01 0.  0.
         14    1    1    2    0    0 -0.21172682565E-01 -0.33965405683E-02  0.80582076214E-03  0.21458525624E-01  0.00000000000E+00 0.  1.
     999901    1    3    3    0    0 -0.90746005945E-01 -0.28440801596E-01 -0.65941683690E-01  0.88757648822E+00  0.88000000000E+00 0. -1.
        -11    1    4    4    0    0  0.19819740660E-01  0.12516935977E-01  0.78553680835E-02  0.24727792761E-01  0.51100000000E-03 0.  1.
         11    1    4    4    0    0  0.92098947850E-01  0.19320406188E-01  0.57280494844E-01  0.11016719340E+00  0.51100000000E-03 0. -1.
</event>
<event>
 7    1  0.1081309E+005  0.1043930E+01  0.7957747E-01            NaN
         13   -1    0    0    0    0  0.00000000000E+00  0.00000000000E+00  0.74505805969E-08  0.10566000000E+00  0.10566000000E+00 0. -1.
     999900   -1    0    0    0    0 -0.00000000000E+00 -0.00000000000E+00 -0.74505805969E-08  0.93827000000E+00  0.93827000000E+00 0. -1.
     999903    2    1    2    0    0  0.58240668954E-02  0.74466260816E-01  0.88129421176E-02  0.77769701799E-01  0.19781678748E-01 0.  0.
         14    1    1    2    0    0  0.27991534433E-01 -0.96713452532E-02 -0.75017878251E-01  0.80651986808E-01  0.00000000000E+00 0.  1.
     999901    1    1    2    0    0 -0.33815601328E-01 -0.64794915563E-01  0.66204936133E-01  0.88550831139E+00  0.88000000000E+00 0.  1.
        -11    1    3    3    0    0 -0.61136595494E-02  0.12040784976E-01 -0.55119920885E-03  0.13524876247E-01  0.51100000000E-03 0.  1.
         11    1    3    3    0    0  0.11937726445E-01  0.62425475840E-01  0.93641413264E-02  0.64244825553E-01  0.51100000000E-03 0. -1.
</event>
<event>
 8    1  0.1081309E+005  0.1043930E+01  0.7957747E-01            NaN
         13   -1    0    0    0    0  0.00000000000E+00  0.00000000000E+00  0.74505805969E-08  0.10566000000E+00  0.10566000000E+00 0. -1.
     999900   -1    0    0    0    0 -0.00000000000E+00 -0.00000000000E+00 -0.74505805969E-08  0.93827000000E+00  0.93827000000E+00 0. -1.
     999902    2    1    2    0    0 -0.14932770216E-01 -0.17657590288E-01 -0.42946125854E-02  0.10204093321E+01  0.10201382177E+01 0.  0.
     999903    2    3    3    0    0  0.24972448174E-01 -0.10580670068E+00  0.71812703620E-01  0.13184024886E+00  0.20152065430E-01 0.  0.
         14    1    1    2    0    0  0.14932770216E-01  0.17657590288E-01  0.42946125854E-02  0.23520667898E-01  0.00000000000E+00 0. -1.
     999901    1    3    3    0    0 -0.39905218390E-01  0.88149110391E-01 -0.76107316206E-01  0.88856908324E+00  0.88000000000E+00 0. -1.
        -11    1    4    4    0    0  0.32091480974E-02 -0.54789575452E-01  0.31634314529E-01  0.63349721282E-01  0.51100000000E-03 0.  1.
         11    1    4    4    0    0  0.21763300076E-01 -0.51017125228E-01  0.40178389091E-01  0.68490527576E-01  0.51100000000E-03 0. -1.
</event>
<event>
 8    1  0.1081309E+005  0.1043930E+01  0.7957747E-01            NaN
         13   -1    0    0    0    0  0.00000000000E+00  0.00000000000E+00  0.74505805969E-08  0.10566000000E+00  0.10566000000E+00 0.  1.
     999900   -1    0    0    0    0 -0.00000000000E+00 -0.00000000000E+00 -0.74505805969E-08  0.93827000000E+00  0.93827000000E+00 0. -1.
     999902    2    1    2    0    0 -0.22461814669E-01 -0.66554162668E-02 -0.35858824422E-02  0.10202300794E+01  0.10199547679E+01 0.  0.
     999903    2    3    3    0    0 -0.12457110434E-01  0.12245934842E+00 -0.37065343959E-01  0.13012245056E+00  0.20162856945E-01 0.  0.
         14    1    1    2    0    0  0.22461814669E-01  0.66554162668E-02  0.35858824422E-02  0.23699920607E-01  0.00000000000E+00 0. -1.
     999901    1    3    3    0    0 -0.10004704235E-01 -0.12911476469E+00  0.33479461517E-01  0.89010762884E+00  0.88000000000E+00 0. -1.
        -11    1    4    4    0    0  0.41316952717E-02  0.52831315601E-01 -0.12538327438E-01  0.54458145304E-01  0.51100000000E-03 0. -1.
         11    1    4    4    0    0 -0.16588805706E-01  0.69628032820E-01 -0.24527016521E-01  0.75664305254E-01  0.51100000000E-03 0.  1.
</event>
<event>
 8    1  0.1081309E+005  0.1043930E+01  0.7957747E-01            NaN
         13   -1    0    0    0    0  0.00000000000E+00  0.00000000000E+00  0.74505805969E-08  0.10566000000E+00  0.10566000000E+00 0. -1.
     999900   -1    0    0    0    0 -0.00000000000E+00 -0.00000000000E+00 -0.74505805969E-08  0.93827000000E+00  0.93827000000E+00 0.  1.
     999902    2    1    2    0    0 -0.16498129189E-01  0.75788384072E-02  0.14718973917E-01  0.10205574680E+01  0.10202897972E+01 0.  0.
     999903    2    3    3    0    0 -0.71343280675E-01 -0.24155924580E-01 -0.10367095240E+00  0.13037138607E+00  0.23992906175E-01 0.  0.
         14    1    1    2    0    0  0.16498129189E-01 -0.75788384072E-02 -0.14718973917E-01  0.23372531988E-01  0.00000000000E+00 0.  1.
     999901    1    3    3    0    0  0.54845151486E-01  0.31734762987E-01  0.11838992631E+00  0.89018608194E+00  0.88000000000E+00 0. -1.
        -11    1    4    4    0    0 -0.55938713796E-01 -0.76860879985E-02 -0.75608858038E-01  0.94367241057E-01  0.51100000000E-03 0.  1.
         11    1    4    4    0    0 -0.15404566879E-01 -0.16469836582E-01 -0.28062094357E-01  0.36004145017E-01  0.51100000000E-03 0. -1.
</event>
<event>
 8    1  0.1081309E+005  0.1043930E+01  0.7957747E-01            NaN
         13   -1    0    0    0    0  0.00000000000E+00  0.00000000000E+00  0.74505805969E-08  0.10566000000E+00  0.10566000000E+00 0. -1.
     999900   -1    0    0    0    0 -0.00000000000E+00 -0.00000000000E+00 -0.74505805969E-08  0.93827000000E+00  0.93827000000E+00 0. -1.
     999902    2    1    2    0    0  0.24546319547E-01 -0.13096199133E-02 -0.85680871496E-02  0.10178983073E+01  0.10175653861E+01 0.  0.
     999903    2    3    3    0    0  0.61654446674E-01 -0.11272360120E+00  0.16849693596E-02  0.13003840084E+00  0.19981629286E-01 0.  0.
         14    1    1    2    0    0 -0.24546319547E-01  0.13096199133E-02  0.85680871496E-02  0.26031692704E-01  0.00000000000E+00 0. -1.
     999901    1    3    3    0    0 -0.37108127127E-01  0.11141398129E+00 -0.10253056509E-01  0.88785990646E+00  0.88000000000E+00 0.  1.
        -11    1    4    4    0    0  0.29903829354E-01 -0.57299419363E-01  0.10745856517E-01  0.65522492494E-01  0.51100000000E-03 0.  1.
         11    1    4    4    0    0  0.31750617320E-01 -0.55424181838E-01 -0.90608871579E-02  0.64515908346E-01  0.51100000000E-03 0. -1.
</event>
<event>
 8    1  0.1081309E+005  0.1043930E+01  0.7957747E-01            NaN
         13   -1    0    0    0    0  0.00000000000E+00  0.00000000000E+00  0.74505805969E-08  0.10566000000E+00  0.10566000000E+00 0.  1.
     999900   -1    0    0    0    0 -0.00000000000E+00 -0.00000000000E+00 -0.74505805969E-08  0.93827000000E+00  0.93827000000E+00 0. -1.
     999902    2    1    2    0    0  0.16598363837E-01 -0.17282255728E-02 -0.16490370300E-01  0.10204688671E+01  0.10201991393E+01 0.  0.
     999903    2    3    3    0    0  0.11845156904E+00  0.55821665594E-01 -0.21628229101E-02  0.13261113973E+00  0.20837562725E-01 0.  0.
         14    1    1    2    0    0 -0.16598363837E-01  0.17282255728E-02  0.16490370300E-01  0.23461132929E-01  0.00000000000E+00 0.  1.
     999901    1    3    3    0    0 -0.10185320520E+00 -0.57549891167E-01 -0.14327547390E-01  0.88785772734E+00  0.88000000000E+00 0. -1.
        -11    1    4    4    0    0  0.75682837734E-01  0.40366235370E-01 -0.10360132665E-01  0.86399759000E-01  0.51100000000E-03 0.  1.
         11    1    4    4    0    0  0.42768731305E-01  0.15455430224E-01  0.81973097549E-02  0.46211380731E-01  0.51100000000E-03 0. -1.
</event>
<event>
 8    1  0.1081309E+005  0.1043930E+01  0.7957747E-01            NaN
         13   -1    0    0    0    0  0.00000000000E+00  0.00000000000E+00  0.74505805969E-08  0.10566000000E+00  0.10566000000E+00 0. -1.
     999900   -1    0    0    0    0 -0.00000000000E+00 -0.00000000000E+00 -0.74505805969E-08  0.93827000000E+00  0.93827000000E+00 0.  1.
     999902    2    1    2    0    0 -0.63611670212E-02 -0.24285807672E-01 -0.26993865430E-02  0.10186802161E+01  0.10183672378E+01 0.  0.
     999903    2    3    3    0    0  0.22915135376E-02 -0.10147596882E+00  0.81043963684E-01  0.13129859662E+00  0.19198284843E-01 0.  0.
         14    1    1    2    0    0  0.63611670212E-02  0.24285807672E-01  0.26993865430E-02  0.25249783917E-01  0.00000000000E+00 0. -1.
     999901    1    3    3    0    0 -0.86526805588E-02  0.77190161152E-01 -0.83743350227E-01  0.88738161947E+00  0.88000000000E+00 0.  1.
        -11    1    4    4    0    0  0.72396080608E-02 -0.81156302441E-01  0.57059171395E-01  0.99472445995E-01  0.51100000000E-03 0. -1.
         11    1    4    4    0    0 -0.49480945232E-02 -0.20319666382E-01  0.23984792288E-01  0.31826150622E-01  0.51100000000E-03 0.  1.
</event>
<event>
 8    1  0.1081309E+005  0.1043930E+01  0.7957747E-01            NaN
         13   -1    0    0    0    0  0.00000000000E+00  0.00000000000E+00  0.74505805969E-08  0.10566000000E+00  0.10566000000E+00 0.  1.
     999900   -1    0    0    0    0 -0.00000000000E+00 -0.00000000000E+00 -0.74505805969E-08  0.93827000000E+00  0.93827000000E+00 0. -1.
     999902    2    1    2    0    0  0.16274293993E-01 -0.23843344141E-04  0.17841212972E-01  0.10197812507E+01  0.10194952855E+01 0.  0.
     999903    2    3    3    0    0 -0.36632785009E-01  0.35279727196E-01 -0.11481071290E+00  0.12756937307E+00  0.22490554939E-01 0.  0.
         14    1    1    2    0    0 -0.16274293993E-01  0.23843344141E-04 -0.17841212972E-01  0.24148749322E-01  0.00000000000E+00 0. -1.
     999901    1    3    3    0    0  0.52907079002E-01 -0.35303570540E-01  0.13265192587E+00  0.89221187760E+00  0.88000000000E+00 0.  1.
        -11    1    4    4    0    0 -0.30683340094E-01  0.14614120739E-01 -0.66371639897E-01  0.74568730631E-01  0.51100000000E-03 0.  1.
         11    1    4    4    0    0 -0.59494449153E-02  0.20665606457E-01 -0.48439073002E-01  0.53000642443E-01  0.51100000000E-03 0. -1.
</event>
<event>
 8    1  0.1081309E+005  0.1043930E+01  0.7957747E-01            NaN
         13   -1    0    0    0    0  0.00000000000E+00  0.00000000000E+00  0.74505805969E-08  0.10566000000E+00  0.10566000000E+00 0. -1.
     999900   -1    0    0    0    0 -0.00000000000E+00 -0.00000000000E+00 -0.74505805969E-08  0.93827000000E+00  0.93827000000E+00 0. -1.
     999902    2    1    2    0    0  0.17686192754E-01 -0.45081701153E-02 -0.14294575304E-01  0.10207468187E+01  0.10204835168E+01 0.  0.
     999903    2    3    3    0    0 -0.18295234945E-01  0.12082173028E+00  0.39280637860E-01  0.12952712046E+00  0.17369521977E-01 0.  0.
         14    1    1    2    0    0 -0.17686192754E-01  0.45081701153E-02  0.14294575304E-01  0.23183181296E-01  0.00000000000E+00 0. -1.
     999901    1    3    3    0    0  0.35981427699E-01 -0.12532990040E+00 -0.53575213164E-01  0.89121969824E+00  0.88000000000E+00 0. -1.
        -11    1    4    4    0    0  0.11975046290E-02  0.19045414761E-01  0.12114900588E-02  0.19128268869E-01  0.51100000000E-03 0.  1.
         11    1    4    4    0    0 -0.19492739574E-01  0.10177631552E+00  0.38069147802E-01  0.11039885159E+00  0.51100000000E-03 0. -1.
</event>
<event>
 8    1  0.1081309E+005  0.1043930E+01  0.7957747E-01            NaN
         13   -1    0    0    0    0  0.00000000000E+00  0.00000000000E+00  0.74505805969E-08  0.10566000000E+00  0.10566000000E+00 0. -1.
     999900   -1    0    0    0    0 -0.00000000000E+00 -0.00000000000E+00 -0.74505805969E-08  0.93827000000E+00  0.93827000000E+00 0. -1.
     999902    2    1    2    0    0 -0.12588645426E-03 -0.14990499625E-01 -0.21222028134E-01  0.10179472095E+01  0.10176155540E+01 0.  0.
     999903    2    3    3    0    0  0.49975082156E-01 -0.11056754668E+00 -0.44567630435E-01  0.13104806292E+00  0.21555275364E-01 0.  0.
         14    1    1    2    0    0  0.12588645426E-03  0.14990499625E-01  0.21222028134E-01  0.25982790546E-01  0.00000000000E+00 0. -1.
     999901    1    3    3    0    0 -0.50100968610E-01  0.95577047058E-01  0.23345602301E-01  0.88689914654E+00  0.88000000000E+00 0.  1.
        -11    1    4    4    0    0  0.35062033175E-01 -0.66376891316E-01 -0.37359346785E-01  0.83852368985E-01  0.51100000000E-03 0.  1.
         11    1    4    4    0    0  0.14913048981E-01 -0.44190655367E-01 -0.72082836494E-02  0.47195693933E-01  0.51100000000E-03 0. -1.
</event>
<event>
 8    1  0.1081309E+005  0.1043930E+01  0.7957747E-01            NaN
         13   -1    0    0    0    0  0.00000000000E+00  0.00000000000E+00  0.74505805969E-08  0.10566000000E+00  0.10566000000E+00 0. -1.
     999900   -1    0    0    0    0 -0.00000000000E+00 -0.00000000000E+00 -0.74505805969E-08  0.93827000000E+00  0.93827000000E+00 0. -1.
     999902    2    1    2    0    0 -0.22847040716E-01 -0.62013457419E-02 -0.17600463225E-02  0.10201909663E+01  0.10199147347E+01 0.  0.
     999903    2    3    3    0    0  0.92070707718E-01 -0.33629636140E-01 -0.81028114313E-01  0.12876411757E+00  0.20166184983E-01 0.  0.
         14    1    1    2    0    0  0.22847040716E-01  0.62013457419E-02  0.17600463225E-02  0.23739033712E-01  0.00000000000E+00 0. -1.
     999901    1    3    3    0    0 -0.11491774843E+00  0.27428290399E-01  0.79268067991E-01  0.89142684872E+00  0.88000000000E+00 0.  1.
        -11    1    4    4    0    0  0.50997523716E-01 -0.29175091160E-01 -0.47351692970E-01  0.75461098041E-01  0.51100000000E-03 0.  1.
         11    1    4    4    0    0  0.41073184002E-01 -0.44545449804E-02 -0.33676421344E-01  0.53303019526E-01  0.51100000000E-03 0. -1.
</event>
<event>
 8    1  0.1081309E+005  0.1043930E+01  0.7957747E-01            NaN
         13   -1    0    0    0    0  0.00000000000E+00  0.00000000000E+00  0.74505805969E-08  0.10566000000E+00  0.10566000000E+00 0. -1.
     999900   -1    0    0    0    0 -0.00000000000E+00 -0.00000000000E+00 -0.74505805969E-08  0.93827000000E+00  0.93827000000E+00 0.  1.
     999902    2    1    2    0    0  0.13748813598E-01 -0.69630380092E-02  0.17786522602E-01  0.10203954688E+01  0.10201240310E+01 0.  0.
     999903    2    3    3    0    0 -0.54175971049E-01 -0.11757208074E+00 -0.29388758387E-03  0.13069044017E+00  0.17935294029E-01 0.  0.
         14    1    1    2    0    0 -0.13748813598E-01  0.69630380092E-02 -0.17786522602E-01  0.23534531224E-01  0.00000000000E+00 0.  1.
     999901    1    3    3    0    0  0.67924784646E-01  0.11060904273E+00  0.18080410186E-01  0.88970502861E+00  0.88000000000E+00 0. -1.
        -11    1    4    4    0    0 -0.41631294297E-01 -0.10015642391E+00 -0.54794308111E-02  0.10860367949E+00  0.51100000000E-03 0.  1.
         11    1    4    4    0    0 -0.12544676752E-01 -0.17415656829E-01  0.51855432272E-02  0.22086760676E-01  0.51100000000E-03 0. -1.
</event>
<event>
 8    1  0.1081309E+005  0.1043930E+01  0.7957747E-01            NaN
         13   -1    0    0    0    0  0.00000000000E+00  0.00000000000E+00  0.74505805969E-08  0.10566000000E+00  0.10566000000E+00 0. -1.
     999900   -1    0    0    0    0 -0.00000000000E+00 -0.00000000000E+00 -0.74505805969E-08  0.93827000000E+00  0.93827000000E+00 0. -1.
     999902    2    1    2    0    0  0.69852621069E-02  0.18180160018E-01  0.16421412528E-01  0.10184550143E+01  0.10181363569E+01 0.  0.
     999903    2    3    3    0    0  0.84090727596E-01  0.98649473250E-01  0.68310782225E-02  0.13137410614E+00  0.20236676961E-01 0.  0.
         14    1    1    2    0    0 -0.69852621069E-02 -0.18180160018E-01 -0.16421412528E-01  0.25474985660E-01  0.00000000000E+00 0.  1.
     999901    1    3    3    0    0 -0.77105465489E-01 -0.80469313232E-01  0.95903343052E-02  0.88708090820E+00  0.88000000000E+00 0.  1.
        -11    1    4    4    0    0  0.44158263535E-01  0.59589849938E-01 -0.47608375512E-02  0.74322467325E-01  0.51100000000E-03 0. -1.
         11    1    4    4    0    0  0.39932464060E-01  0.39059623312E-01  0.11591915774E-01  0.57051638815E-01  0.51100000000E-03 0.  1.
</event>
<event>
 8    1  0.1081309E+005  0.1043930E+01  0.7957747E-01            NaN
         13   -1    0    0    0    0  0.00000000000E+00  0.00000000000E+00  0.74505805969E-08  0.10566000000E+00  0.10566000000E+00 0. -1.
     999900   -1    0    0    0    0 -0.00000000000E+00 -0.00000000000E+00 -0.74505805969E-08  0.93827000000E+00  0.93827000000E+00 0.  1.
     999902    2    1    2    0    0 -0.98490265203E-02 -0.17422805445E-01 -0.12096605117E-01  0.10205444205E+01  0.10202764473E+01 0.  0.
     999903    2    3    3    0    0 -0.54468432157E-01 -0.90418451252E-01  0.76518133940E-01  0.13196587719E+00  0.20436768131E-01 0.  0.
         14    1    1    2    0    0  0.98490265203E-02  0.17422805445E-01  0.12096605117E-01  0.23385579496E-01  0.00000000000E+00 0. -1.
     999901    1    3    3    0    0  0.44619405637E-01  0.72995645806E-01 -0.88614739057E-01  0.88857854332E+00  0.88000000000E+00 0. -1.
        -11    1    4    4    0    0 -0.18655230246E-01 -0.33270873148E-01  0.16058718943E-01  0.41389759490E-01  0.51100000000E-03 0. -1.
         11    1    4    4    0    0 -0.35813201910E-01 -0.57147578104E-01  0.60459414997E-01  0.90576117696E-01  0.51100000000E-03 0.  1.
</event>
<event>
 8    1  0.1081309E+005  0.1043930E+01  0.7957747E-01            NaN
         13   -1    0    0    0    0  0.00000000000E+00  0.00000000000E+00  0.74505805969E-08  0.10566000000E+00  0.10566000000E+00 0.  1.
     999900   -1    0    0    0    0 -0.00000000000E+00 -0.00000000000E+00 -0.74505805969E-08  0.93827000000E+00  0.93827000000E+00 0.  1.
     999902    2    1    2    0    0 -0.14355690886E-01 -0.24192222524E-01  0.13195194861E-01  0.10128581050E+01  0.10123813897E+01 0.  0.
     999903    2    3    3    0    0  0.59955289741E-01  0.64781080635E-01 -0.79537674078E-01  0.12042449094E+00  0.19610998063E-01 0.  0.
         14    1    1    2    0    0  0.14355690886E-01  0.24192222524E-01 -0.13195194861E-01  0.31071895000E-01  0.00000000000E+00 0. -1.
     999901    1    3    3    0    0 -0.74310980627E-01 -0.88973303159E-01  0.92732868939E-01  0.89243361406E+00  0.88000000000E+00 0. -1.
        -11    1    4    4    0    0  0.43812039748E-01  0.54661110800E-01 -0.53452449622E-01  0.88117860576E-01  0.51100000000E-03 0.  1.
         11    1    4    4    0    0  0.16143249992E-01  0.10119969834E-01 -0.26085224456E-01  0.32306630367E-01  0.51100000000E-03 0. -1.
</event>
<event>
 8    1  0.1081309E+005  0.1043930E+01  0.7957747E-01            NaN
         13   -1    0    0    0    0  0.00000000000E+00  0.00000000000E+00  0.74505805969E-08  0.10566000000E+00  0.10566000000E+00 0.  1.
     999900   -1    0    0    0    0 -0.00000000000E+00 -0.00000000000E+00 -0.74505805969E-08  0.93827000000E+00  0.93827000000E+00 0.  1.
     999902    2    1    2    0    0 -0.15148681064E-01  0.15709240679E-01  0.86695539944E-02  0.10204475822E+01  0.10201773591E+01 0.  0.
     999903    2    3    3    0    0  0.85209779764E-01 -0.28623490401E-01  0.87452448747E-01  0.13014204124E+00  0.34770811555E-01 0.  0.
         14    1    1    2    0    0  0.15148681064E-01 -0.15709240679E-01 -0.86695539944E-02  0.23482417830E-01  0.00000000000E+00 0. -1.
     999901    1    3    3    0    0 -0.10035846083E+00  0.44332731080E-01 -0.78782894752E-01  0.89030554093E+00  0.88000000000E+00 0.  1.
        -11    1    4    4    0    0  0.73961809250E-01 -0.34236400693E-01  0.84118600304E-01  0.11712677063E+00  0.51100000000E-03 0.  1.
         11    1    4    4    0    0  0.11247970515E-01  0.56129102921E-02  0.33338484428E-02  0.13015270611E-01  0.51100000000E-03 0. -1.
</event>
<event>
 8    1  0.1081309E+005  0.1043930E+01  0.7957747E-01            NaN
         13   -1    0    0    0    0  0.00000000000E+00  0.00000000000E+00  0.74505805969E-08  0.10566000000E+00  0.10566000000E+00 0. -1.
     999900   -1    0    0    0    0 -0.00000000000E+00 -0.00000000000E+00 -0.74505805969E-08  0.93827000000E+00  0.93827000000E+00 0.  1.
     999902    2    1    2    0    0 -0.12038414839E-01  0.12254339947E-01 -0.14349175987E-01  0.10215471688E+01  0.10213019275E+01 0.  0.
     999903    2    3    3    0    0 -0.40817710637E-01 -0.68592068335E-01  0.10049538615E+00  0.12994542868E+00  0.20384662308E-01 0.  0.
         14    1    1    2    0    0  0.12038414839E-01 -0.12254339947E-01  0.14349175987E-01  0.22382831163E-01  0.00000000000E+00 0. -1.
     999901    1    3    3    0    0  0.28779295798E-01  0.80846408282E-01 -0.11484456214E+00  0.89160174016E+00  0.88000000000E+00 0.  1.
        -11    1    4    4    0    0 -0.11798655929E-01 -0.36227784639E-01  0.56042016617E-01  0.67768941331E-01  0.51100000000E-03 0. -1.
         11    1    4    4    0    0 -0.29019054708E-01 -0.32364283695E-01  0.44453369531E-01  0.62176487348E-01  0.51100000000E-03 0.  1.
</event>
<event>
 8    1  0.1081309E+005  0.1043930E+01  0.7957747E-01            NaN
         13   -1    0    0    0    0  0.00000000000E+00  0.00000000000E+00  0.74505805969E-08  0.10566000000E+00  0.10566000000E+00 0. -1.
     999900   -1    0    0    0    0 -0.00000000000E+00 -0.00000000000E+00 -0.74505805969E-08  0.93827000000E+00  0.93827000000E+00 0.  1.
     999902    2    1    2    0    0  0.25456030497E-01  0.12994704913E-01 -0.41897935559E-02  0.10150435635E+01  0.10146324505E+01 0.  0.
     999903    2    3    3    0    0 -0.64448840102E-01 -0.88605027074E-01 -0.52944013018E-01  0.12331357901E+00  0.19966633179E-01 0.  0.
         14    1    1    2    0    0 -0.25456030497E-01 -0.12994704913E-01  0.41897935559E-02  0.28886436514E-01  0.00000000000E+00 0. -1.
     999901    1    3    3    0    0  0.89904870599E-01  0.10159973199E+00  0.48754219463E-01  0.89172998448E+00  0.88000000000E+00 0.  1.
        -11    1    4    4    0    0 -0.31582465717E-01 -0.44188927713E-01 -0.15224693618E-01  0.56410689501E-01  0.51100000000E-03 0.  1.
         11    1    4    4    0    0 -0.32866374385E-01 -0.44416099361E-01 -0.37719319400E-01  0.66902889509E-01  0.51100000000E-03 0. -1.
</event>
<event>
 8    1  0.1081309E+005  0.1043930E+01  0.7957747E-01            NaN
         13   -1    0    0    0    0  0.00000000000E+00  0.00000000000E+00  0.74505805969E-08  0.10566000000E+00  0.10566000000E+00 0.  1.
     999900   -1    0    0    0    0 -0.00000000000E+00 -0.00000000000E+00 -0.74505805969E-08  0.93827000000E+00  0.93827000000E+00 0.  1.
     999902    2    1    2    0    0  0.15132972915E-01 -0.16679298819E-01  0.75269857957E-02  0.10201842342E+01  0.10199078440E+01 0.  0.
     999903    2    3    3    0    0 -0.50324774507E-01  0.10217714349E+00 -0.53903419600E-01  0.12766797929E+00  0.20512988795E-01 0.  0.
         14    1    1    2    0    0 -0.15132972915E-01  0.16679298819E-01 -0.75269857957E-02  0.23745765802E-01  0.00000000000E+00 0. -1.
     999901    1    3    3    0    0  0.65457747422E-01 -0.11885644231E+00  0.61430405396E-01  0.89251625491E+00  0.88000000000E+00 0.  1.
        -11    1    4    4    0    0 -0.15113783183E-01  0.28064137713E-01 -0.53494552161E-02  0.32324913917E-01  0.51100000000E-03 0. -1.
         11    1    4    4    0    0 -0.35210991324E-01  0.74113005778E-01 -0.48553964384E-01  0.95343065368E-01  0.51100000000E-03 0.  1.
</event>
<event>
 8    1  0.1081309E+005  0.1043930E+01  0.7957747E-01            NaN
         13   -1    0    0    0    0  0.00000000000E+00  0.00000000000E+00  0.74505805969E-08  0.10566000000E+00  0.10566000000E+00 0.  1.
     999900   -1    0    0    0    0 -0.00000000000E+00 -0.00000000000E+00 -0.74505805969E-08  0.93827000000E+00  0.93827000000E+00 0.  1.
     999902    2    1    2    0    0 -0.51719445910E-02 -0.15240503224E-01 -0.17548820646E-01  0.10201185940E+01  0.10198406556E+01 0.  0.
     999903    2    3    3    0    0  0.44534242555E-01  0.66159195050E-01  0.97429523424E-01  0.12752874669E+00  0.20266508060E-01 0.  0.
         14    1    1    2    0    0  0.51719445910E-02  0.15240503224E-01  0.17548820646E-01  0.23811405994E-01  0.00000000000E+00 0.  1.
     999901    1    3    3    0    0 -0.49706187146E-01 -0.81399698274E-01 -0.11497834407E+00  0.89258984731E+00  0.88000000000E+00 0.  1.
        -11    1    4    4    0    0  0.37339589283E-01  0.60842876375E-01  0.75842049769E-01  0.10415554794E+00  0.51100000000E-03 0. -1.
         11    1    4    4    0    0  0.71946532723E-02  0.53163186749E-02  0.21587473655E-01  0.23373198749E-01  0.51100000000E-03 0.  1.
</event>
<event>
 8    1  0.1081309E+005  0.1043930E+01  0.7957747E-01            NaN
         13   -1    0    0    0    0  0.00000000000E+00  0.00000000000E+00  0.74505805969E-08  0.10566000000E+00  0.10566000000E+00 0.  1.
     999900   -1    0    0    0    0 -0.00000000000E+00 -0.00000000000E+00 -0.74505805969E-08  0.93827000000E+00  0.93827000000E+00 0. -1.
     999902    2    1    2    0    0 -0.18596659293E-01  0.12843464227E-01  0.10212306656E-01  0.10191291630E+01  0.10188273501E+01 0.  0.
     999903    2    3    3    0    0 -0.42027957496E-01 -0.11995483272E+00 -0.23307923574E-02  0.12876870633E+00  0.20504536869E-01 0.  0.
         14    1    1    2    0    0  0.18596659293E-01 -0.12843464227E-01 -0.10212306656E-01  0.24800837031E-01  0.00000000000E+00 0. -1.
     999901    1    3    3    0    0  0.23431298203E-01  0.13279829695E+00  0.12543099013E-01  0.89036045664E+00  0.88000000000E+00 0.  1.
        -11    1    4    4    0    0 -0.36315201250E-01 -0.97015758259E-01 -0.95905259122E-02  0.10403408336E+00  0.51100000000E-03 0.  1.
         11    1    4    4    0    0 -0.57127562456E-02 -0.22939074466E-01  0.72597335548E-02  0.24734622972E-01  0.51100000000E-03 0. -1.
</event>
<event>
 8    1  0.1081309E+005  0.1043930E+01  0.7957747E-01            NaN
         13   -1    0    0    0    0  0.00000000000E+00  0.00000000000E+00  0.74505805969E-08  0.10566000000E+00  0.10566000000E+00 0. -1.
     999900   -1    0    0    0    0 -0.00000000000E+00 -0.00000000000E+00 -0.74505805969E-08  0.93827000000E+00  0.93827000000E+00 0.  1.
     999902    2    1    2    0    0 -0.23021135874E-03 -0.85346024946E-02  0.13938866846E-01  0.10275842224E+01  0.10274542081E+01 0.  0.
     999903    2    3    3    0    0 -0.11116845404E+00 -0.39047565152E-01 -0.65701633650E-01  0.13652813891E+00  0.20978334778E-01 0.  0.
         14    1    1    2    0    0  0.23021135874E-03  0.85346024946E-02 -0.13938866846E-01  0.16345777619E-01  0.00000000000E+00 0.  1.
     999901    1    3    3    0    0  0.11093824268E+00  0.30512962657E-01  0.79640500496E-01  0.89105608348E+00  0.88000000000E+00 0. -1.
        -11    1    4    4    0    0 -0.19663773983E-01  0.47118264581E-03 -0.14712472375E-01  0.24568353317E-01  0.51100000000E-03 0.  1.
         11    1    4    4    0    0 -0.91504680060E-01 -0.39518747798E-01 -0.50989161275E-01  0.11195978559E+00  0.51100000000E-03 0. -1.
</event>
<event>
 8    1  0.1081309E+005  0.1043930E+01  0.7957747E-01            NaN
         13   -1    0    0    0    0  0.00000000000E+00  0.00000000000E+00  0.74505805969E-08  0.10566000000E+00  0.10566000000E+00 0. -1.
     999900   -1    0    0    0    0 -0.00000000000E+00 -0.00000000000E+00 -0.74505805969E-08  0.93827000000E+00  0.93827000000E+00 0.  1.
     999902    2    1    2    0    0  0.14116608758E-01  0.20087740066E-02  0.18298251688E-01  0.10207321589E+01  0.10204685201E+01 0.  0.
     999903    2    3    3    0    0 -0.12329761276E-01  0.10565144383E+00  0.76129008327E-01  0.13237096554E+00  0.20302610958E-01 0.  0.
         14    1    1    2    0    0 -0.14116608758E-01 -0.20087740066E-02 -0.18298251688E-01  0.23197841077E-01  0.00000000000E+00 0.  1.
     999901    1    3    3    0    0  0.26446370034E-01 -0.10364266983E+00 -0.57830756639E-01  0.88836119338E+00  0.88000000000E+00 0.  1.
        -11    1    4    4    0    0  0.12700450811E-02  0.69177400730E-01  0.52217417514E-01  0.86683594751E-01  0.51100000000E-03 0.  1.
         11    1    4    4    0    0 -0.13599806357E-01  0.36474043103E-01  0.23911590813E-01  0.45687370787E-01  0.51100000000E-03 0. -1.
</event>
<event>
 8    1  0.1081309E+005  0.1043930E+01  0.7957747E-01            NaN
         13   -1    0    0    0    0  0.00000000000E+00  0.00000000000E+00  0.74505805969E-08  0.10566000000E+00  0.10566000000E+00 0. -1.
     999900   -1    0    0    0    0 -0.00000000000E+00 -0.00000000000E+00 -0.74505805969E-08  0.93827000000E+00  0.93827000000E+00 0.  1.
     999902    2    1    2    0    0 -0.14889611194E-01 -0.87901287557E-02 -0.16336928541E-01  0.10201421435E+01  0.10198647610E+01 0.  0.
     999903    2    3    3    0    0 -0.79006014500E-01  0.15008698721E-01  0.10000518542E+00  0.12985410869E+00  0.19845429393E-01 0.  0.
         14    1    1    2    0    0  0.14889611194E-01  0.87901287557E-02  0.16336928541E-01  0.23787856549E-01  0.00000000000E+00 0.  1.
     999901    1    3    3    0    0  0.64116403306E-01 -0.23798827477E-01 -0.11634211396E+00  0.89028803476E+00  0.88000000000E+00 0.  1.
        -11    1    4    4    0    0 -0.29147367687E-01 -0.35223746817E-02  0.30610453055E-01  0.42417415335E-01  0.51100000000E-03 0. -1.
         11    1    4    4    0    0 -0.49858646813E-01  0.18531073403E-01  0.69394732364E-01  0.87436693352E-01  0.51100000000E-03 0.  1.
</event>
<event>
 8    1  0.1081309E+005  0.1043930E+01  0.7957747E-01            NaN
         13   -1    0    0    0    0  0.00000000000E+00  0.00000000000E+00  0.74505805969E-08  0.10566000000E+00  0.10566000000E+00 0. -1.
     999900   -1    0    0    0    0 -0.00000000000E+00 -0.00000000000E+00 -0.74505805969E-08  0.93827000000E+00  0.93827000000E+00 0. -1.
     999902    2    1    2    0    0 -0.24627693294E-02  0.19354551992E-01 -0.13455971456E-01  0.10202292177E+01  0.10199538860E+01 0.  0.
     999903    2    3    3    0    0 -0.45651685568E-01 -0.11512197123E+00 -0.28813488745E-01  0.12883420359E+00  0.20757895487E-01 0.  0.
         14    1    1    2    0    0  0.24627693294E-02 -0.19354551992E-01  0.13455971456E-01  0.23700782338E-01  0.00000000000E+00 0. -1.
     999901    1    3    3    0    0  0.43188916238E-01  0.13447652322E+00  0.15357517289E-01  0.89139501408E+00  0.88000000000E+00 0. -1.
        -11    1    4    4    0    0 -0.21342482521E-01 -0.72811729899E-01 -0.99955648235E-02  0.76532489886E-01  0.51100000000E-03 0. -1.
         11    1    4    4    0    0 -0.24309203047E-01 -0.42310241330E-01 -0.18817923921E-01  0.52301713699E-01  0.51100000000E-03 0.  1.
</event>
<event>
 8    1  0.1081309E+005  0.1043930E+01  0.7957747E-01            NaN
         13   -1    0    0    0    0  0.00000000000E+00  0.00000000000E+00  0.74505805969E-08  0.10566000000E+00  0.10566000000E+00 0.  1.
     999900   -1    0    0    0    0 -0.00000000000E+00 -0.00000000000E+00 -0.74505805969E-08  0.93827000000E+00  0.93827000000E+00 0. -1.
     999902    2    1    2    0    0 -0.79020171687E-02 -0.14733096272E-01 -0.16917211374E-01  0.10201455925E+01  0.10198682914E+01 0.  0.
     999903    2    3    3    0    0 -0.10559190871E+00  0.73318172441E-01 -0.59463960060E-02  0.13030476422E+00  0.20463781574E-01 0.  0.
         14    1    1    2    0    0  0.79020171687E-02  0.14733096272E-01  0.16917211374E-01  0.23784407534E-01  0.00000000000E+00 0. -1.
     999901    1    3    3    0    0  0.97689891543E-01 -0.88051268713E-01 -0.10970815368E-01  0.88984082825E+00  0.88000000000E+00 0.  1.
        -11    1    4    4    0    0 -0.77337379841E-01  0.49743188709E-01 -0.12889402642E-01  0.92853933493E-01  0.51100000000E-03 0. -1.
         11    1    4    4    0    0 -0.28254528871E-01  0.23574983732E-01  0.69430066359E-02  0.37450830722E-01  0.51100000000E-03 0.  1.
</event>
<event>
 7    1  0.1081309E+005  0.1043930E+01  0.7957747E-01            NaN
         13   -1    0    0    0    0  0.00000000000E+00  0.00000000000E+00  0.74505805969E-08  0.10566000000E+00  0.10566000000E+00 0. -1.
     999900   -1    0    0    0    0 -0.00000000000E+00 -0.00000000000E+00 -0.74505805969E-08  0.93827000000E+00  0.93827000000E+00 0.  1.
     999903    2    1    2    0    0  0.32790777346E-01  0.66453289745E-01  0.79416330980E-01  0.11050123787E+00  0.20305052267E-01 0.  0.
         14    1    1    2    0    0  0.35998751495E-01 -0.29573888373E-01 -0.42315622011E-02  0.46780670168E-01  0.00000000000E+00 0.  1.
     999901    1    1    2    0    0 -0.68789528841E-01 -0.36879401372E-01 -0.75184768779E-01  0.88664809196E+00  0.88000000000E+00 0.  1.
        -11    1    3    3    0    0  0.22758525465E-01  0.28574713825E-01  0.28992526122E-01  0.46640030483E-01  0.51100000000E-03 0. -1.
         11    1    3    3    0    0  0.10032251881E-01  0.37878575920E-01  0.50423804859E-01  0.63861207387E-01  0.51100000000E-03 0.  1.
</event>
<event>
 8    1  0.1081309E+005  0.1043930E+01  0.7957747E-01            NaN
         13   -1    0    0    0    0  0.00000000000E+00  0.00000000000E+00  0.74505805969E-08  0.10566000000E+00  0.10566000000E+00 0.  1.
     999900   -1    0    0    0    0 -0.00000000000E+00 -0.00000000000E+00 -0.74505805969E-08  0.93827000000E+00  0.93827000000E+00 0. -1.
     999902    2    1    2    0    0  0.46786264613E-02 -0.16447876572E-01 -0.14835247272E-01  0.10212913881E+01  0.10210404461E+01 0.  0.
     999903    2    3    3    0    0 -0.31844557665E-01  0.36614604220E-01  0.11835273815E+00  0.12894133941E+00  0.16241714379E-01 0.  0.
         14    1    1    2    0    0 -0.46786264613E-02  0.16447876572E-01  0.14835247272E-01  0.22638611947E-01  0.00000000000E+00 0. -1.
     999901    1    3    3    0    0  0.36523184126E-01 -0.53062480791E-01 -0.13318798543E+00  0.89235004864E+00  0.88000000000E+00 0. -1.
        -11    1    4    4    0    0 -0.23509135222E-01  0.30763550539E-01  0.75002585965E-01  0.84408083162E-01  0.51100000000E-03 0. -1.
         11    1    4    4    0    0 -0.83354224429E-02  0.58510536807E-02  0.43350152189E-01  0.44533256251E-01  0.51100000000E-03 0.  1.
</event>
<event>
 8    1  0.1081309E+005  0.1043930E+01  0.7957747E-01            NaN
         13   -1    0    0    0    0  0.00000000000E+00  0.00000000000E+00  0.74505805969E-08  0.10566000000E+00  0.10566000000E+00 0.  1.
     999900   -1    0    0    0    0 -0.00000000000E+00 -0.00000000000E+00 -0.74505805969E-08  0.93827000000E+00  0.93827000000E+00 0. -1.
     999902    2    1    2    0    0  0.12559197794E-01 -0.16247197620E-01 -0.11390813768E-01  0.10204469100E+01  0.10201766712E+01 0.  0.
     999903    2    3    3    0    0  0.58142902406E-01  0.37005466224E-01 -0.11076087641E+00  0.13208429836E+00  0.20695132242E-01 0.  0.
         14    1    1    2    0    0 -0.12559197794E-01  0.16247197620E-01  0.11390813768E-01  0.23483090045E-01  0.00000000000E+00 0.  1.
     999901    1    3    3    0    0 -0.45583704612E-01 -0.53252663844E-01  0.99370062645E-01  0.88836261160E+00  0.88000000000E+00 0.  1.
        -11    1    4    4    0    0  0.31237751722E-01  0.97514797660E-02 -0.40588121975E-01  0.52139670662E-01  0.51100000000E-03 0. -1.
         11    1    4    4    0    0  0.26905150684E-01  0.27253986458E-01 -0.70172754438E-01  0.79944627697E-01  0.51100000000E-03 0.  1.
</event>
<event>
 8    1  0.1081309E+005  0.1043930E+01  0.7957747E-01            NaN
         13   -1    0    0    0    0  0.00000000000E+00  0.00000000000E+00  0.74505805969E-08  0.10566000000E+00  0.10566000000E+00 0. -1.
     999900   -1    0    0    0    0 -0.00000000000E+00 -0.00000000000E+00 -0.74505805969E-08  0.93827000000E+00  0.93827000000E+00 0. -1.
     999902    2    1    2    0    0  0.12379842072E-01  0.16547103766E-01 -0.11298023330E-01  0.10203776654E+01  0.10201058120E+01 0.  0.
     999903    2    3    3    0    0  0.10368249393E-01 -0.96210579398E-01  0.81580757377E-01  0.12833236976E+00  0.21208511728E-01 0.  0.
         14    1    1    2    0    0 -0.12379842072E-01 -0.16547103766E-01  0.11298023330E-01  0.23552334575E-01  0.00000000000E+00 0. -1.
     999901    1    3    3    0    0  0.20115926781E-02  0.11275768316E+00 -0.92878780707E-01  0.89204529567E+00  0.88000000000E+00 0. -1.
        -11    1    4    4    0    0  0.29574656950E-04 -0.76740468446E-01  0.67207224038E-01  0.10201064874E+00  0.51100000000E-03 0.  1.
         11    1    4    4    0    0  0.10338674737E-01 -0.19470110952E-01  0.14373533340E-01  0.26321721020E-01  0.51100000000E-03 0. -1.
</event>
<event>
 8    1  0.1081309E+005  0.1043930E+01  0.7957747E-01            NaN
         13   -1    0    0    0    0  0.00000000000E+00  0.00000000000E+00  0.74505805969E-08  0.10566000000E+00  0.10566000000E+00 0. -1.
     999900   -1    0    0    0    0 -0.00000000000E+00 -0.00000000000E+00 -0.74505805969E-08  0.93827000000E+00  0.93827000000E+00 0. -1.
     999902    2    1    2    0    0 -0.18659319484E-01  0.23587411689E-02 -0.12769852398E-01  0.10211966986E+01  0.10209436293E+01 0.  0.
     999903    2    3    3    0    0 -0.36287534921E-01  0.24767919013E-01  0.12127441299E+00  0.13058971998E+00  0.20395016925E-01 0.  0.
         14    1    1    2    0    0  0.18659319484E-01 -0.23587411689E-02  0.12769852398E-01  0.22733301427E-01  0.00000000000E+00 0. -1.
     999901    1    3    3    0    0  0.17628215438E-01 -0.22409177845E-01 -0.13404426539E+00  0.89060697859E+00  0.88000000000E+00 0. -1.
        -11    1    4    4    0    0 -0.87178903301E-02  0.12556464281E-01  0.64658184105E-01  0.66442518764E-01  0.51100000000E-03 0. -1.
         11    1    4    4    0    0 -0.27569644591E-01  0.12211454733E-01  0.56616228888E-01  0.64147201218E-01  0.51100000000E-03 0.  1.
</event>
<event>
 8    1  0.1081309E+005  0.1043930E+01  0.7957747E-01            NaN
         13   -1    0    0    0    0  0.00000000000E+00  0.00000000000E+00  0.74505805969E-08  0.10566000000E+00  0.10566000000E+00 0. -1.
     999900   -1    0    0    0    0 -0.00000000000E+00 -0.00000000000E+00 -0.74505805969E-08  0.93827000000E+00  0.93827000000E+00 0.  1.
     999902    2    1    2    0    0  0.13405335861E-01  0.47673936830E-02  0.19374759006E-01  0.10198922722E+01  0.10196089616E+01 0.  0.
     999903    2    3    3    0    0  0.77762305643E-01  0.99175772388E-01 -0.30506272286E-01  0.13110496421E+00  0.19366697815E-01 0.  0.
         14    1    1    2    0    0 -0.13405335861E-01 -0.47673936830E-02 -0.19374759006E-01  0.24037727817E-01  0.00000000000E+00 0.  1.
     999901    1    3    3    0    0 -0.64356969782E-01 -0.94408378705E-01  0.49881031292E-01  0.88878730797E+00  0.88000000000E+00 0. -1.
        -11    1    4    4    0    0  0.60847449981E-01  0.78066738383E-01 -0.15559048796E-01  0.10019567322E+00  0.51100000000E-03 0.  1.
         11    1    4    4    0    0  0.16914855662E-01  0.21109034004E-01 -0.14947223490E-01  0.30909290993E-01  0.51100000000E-03 0. -1.
</event>
<event>
 8    1  0.1081309E+005  0.1043930E+01  0.7957747E-01            NaN
         13   -1    0    0    0    0  0.00000000000E+00  0.00000000000E+00  0.74505805969E-08  0.10566000000E+00  0.10566000000E+00 0.  1.
     999900   -1    0    0    0    0 -0.00000000000E+00 -0.00000000000E+00 -0.74505805969E-08  0.93827000000E+00  0.93827000000E+00 0. -1.
     999902    2    1    2    0    0 -0.23749935994E-01 -0.89191428305E-02 -0.66147412903E-03  0.10185518969E+01  0.10182356891E+01 0.  0.
     999903    2    3    3    0    0 -0.78807709360E-01 -0.67862831350E-01 -0.77975954940E-01  0.13148749915E+00  0.19816507024E-01 0.  0.
         14    1    1    2    0    0  0.23749935994E-01  0.89191428305E-02  0.66147412903E-03  0.25378103092E-01  0.00000000000E+00 0. -1.
     999901    1    3    3    0    0  0.55057773367E-01  0.58943688520E-01  0.77314480811E-01  0.88706439776E+00  0.88000000000E+00 0.  1.
        -11    1    4    4    0    0 -0.50982368502E-01 -0.31767504716E-01 -0.40108947372E-01  0.72231330005E-01  0.51100000000E-03 0.  1.
         11    1    4    4    0    0 -0.27825340858E-01 -0.36095326635E-01 -0.37867007568E-01  0.59256169146E-01  0.51100000000E-03 0. -1.
</event>
<event>
 8    1  0.1081309E+005  0.1043930E+01  0.7957747E-01            NaN
         13   -1    0    0    0    0  0.00000000000E+00  0.00000000000E+00  0.74505805969E-08  0.10566000000E+00  0.10566000000E+00 0. -1.
     999900   -1    0    0    0    0 -0.00000000000E+00 -0.00000000000E+00 -0.74505805969E-08  0.93827000000E+00  0.93827000000E+00 0. -1.
     999902    2    1    2    0    0 -0.86065696172E-02  0.13953238286E-02 -0.22260356583E-01  0.10200230252E+01  0.10197428247E+01 0.  0.
     999903    2    3    3    0    0  0.12445138495E+00 -0.16058426906E-01 -0.26602542199E-01  0.12983882669E+00  0.20109832750E-01 0.  0.
         14    1    1    2    0    0  0.86065696172E-02 -0.13953238286E-02  0.22260356583E-01  0.23906974806E-01  0.00000000000E+00 0. -1.
     999901    1    3    3    0    0 -0.13305795457E+00  0.17453750734E-01  0.43421856156E-02  0.89018419850E+00  0.88000000000E+00 0.  1.
        -11    1    4    4    0    0  0.61813137581E-01 -0.11707122096E-01 -0.22851561752E-01  0.66935608467E-01  0.51100000000E-03 0.  1.
         11    1    4    4    0    0  0.62638247373E-01 -0.43513048092E-02 -0.37509804471E-02  0.62903218223E-01  0.51100000000E-03 0. -1.
</event>
<event>
 8    1  0.1081309E+005  0.1043930E+01  0.7957747E-01            NaN
         13   -1    0    0    0    0  0.00000000000E+00  0.00000000000E+00  0.74505805969E-08  0.10566000000E+00  0.10566000000E+00 0. -1.
     999900   -1    0    0    0    0 -0.00000000000E+00 -0.00000000000E+00 -0.74505805969E-08  0.93827000000E+00  0.93827000000E+00 0. -1.
     999902    2    1    2    0    0  0.70185514862E-02  0.19677101852E-01 -0.13041661266E-02  0.10229979850E+01  0.10227838130E+01 0.  0.
     999903    2    3    3    0    0 -0.55003522947E-01 -0.11268482091E+00  0.30225284780E-01  0.13038355392E+00  0.19053789458E-01 0.  0.
         14    1    1    2    0    0 -0.70185514862E-02 -0.19677101852E-01  0.13041661266E-02  0.20932014990E-01  0.00000000000E+00 0.  1.
     999901    1    3    3    0    0  0.62022074433E-01  0.13236192276E+00 -0.31529450907E-01  0.89261443109E+00  0.88000000000E+00 0.  1.
        -11    1    4    4    0    0 -0.20095964087E-01 -0.62831443722E-01  0.15453494987E-01  0.67754776371E-01  0.51100000000E-03 0. -1.
         11    1    4    4    0    0 -0.34907558860E-01 -0.49853377188E-01  0.14771789794E-01  0.62628777549E-01  0.51100000000E-03 0.  1.
</event>
<event>
 8    1  0.1081309E+005  0.1043930E+01  0.7957747E-01            NaN
         13   -1    0    0    0    0  0.00000000000E+00  0.00000000000E+00  0.74505805969E-08  0.10566000000E+00  0.10566000000E+00 0. -1.
     999900   -1    0    0    0    0 -0.00000000000E+00 -0.00000000000E+00 -0.74505805969E-08  0.93827000000E+00  0.93827000000E+00 0. -1.
     999902    2    1    2    0    0  0.20768506070E-01 -0.47114228696E-02  0.59360502858E-02  0.10218219688E+01  0.10215827773E+01 0.  0.
     999903    2    3    3    0    0 -0.23061558366E-01  0.12643908993E+00 -0.12918130170E-01  0.13082420694E+00  0.20722357408E-01 0.  0.
         14    1    1    2    0    0 -0.20768506070E-01  0.47114228696E-02 -0.59360502858E-02  0.22108031184E-01  0.00000000000E+00 0. -1.
     999901    1    3    3    0    0  0.43830064436E-01 -0.13115051280E+00  0.18854180455E-01  0.89099776188E+00  0.88000000000E+00 0. -1.
        -11    1    4    4    0    0 -0.12606164723E-01  0.24538328354E-01 -0.13025055692E-03  0.27592082807E-01  0.51100000000E-03 0. -1.
         11    1    4    4    0    0 -0.10455393644E-01  0.10190076158E+00 -0.12787879613E-01  0.10323212413E+00  0.51100000000E-03 0.  1.
</event>
<event>
 8    1  0.1081309E+005  0.1043930E+01  0.7957747E-01            NaN
         13   -1    0    0    0    0  0.00000000000E+00  0.00000000000E+00  0.74505805969E-08  0.10566000000E+00  0.10566000000E+00 0.  1.
     999900   -1    0    0    0    0 -0.00000000000E+00 -0.00000000000E+00 -0.74505805969E-08  0.93827000000E+00  0.93827000000E+00 0. -1.
     999902    2    1    2    0    0 -0.11676401457E-01  0.63128237259E-02  0.19515727971E-01  0.10203280142E+01  0.10200549999E+01 0.  0.
     999903    2    3    3    0    0 -0.34777219074E-01  0.25220343420E-01 -0.11978419307E+00  0.12887099895E+00  0.20346025993E-01 0.  0.
         14    1    1    2    0    0  0.11676401457E-01 -0.63128237259E-02 -0.19515727971E-01  0.23601985777E-01  0.00000000000E+00 0. -1.
     999901    1    3    3    0    0  0.23100817617E-01 -0.18907519694E-01  0.13929992104E+00  0.89145701527E+00  0.88000000000E+00 0.  1.
        -11    1    4    4    0    0 -0.36503281779E-01  0.24535672037E-01 -0.10330220178E+00  0.11227686670E+00  0.51100000000E-03 0.  1.
         11    1    4    4    0    0  0.17260627049E-02  0.68467138322E-03 -0.16481991288E-01  0.16594132251E-01  0.51100000000E-03 0. -1.
</event>
<event>
 8    1  0.1081309E+005  0.1043930E+01  0.7957747E-01            NaN
         13   -1    0    0    0    0  0.00000000000E+00  0.00000000000E+00  0.74505805969E-08  0.10566000000E+00  0.10566000000E+00 0.  1.
     999900   -1    0    0    0    0 -0.00000000000E+00 -0.00000000000E+00 -0.74505805969E-08  0.93827000000E+00  0.93827000000E+00 0.  1.
     999902    2    1    2    0    0 -0.72860329209E-02 -0.13699245740E-01 -0.18462833885E-01  0.10198129553E+01  0.10195277495E+01 0.  0.
     999903    2    3    3    0    0 -0.95113448778E-01 -0.86326629140E-01  0.20789715416E-01  0.13159611555E+00  0.19658848516E-01 0.  0.
         14    1    1    2    0    0  0.72860329209E-02  0.13699245740E-01  0.18462833885E-01  0.24117044691E-01  0.00000000000E+00 0.  1.
     999901    1    3    3    0    0  0.87827415857E-01  0.72627383400E-01 -0.39252549301E-01  0.88821683975E+00  0.88000000000E+00 0.  1.
        -11    1    4    4    0    0 -0.45850843445E-01 -0.40513666413E-01  0.17844016641E-04  0.61187567776E-01  0.51100000000E-03 0. -1.
         11    1    4    4    0    0 -0.49262605332E-01 -0.45812962727E-01  0.20771871399E-01  0.70408547779E-01  0.51100000000E-03 0.  1.
</event>
<event>
 8    1  0.1081309E+005  0.1043930E+01  0.7957747E-01            NaN
         13   -1    0    0    0    0  0.00000000000E+00  0.00000000000E+00  0.74505805969E-08  0.10566000000E+00  0.10566000000E+00 0.  1.
     999900   -1    0    0    0    0 -0.00000000000E+00 -0.00000000000E+00 -0.74505805969E-08  0.93827000000E+00  0.93827000000E+00 0.  1.
     999902    2    1    2    0    0  0.14731501812E-01 -0.16600548398E-02  0.17831728326E-01  0.10207407037E+01  0.10204772613E+01 0.  0.
     999903    2    3    3    0    0 -0.14872981097E-01  0.10818659962E-01  0.13009032272E+00  0.13302783585E+00  0.20848598892E-01 0.  0.
         14    1    1    2    0    0 -0.14731501812E-01  0.16600548398E-02 -0.17831728326E-01  0.23189296298E-01  0.00000000000E+00 0. -1.
     999901    1    3    3    0    0  0.29604482909E-01 -0.12478714802E-01 -0.11225859439E+00  0.88771286785E+00  0.88000000000E+00 0.  1.
        -11    1    4    4    0    0  0.41773114851E-03  0.61592938212E-02  0.92427031546E-02  0.11126548535E-01  0.51100000000E-03 0. -1.
         11    1    4    4    0    0 -0.15290712245E-01  0.46593661408E-02  0.12084761957E+00  0.12190128732E+00  0.51100000000E-03 0.  1.
</event>
<event>
 8    1  0.1081309E+005  0.1043930E+01  0.7957747E-01            NaN
         13   -1    0    0    0    0  0.00000000000E+00  0.00000000000E+00  0.74505805969E-08  0.10566000000E+00  0.10566000000E+00 0. -1.
     999900   -1    0    0    0    0 -0.00000000000E+00 -0.00000000000E+00 -0.74505805969E-08  0.93827000000E+00  0.93827000000E+00 0.  1.
     999902    2    1    2    0    0  0.22490730022E-01  0.67592113690E-02 -0.54164782076E-02  0.10198290019E+01  0.10195441800E+01 0.  0.
     999903    2    3    3    0    0 -0.85318502526E-01 -0.90559093904E-01  0.19635462187E-01  0.12757271419E+00  0.20224976363E-01 0.  0.
         14    1    1    2    0    0 -0.22490730022E-01 -0.67592113690E-02  0.54164782076E-02  0.24100998142E-01  0.00000000000E+00 0.  1.
     999901    1    3    3    0    0  0.10780923255E+00  0.97318305273E-01 -0.25051940394E-01  0.89225628767E+00  0.88000000000E+00 0.  1.
        -11    1    4    4    0    0 -0.70690251411E-01 -0.81017320853E-01  0.11004403156E-01  0.10808457768E+00  0.51100000000E-03 0. -1.
         11    1    4    4    0    0 -0.14628251115E-01 -0.95417730505E-02  0.86310590304E-02  0.19488136510E-01  0.51100000000E-03 0.  1.
</event>
<event>
 8    1  0.1081309E+005  0.1043930E+01  0.7957747E-01            NaN
         13   -1    0    0    0    0  0.00000000000E+00  0.00000000000E+00  0.74505805969E-08  0.10566000000E+00  0.10566000000E+00 0. -1.
     999900   -1    0    0    0    0 -0.00000000000E+00 -0.00000000000E+00 -0.74505805969E-08  0.93827000000E+00  0.93827000000E+00 0.  1.
     999902    2    1    2    0    0  0.12354474462E-01  0.19833152667E-01  0.20191484259E-02  0.10204765579E+01  0.10202070091E+01 0.  0.
     999903    2    3    3    0    0  0.62308495287E-01  0.89853336231E-01 -0.73272280031E-01  0.13308316744E+00  0.19655325465E-01 0.  0.
         14    1    1    2    0    0 -0.12354474462E-01 -0.19833152667E-01 -0.20191484259E-02  0.23453442057E-01  0.00000000000E+00 0. -1.
     999901    1    3    3    0    0 -0.49954020825E-01 -0.70020183564E-01  0.75291428457E-01  0.88739339050E+00  0.88000000000E+00 0. -1.
        -11    1    4    4    0    0  0.70973875975E-02  0.12220197227E-01 -0.18190015017E-01  0.23040049876E-01  0.51100000000E-03 0.  1.
         11    1    4    4    0    0  0.55211107690E-01  0.77633139004E-01 -0.55082265014E-01  0.11004311757E+00  0.51100000000E-03 0. -1.
</event>
<event>
 8    1  0.1081309E+005  0.1043930E+01  0.7957747E-01            NaN
         13   -1    0    0    0    0  0.00000000000E+00  0.00000000000E+00  0.74505805969E-08  0.10566000000E+00  0.10566000000E+00 0. -1.
     999900   -1    0    0    0    0 -0.00000000000E+00 -0.00000000000E+00 -0.74505805969E-08  0.93827000000E+00  0.93827000000E+00 0.  1.
     999902    2    1    2    0    0 -0.16784028150E-01 -0.37407251363E-02 -0.10002261001E-01  0.10240367386E+01  0.10238434939E+01 0.  0.
     999903    2    3    3    0    0 -0.57841085232E-01  0.42081639933E-01  0.11114281752E+00  0.13360903171E+00  0.19549729086E-01 0.  0.
         14    1    1    2    0    0  0.16784028150E-01  0.37407251363E-02  0.10002261001E-01  0.19893261438E-01  0.00000000000E+00 0. -1.
     999901    1    3    3    0    0  0.41057057082E-01 -0.45822365069E-01 -0.12114507853E+00  0.89042770685E+00  0.88000000000E+00 0.  1.
        -11    1    4    4    0    0 -0.34936241576E-01  0.13997434204E-01  0.62303453396E-01  0.72790456557E-01  0.51100000000E-03 0.  1.
         11    1    4    4    0    0 -0.22904843656E-01  0.28084205728E-01  0.48839364129E-01  0.60818575155E-01  0.51100000000E-03 0. -1.
</event>
<event>
 8    1  0.1081309E+005  0.1043930E+01  0.7957747E-01            NaN
         13   -1    0    0    0    0  0.00000000000E+00  0.00000000000E+00  0.74505805969E-08  0.10566000000E+00  0.10566000000E+00 0.  1.
     999900   -1    0    0    0    0 -0.00000000000E+00 -0.00000000000E+00 -0.74505805969E-08  0.93827000000E+00  0.93827000000E+00 0.  1.
     999902    2    1    2    0    0  0.22377041380E-01 -0.71006243462E-02 -0.23142262686E-02  0.10203396102E+01  0.10200668673E+01 0.  0.
     999903    2    3    3    0    0  0.10298920493E+00 -0.73330916006E-01 -0.39047621064E-01  0.13341564801E+00  0.17053411635E-01 0.  0.
         14    1    1    2    0    0 -0.22377041380E-01  0.71006243462E-02  0.23142262686E-02  0.23590389786E-01  0.00000000000E+00 0.  1.
     999901    1    3    3    0    0 -0.80612163547E-01  0.66230291660E-01  0.36733394795E-01  0.88692396221E+00  0.88000000000E+00 0.  1.
        -11    1    4    4    0    0  0.83502033959E-01 -0.63214625648E-01 -0.38050306505E-01  0.11143054122E+00  0.51100000000E-03 0. -1.
         11    1    4    4    0    0  0.19487170968E-01 -0.10116290358E-01 -0.99731455901E-03  0.21985106783E-01  0.51100000000E-03 0.  1.
</event>
<event>
 8    1  0.1081309E+005  0.1043930E+01  0.7957747E-01            NaN
         13   -1    0    0    0    0  0.00000000000E+00  0.00000000000E+00  0.74505805969E-08  0.10566000000E+00  0.10566000000E+00 0.  1.
     999900   -1    0    0    0    0 -0.00000000000E+00 -0.00000000000E+00 -0.74505805969E-08  0.93827000000E+00  0.93827000000E+00 0. -1.
     999902    2    1    2    0    0 -0.20576500909E-01 -0.29129402467E-02 -0.12133183876E-01  0.10198656745E+01  0.10195817291E+01 0.  0.
     999903    2    3    3    0    0  0.14033906408E-01 -0.56875606916E-01 -0.11576338381E+00  0.13146876544E+00  0.21238880954E-01 0.  0.
         14    1    1    2    0    0  0.20576500909E-01  0.29129402467E-02  0.12133183876E-01  0.24064325495E-01  0.00000000000E+00 0.  1.
     999901    1    3    3    0    0 -0.34610407317E-01  0.53962666670E-01  0.10363019994E+00  0.88839690906E+00  0.88000000000E+00 0.  1.
        -11    1    4    4    0    0 -0.49939544462E-02 -0.21829574765E-01 -0.43664106852E-01  0.49074283118E-01  0.51100000000E-03 0.  1.
         11    1    4    4    0    0  0.19027860854E-01 -0.35046032151E-01 -0.72099276963E-01  0.82394482327E-01  0.51100000000E-03 0. -1.
</event>
<event>
 8    1  0.1081309E+005  0.1043930E+01  0.7957747E-01            NaN
         13   -1    0    0    0    0  0.00000000000E+00  0.00000000000E+00  0.74505805969E-08  0.10566000000E+00  0.10566000000E+00 0. -1.
     999900   -1    0    0    0    0 -0.00000000000E+00 -0.00000000000E+00 -0.74505805969E-08  0.93827000000E+00  0.93827000000E+00 0.  1.
     999902    2    1    2    0    0  0.99130109979E-02  0.92336865469E-02  0.18415479786E-01  0.10210682711E+01  0.10208123018E+01 0.  0.
     999903    2    3    3    0    0 -0.55520479133E-01  0.46206568227E-01  0.11002666216E+00  0.13312618717E+00  0.19978607873E-01 0.  0.
         14    1    1    2    0    0 -0.99130109979E-02 -0.92336865469E-02 -0.18415479786E-01  0.22861728938E-01  0.00000000000E+00 0.  1.
     999901    1    3    3    0    0  0.65433490131E-01 -0.36972881680E-01 -0.91611182378E-01  0.88794208389E+00  0.88000000000E+00 0. -1.
        -11    1    4    4    0    0 -0.21422367574E-01  0.28190364267E-01  0.63369141632E-01  0.72591485053E-01  0.51100000000E-03 0. -1.
         11    1    4    4    0    0 -0.34098111560E-01  0.18016203960E-01  0.46657520532E-01  0.60534702116E-01  0.51100000000E-03 0.  1.
</event>
<event>
 8    1  0.1081309E+005  0.1043930E+01  0.7957747E-01            NaN
         13   -1    0    0    0    0  0.00000000000E+00  0.00000000000E+00  0.74505805969E-08  0.10566000000E+00  0.10566000000E+00 0.  1.
     999900   -1    0    0    0    0 -0.00000000000E+00 -0.00000000000E+00 -0.74505805969E-08  0.93827000000E+00  0.93827000000E+00 0.  1.
     999902    2    1    2    0    0 -0.67568333808E-02  0.90984688713E-02  0.20804411512E-01  0.10202390635E+01  0.10199639632E+01 0.  0.
     999903    2    3    3    0    0  0.53881763975E-01 -0.91682068484E-01  0.73645846812E-01  0.13084265387E+00  0.19678494599E-01 0.  0.
         14    1    1    2    0    0  0.67568333808E-02 -0.90984688713E-02 -0.20804411512E-01  0.23690936484E-01  0.00000000000E+00 0. -1.
     999901    1    3    3    0    0 -0.60638597356E-01  0.10078053736E+00 -0.52841435300E-01  0.88939640964E+00  0.88000000000E+00 0.  1.
        -11    1    4    4    0    0  0.34574993692E-01 -0.64702643908E-01  0.39874201328E-01  0.83498954306E-01  0.51100000000E-03 0.  1.
         11    1    4    4    0    0  0.19306770283E-01 -0.26979424575E-01  0.33771645484E-01  0.47343699569E-01  0.51100000000E-03 0. -1.
</event>
<event>
 8    1  0.1081309E+005  0.1043930E+01  0.7957747E-01            NaN
         13   -1    0    0    0    0  0.00000000000E+00  0.00000000000E+00  0.74505805969E-08  0.10566000000E+00  0.10566000000E+00 0. -1.
     999900   -1    0    0    0    0 -0.00000000000E+00 -0.00000000000E+00 -0.74505805969E-08  0.93827000000E+00  0.93827000000E+00 0. -1.
     999902    2    1    2    0    0  0.10640350701E-01  0.53279585927E-03 -0.19448840075E-01  0.10217543757E+01  0.10215137032E+01 0.  0.
     999903    2    3    3    0    0  0.30342055966E-01  0.81923854379E-01  0.94781762449E-01  0.13042879421E+00  0.19897979552E-01 0.  0.
         14    1    1    2    0    0 -0.10640350701E-01 -0.53279585927E-03  0.19448840075E-01  0.22175624337E-01  0.00000000000E+00 0. -1.
     999901    1    3    3    0    0 -0.19701705264E-01 -0.81391058519E-01 -0.11423060252E+00  0.89132558145E+00  0.88000000000E+00 0. -1.
        -11    1    4    4    0    0  0.32023745141E-01  0.66282969794E-01  0.74240093496E-01  0.10455048991E+00  0.51100000000E-03 0. -1.
         11    1    4    4    0    0 -0.16816891754E-02  0.15640884584E-01  0.20541668953E-01  0.25878304300E-01  0.51100000000E-03 0.  1.
</event>
<event>
 8    1  0.1081309E+005  0.1043930E+01  0.7957747E-01            NaN
         13   -1    0    0    0    0  0.00000000000E+00  0.00000000000E+00  0.74505805969E-08  0.10566000000E+00  0.10566000000E+00 0. -1.
     999900   -1    0    0    0    0 -0.00000000000E+00 -0.00000000000E+00 -0.74505805969E-08  0.93827000000E+00  0.93827000000E+00 0.  1.
     999902    2    1    2    0    0  0.33835611848E-02 -0.15050264166E-01  0.18356525069E-01  0.10199524907E+01  0.10196706147E+01 0.  0.
     999903    2    3    3    0    0 -0.53149016458E-01  0.36725144501E-01 -0.10809518428E+00  0.12761474074E+00  0.20673630560E-01 0.  0.
         14    1    1    2    0    0 -0.33835611848E-02  0.15050264166E-01 -0.18356525069E-01  0.23977509261E-01  0.00000000000E+00 0.  1.
     999901    1    3    3    0    0  0.56532577642E-01 -0.51775408666E-01  0.12645170935E+00  0.89233775000E+00  0.88000000000E+00 0. -1.
        -11    1    4    4    0    0 -0.28375792324E-01  0.31135808487E-01 -0.73125958866E-01  0.84393667661E-01  0.51100000000E-03 0.  1.
         11    1    4    4    0    0 -0.24773224133E-01  0.55893360133E-02 -0.34969225414E-01  0.43221073079E-01  0.51100000000E-03 0. -1.
</event>
<event>
 8    1  0.1081309E+005  0.1043930E+01  0.7957747E-01            NaN
         13   -1    0    0    0    0  0.00000000000E+00  0.00000000000E+00  0.74505805969E-08  0.10566000000E+00  0.10566000000E+00 0.  1.
     999900   -1    0    0    0    0 -0.00000000000E+00 -0.00000000000E+00 -0.74505805969E-08  0.93827000000E+00  0.93827000000E+00 0.  1.
     999902    2    1    2    0    0 -0.20288417442E-01  0.12640762333E-01  0.57695427329E-02  0.10193394250E+01  0.10190427700E+01 0.  0.
     999903    2    3    3    0    0  0.87004474378E-01  0.50663968773E-01  0.79426409472E-01  0.12895587683E+00  0.13581139644E-01 0.  0.
         14    1    1    2    0    0  0.20288417442E-01 -0.12640762333E-01 -0.57695427329E-02  0.24590574983E-01  0.00000000000E+00 0. -1.
     999901    1    3    3    0    0 -0.10729289182E+00 -0.38023206440E-01 -0.73656866739E-01  0.89038354819E+00  0.88000000000E+00 0. -1.
        -11    1    4    4    0    0  0.71200955480E-01  0.41342549479E-01  0.71163511676E-01  0.10882687616E+00  0.51100000000E-03 0. -1.
         11    1    4    4    0    0  0.15803518897E-01  0.93214192936E-02  0.82628977957E-02  0.20129000675E-01  0.51100000000E-03 0.  1.
</event>
<event>
 8    1  0.1081309E+005  0.1043930E+01  0.7957747E-01            NaN
         13   -1    0    0    0    0  0.00000000000E+00  0.00000000000E+00  0.74505805969E-08  0.10566000000E+00  0.10566000000E+00 0.  1.
     999900   -1    0    0    0    0 -0.00000000000E+00 -0.00000000000E+00 -0.74505805969E-08  0.93827000000E+00  0.93827000000E+00 0.  1.
     999902    2    1    2    0    0 -0.91145331943E-02  0.27392636504E-02 -0.23116701813E-01  0.10189307963E+01  0.10186240757E+01 0.  0.
     999903    2    3    3    0    0  0.24408358405E-01  0.63685951889E-01 -0.11111171634E+00  0.13181107181E+00  0.19408161089E-01 0.  0.
         14    1    1    2    0    0  0.91145331943E-02 -0.27392636504E-02  0.23116701813E-01  0.24999203655E-01  0.00000000000E+00 0.  1.
     999901    1    3    3    0    0 -0.33522891599E-01 -0.60946688239E-01  0.87995014527E-01  0.88711972453E+00  0.88000000000E+00 0. -1.
        -11    1    4    4    0    0  0.11730021775E-01  0.52280028943E-01 -0.88958778227E-01  0.10384950737E+00  0.51100000000E-03 0.  1.
         11    1    4    4    0    0  0.12678336629E-01  0.11405922946E-01 -0.22152938113E-01  0.27961564441E-01  0.51100000000E-03 0. -1.
</event>
<event>
 8    1  0.1081309E+005  0.1043930E+01  0.7957747E-01            NaN
         13   -1    0    0    0    0  0.00000000000E+00  0.00000000000E+00  0.74505805969E-08  0.10566000000E+00  0.10566000000E+00 0. -1.
     999900   -1    0    0    0    0 -0.00000000000E+00 -0.00000000000E+00 -0.74505805969E-08  0.93827000000E+00  0.93827000000E+00 0.  1.
     999902    2    1    2    0    0  0.14851793886E-01 -0.17019779412E-01 -0.25366177340E-02  0.10211993356E+01  0.10209463257E+01 0.  0.
     999903    2    3    3    0    0  0.74283588226E-01 -0.62488236008E-01  0.89060063929E-01  0.13328634958E+00  0.20266348392E-01 0.  0.
         14    1    1    2    0    0 -0.14851793886E-01  0.17019779412E-01  0.25366177340E-02  0.22730664363E-01  0.00000000000E+00 0. -1.
     999901    1    3    3    0    0 -0.59431794340E-01  0.45468456596E-01 -0.91596681663E-01  0.88791298606E+00  0.88000000000E+00 0.  1.
        -11    1    4    4    0    0  0.46210599454E-01 -0.31745773193E-01  0.39631890328E-01  0.68659751452E-01  0.51100000000E-03 0. -1.
         11    1    4    4    0    0  0.28072988772E-01 -0.30742462815E-01  0.49428173601E-01  0.64626598124E-01  0.51100000000E-03 0.  1.
</event>
<event>
 8    1  0.1081309E+005  0.1043930E+01  0.7957747E-01            NaN
         13   -1    0    0    0    0  0.00000000000E+00  0.00000000000E+00  0.74505805969E-08  0.10566000000E+00  0.10566000000E+00 0.  1.
     999900   -1    0    0    0    0 -0.00000000000E+00 -0.00000000000E+00 -0.74505805969E-08  0.93827000000E+00  0.93827000000E+00 0.  1.
     999902    2    1    2    0    0  0.15495114622E-01 -0.67541713547E-02  0.15629409339E-01  0.10209083614E+01  0.10206487577E+01 0.  0.
     999903    2    3    3    0    0  0.57089293867E-01  0.10804942353E+00 -0.41696883125E-01  0.13062961574E+00  0.19788912230E-01 0.  0.
         14    1    1    2    0    0 -0.15495114622E-01  0.67541713547E-02 -0.15629409339E-01  0.23021638607E-01  0.00000000000E+00 0. -1.
     999901    1    3    3    0    0 -0.41594179245E-01 -0.11480359489E+00  0.57326292464E-01  0.89027874565E+00  0.88000000000E+00 0. -1.
        -11    1    4    4    0    0  0.40943002494E-01  0.63965566101E-01 -0.33326637867E-01  0.82938826929E-01  0.51100000000E-03 0. -1.
         11    1    4    4    0    0  0.16146291373E-01  0.44083857432E-01 -0.83702452579E-02  0.47690788816E-01  0.51100000000E-03 0.  1.
</event>
<event>
 8    1  0.1081309E+005  0.1043930E+01  0.7957747E-01            NaN
         13   -1    0    0    0    0  0.00000000000E+00  0.00000000000E+00  0.74505805969E-08  0.10566000000E+00  0.10566000000E+00 0. -1.
     999900   -1    0    0    0    0 -0.00000000000E+00 -0.00000000000E+00 -0.74505805969E-08  0.93827000000E+00  0.93827000000E+00 0. -1.
     999902    2    1    2    0    0  0.20185664603E-01 -0.18723407443E-02 -0.15565889066E-01  0.10183709778E+01  0.10180501877E+01 0.  0.
     999903    2    3    3    0    0 -0.28037421191E-01  0.94200042183E-01 -0.81917814108E-01  0.12935019807E+00  0.19005276603E-01 0.  0.
         14    1    1    2    0    0 -0.20185664603E-01  0.18723407443E-02  0.15565889066E-01  0.25559022237E-01  0.00000000000E+00 0.  1.
     999901    1    3    3    0    0  0.48223085793E-01 -0.96072382927E-01  0.66351925042E-01  0.88902077969E+00  0.88000000000E+00 0.  1.
        -11    1    4    4    0    0 -0.14373485234E-01  0.74761009287E-01 -0.65878444147E-01  0.10067788293E+00  0.51100000000E-03 0.  1.
         11    1    4    4    0    0 -0.13663935957E-01  0.19439032896E-01 -0.16039369962E-01  0.28672315141E-01  0.51100000000E-03 0. -1.
</event>
<event>
 8    1  0.1081309E+005  0.1043930E+01  0.7957747E-01            NaN
         13   -1    0    0    0    0  0.00000000000E+00  0.00000000000E+00  0.74505805969E-08  0.10566000000E+00  0.10566000000E+00 0. -1.
     999900   -1    0    0    0    0 -0.00000000000E+00 -0.00000000000E+00 -0.74505805969E-08  0.93827000000E+00  0.93827000000E+00 0.  1.
     999902    2    1    2    0    0  0.12622995641E-01 -0.97486777321E-02  0.18183781244E-01  0.10197426761E+01  0.10194557856E+01 0.  0.
     999903    2    3    3    0    0  0.15251986604E-01  0.88140849158E-01 -0.89077201582E-01  0.12783786645E+00  0.20157873660E-01 0.  0.
         14    1    1    2    0    0 -0.12622995641E-01  0.97486777321E-02 -0.18183781244E-01  0.24187323887E-01  0.00000000000E+00 0.  1.
     999901    1    3    3    0    0 -0.26289909626E-02 -0.97889526890E-01  0.10726098283E+00  0.89190480967E+00  0.88000000000E+00 0.  1.
        -11    1    4    4    0    0  0.10112886250E-01  0.16912257011E-01 -0.13720773569E-01  0.24016986777E-01  0.51100000000E-03 0. -1.
         11    1    4    4    0    0  0.51391003541E-02  0.71228592147E-01 -0.75356428013E-01  0.10382087967E+00  0.51100000000E-03 0.  1.
</event>
<event>
 8    1  0.1081309E+005  0.1043930E+01  0.7957747E-01            NaN
         13   -1    0    0    0    0  0.00000000000E+00  0.00000000000E+00  0.74505805969E-08  0.10566000000E+00  0.10566000000E+00 0.  1.
     999900   -1    0    0    0    0 -0.00000000000E+00 -0.00000000000E+00 -0.74505805969E-08  0.93827000000E+00  0.93827000000E+00 0.  1.
     999902    2    1    2    0    0  0.16882962904E-01 -0.12786293610E-01 -0.10499768032E-01  0.10202917076E+01  0.10200178428E+01 0.  0.
     999903    2    3    3    0    0  0.49977289655E-02  0.12659952101E+00  0.16855089390E-01  0.12882216107E+00  0.16082261279E-01 0.  0.
         14    1    1    2    0    0 -0.16882962904E-01  0.12786293610E-01  0.10499768032E-01  0.23638292439E-01  0.00000000000E+00 0.  1.
     999901    1    3    3    0    0  0.11885233938E-01 -0.13938581462E+00 -0.27354857423E-01  0.89146954650E+00  0.88000000000E+00 0.  1.
        -11    1    4    4    0    0  0.16713776433E-02  0.79783261212E-01  0.18257006926E-01  0.81864166127E-01  0.51100000000E-03 0. -1.
         11    1    4    4    0    0  0.33263513222E-02  0.46816259801E-01 -0.14019175358E-02  0.46957994939E-01  0.51100000000E-03 0.  1.
</event>
<event>
 8    1  0.1081309E+005  0.1043930E+01  0.7957747E-01            NaN
         13   -1    0    0    0    0  0.00000000000E+00  0.00000000000E+00  0.74505805969E-08  0.10566000000E+00  0.10566000000E+00 0.  1.
     999900   -1    0    0    0    0 -0.00000000000E+00 -0.00000000000E+00 -0.74505805969E-08  0.93827000000E+00  0.93827000000E+00 0. -1.
     999902    2    1    2    0    0 -0.20501142694E-01 -0.75958252908E-04  0.17165366188E-01  0.10171914058E+01  0.10168399106E+01 0.  0.
     999903    2    3    3    0    0 -0.91917049945E-01 -0.79977764961E-01  0.41571413776E-01  0.13035422479E+00  0.20465935586E-01 0.  0.
         14    1    1    2    0    0  0.20501142694E-01  0.75958252908E-04 -0.17165366188E-01  0.26738594163E-01  0.00000000000E+00 0. -1.
     999901    1    3    3    0    0  0.71415907251E-01  0.79901806708E-01 -0.24406047588E-01  0.88683718104E+00  0.88000000000E+00 0.  1.
        -11    1    4    4    0    0 -0.64763369476E-01 -0.49599127432E-01  0.36221545559E-01  0.89255974319E-01  0.51100000000E-03 0.  1.
         11    1    4    4    0    0 -0.27153680468E-01 -0.30378637530E-01  0.53498682173E-02  0.41098250475E-01  0.51100000000E-03 0. -1.
</event>
<event>
 8    1  0.1081309E+005  0.1043930E+01  0.7957747E-01            NaN
         13   -1    0    0    0    0  0.00000000000E+00  0.00000000000E+00  0.74505805969E-08  0.10566000000E+00  0.10566000000E+00 0. -1.
     999900   -1    0    0    0    0 -0.00000000000E+00 -0.00000000000E+00 -0.74505805969E-08  0.93827000000E+00  0.93827000000E+00 0. -1.
     999902    2    1    2    0    0  0.18120051113E-01 -0.11040492389E-02 -0.15010322165E-01  0.10203744285E+01  0.10201024995E+01 0.  0.
     999903    2    3    3    0    0 -0.60362515686E-01 -0.97178070788E-01 -0.59881565916E-01  0.13054120850E+00  0.19183181109E-01 0.  0.
         14    1    1    2    0    0 -0.18120051113E-01  0.11040492389E-02  0.15010322165E-01  0.23555571497E-01  0.00000000000E+00 0. -1.
     999901    1    3    3    0    0  0.78482566800E-01  0.96074021549E-01  0.44871243751E-01  0.88983322000E+00  0.88000000000E+00 0.  1.
        -11    1    4    4    0    0 -0.32387754655E-01 -0.52776094230E-01 -0.43080825641E-01  0.75435412325E-01  0.51100000000E-03 0.  1.
         11    1    4    4    0    0 -0.27974761031E-01 -0.44401976558E-01 -0.16800740274E-01  0.55105796173E-01  0.51100000000E-03 0. -1.
</event>
<event>
 8    1  0.1081309E+005  0.1043930E+01  0.7957747E-01            NaN
         13   -1    0    0    0    0  0.00000000000E+00  0.00000000000E+00  0.74505805969E-08  0.10566000000E+00  0.10566000000E+00 0. -1.
     999900   -1    0    0    0    0 -0.00000000000E+00 -0.00000000000E+00 -0.74505805969E-08  0.93827000000E+00  0.93827000000E+00 0. -1.
     999902    2    1    2    0    0 -0.35476359498E-02 -0.13492967122E-01  0.19354932762E-01  0.10200708444E+01  0.10197917770E+01 0.  0.
     999903    2    3    3    0    0 -0.49746425868E-01  0.94484479023E-01 -0.68651371659E-01  0.12791695261E+00  0.15738877686E-01 0.  0.
         14    1    1    2    0    0  0.35476359498E-02  0.13492967122E-01 -0.19354932762E-01  0.23859155576E-01  0.00000000000E+00 0.  1.
     999901    1    3    3    0    0  0.46198789918E-01 -0.10797744614E+00  0.88006304421E-01  0.89215389182E+00  0.88000000000E+00 0.  1.
        -11    1    4    4    0    0 -0.19224005778E-01  0.31953248518E-01 -0.32670222091E-01  0.49580006268E-01  0.51100000000E-03 0.  1.
         11    1    4    4    0    0 -0.30522420090E-01  0.62531230505E-01 -0.35981149567E-01  0.78336946339E-01  0.51100000000E-03 0. -1.
</event>
<event>
 8    1  0.1081309E+005  0.1043930E+01  0.7957747E-01            NaN
         13   -1    0    0    0    0  0.00000000000E+00  0.00000000000E+00  0.74505805969E-08  0.10566000000E+00  0.10566000000E+00 0.  1.
     999900   -1    0    0    0    0 -0.00000000000E+00 -0.00000000000E+00 -0.74505805969E-08  0.93827000000E+00  0.93827000000E+00 0.  1.
     999902    2    1    2    0    0  0.30032439493E-02 -0.20474713560E-01 -0.17293042116E-01  0.10169618211E+01  0.10166041820E+01 0.  0.
     999903    2    3    3    0    0  0.86703555842E-01 -0.89138022344E-01  0.28618133567E-01  0.12913963828E+00  0.19873474376E-01 0.  0.
         14    1    1    2    0    0 -0.30032439493E-02  0.20474713560E-01  0.17293042116E-01  0.26968178937E-01  0.00000000000E+00 0.  1.
     999901    1    3    3    0    0 -0.83700311892E-01  0.68663308784E-01 -0.45911175683E-01  0.88782218278E+00  0.88000000000E+00 0. -1.
        -11    1    4    4    0    0  0.81833647173E-01 -0.85269699998E-01  0.31431952758E-01  0.12229430209E+00  0.51100000000E-03 0.  1.
         11    1    4    4    0    0  0.48699086682E-02 -0.38683223466E-02 -0.28138191902E-02  0.68453361970E-02  0.51100000000E-03 0. -1.
</event>
<event>
 8    1  0.1081309E+005  0.1043930E+01  0.7957747E-01            NaN
         13   -1    0    0    0    0  0.00000000000E+00  0.00000000000E+00  0.74505805969E-08  0.10566000000E+00  0.10566000000E+00 0. -1.
     999900   -1    0    0    0    0 -0.00000000000E+00 -0.00000000000E+00 -0.74505805969E-08  0.93827000000E+00  0.93827000000E+00 0. -1.
     999902    2    1    2    0    0 -0.17429854363E-01 -0.91503797974E-02  0.12112673573E-01  0.10208162350E+01  0.10205545254E+01 0.  0.
     999903    2    3    3    0    0  0.34029067893E-01  0.77092487351E-01  0.97433174918E-01  0.13100420943E+00  0.23825411775E-01 0.  0.
         14    1    1    2    0    0  0.17429854363E-01  0.91503797974E-02 -0.12112673573E-01  0.23113765047E-01  0.00000000000E+00 0.  1.
     999901    1    3    3    0    0 -0.51458922257E-01 -0.86242867149E-01 -0.85320501346E-01  0.88981202552E+00  0.88000000000E+00 0. -1.
        -11    1    4    4    0    0  0.36448284859E-01  0.68505084465E-01  0.80226086910E-01  0.11161500889E+00  0.51100000000E-03 0. -1.
         11    1    4    4    0    0 -0.24192169652E-02  0.85874028867E-02  0.17207088008E-01  0.19389200545E-01  0.51100000000E-03 0.  1.
</event>
<event>
 8    1  0.1081309E+005  0.1043930E+01  0.7957747E-01            NaN
         13   -1    0    0    0    0  0.00000000000E+00  0.00000000000E+00  0.74505805969E-08  0.10566000000E+00  0.10566000000E+00 0.  1.
     999900   -1    0    0    0    0 -0.00000000000E+00 -0.00000000000E+00 -0.74505805969E-08  0.93827000000E+00  0.93827000000E+00 0.  1.
     999902    2    1    2    0    0  0.17588205620E-01 -0.12329009662E-01  0.10564553644E-01  0.10199934328E+01  0.10197125299E+01 0.  0.
     999903    2    3    3    0    0 -0.90118347349E-01 -0.77680119662E-01  0.48982274295E-01  0.13019155013E+00  0.19876091399E-01 0.  0.
         14    1    1    2    0    0 -0.17588205620E-01  0.12329009662E-01 -0.10564553644E-01  0.23936567211E-01  0.00000000000E+00 0. -1.
     999901    1    3    3    0    0  0.10770655297E+00  0.65351110000E-01 -0.38417720652E-01  0.88980188266E+00  0.88000000000E+00 0.  1.
        -11    1    4    4    0    0 -0.54402032743E-01 -0.48105858353E-01  0.40155870959E-01  0.82984997849E-01  0.51100000000E-03 0. -1.
         11    1    4    4    0    0 -0.35716314606E-01 -0.29574261308E-01  0.88264033361E-02  0.47206552276E-01  0.51100000000E-03 0.  1.
</event>
<event>
 8    1  0.1081309E+005  0.1043930E+01  0.7957747E-01            NaN
         13   -1    0    0    0    0  0.00000000000E+00  0.00000000000E+00  0.74505805969E-08  0.10566000000E+00  0.10566000000E+00 0.  1.
     999900   -1    0    0    0    0 -0.00000000000E+00 -0.00000000000E+00 -0.74505805969E-08  0.93827000000E+00  0.93827000000E+00 0. -1.
     999902    2    1    2    0    0 -0.21727712422E-01  0.28288649358E-03  0.71669382856E-02  0.10210490359E+01  0.10207926309E+01 0.  0.
     999903    2    3    3    0    0 -0.99024401851E-01 -0.64684751406E-01 -0.56659259456E-01  0.13297845559E+00  0.21978369866E-01 0.  0.
         14    1    1    2    0    0  0.21727712422E-01 -0.28288649358E-03 -0.71669382856E-02  0.22880964059E-01  0.00000000000E+00 0. -1.
     999901    1    3    3    0    0  0.77296689429E-01  0.64967637899E-01  0.63826197741E-01  0.88807058035E+00  0.88000000000E+00 0.  1.
        -11    1    4    4    0    0 -0.49052183211E-01 -0.41934869317E-01 -0.22677870913E-01  0.68404655489E-01  0.51100000000E-03 0.  1.
         11    1    4    4    0    0 -0.49972218641E-01 -0.22749882089E-01 -0.33981388543E-01  0.64573800099E-01  0.51100000000E-03 0. -1.
</event>
<event>
 8    1  0.1081309E+005  0.1043930E+01  0.7957747E-01            NaN
         13   -1    0    0    0    0  0.00000000000E+00  0.00000000000E+00  0.74505805969E-08  0.10566000000E+00  0.10566000000E+00 0.  1.
     999900   -1    0    0    0    0 -0.00000000000E+00 -0.00000000000E+00 -0.74505805969E-08  0.93827000000E+00  0.93827000000E+00 0.  1.
     999902    2    1    2    0    0 -0.14112477376E-02 -0.10763721664E-01  0.20223218980E-01  0.10209772679E+01  0.10207192335E+01 0.  0.
     999903    2    3    3    0    0 -0.18416418622E-01  0.11552903638E+00 -0.49215911374E-01  0.12909116005E+00  0.23583870543E-01 0.  0.
         14    1    1    2    0    0  0.14112477376E-02  0.10763721664E-01 -0.20223218980E-01  0.22952732084E-01  0.00000000000E+00 0. -1.
     999901    1    3    3    0    0  0.17005170885E-01 -0.12629275804E+00  0.69439130354E-01  0.89188610786E+00  0.88000000000E+00 0. -1.
        -11    1    4    4    0    0 -0.18680673356E-01  0.44058616894E-01 -0.20575946767E-01  0.52093761488E-01  0.51100000000E-03 0.  1.
         11    1    4    4    0    0  0.26425473387E-03  0.71470419487E-01 -0.28639964607E-01  0.76997398566E-01  0.51100000000E-03 0. -1.
</event>
<event>
 8    1  0.1081309E+005  0.1043930E+01  0.7957747E-01            NaN
         13   -1    0    0    0    0  0.00000000000E+00  0.00000000000E+00  0.74505805969E-08  0.10566000000E+00  0.10566000000E+00 0. -1.
     999900   -1    0    0    0    0 -0.00000000000E+00 -0.00000000000E+00 -0.74505805969E-08  0.93827000000E+00  0.93827000000E+00 0.  1.
     999902    2    1    2    0    0 -0.10745028526E-01 -0.19944397828E-01  0.95401437677E-02  0.10193485235E+01  0.10190520906E+01 0.  0.
     999903    2    3    3    0    0  0.25238587876E-01  0.71480581057E-01 -0.10025926439E+00  0.12709897466E+00  0.18861852454E-01 0.  0.
         14    1    1    2    0    0  0.10745028526E-01  0.19944397828E-01 -0.95401437677E-02  0.24581476478E-01  0.00000000000E+00 0. -1.
     999901    1    3    3    0    0 -0.35983616401E-01 -0.91424978885E-01  0.10979940815E+00  0.89224954886E+00  0.88000000000E+00 0. -1.
        -11    1    4    4    0    0  0.19389112883E-01  0.30028818899E-01 -0.53407644333E-01  0.64267450992E-01  0.51100000000E-03 0.  1.
         11    1    4    4    0    0  0.58494749927E-02  0.41451762159E-01 -0.46851620054E-01  0.62831523668E-01  0.51100000000E-03 0. -1.
</event>
<event>
 8    1  0.1081309E+005  0.1043930E+01  0.7957747E-01            NaN
         13   -1    0    0    0    0  0.00000000000E+00  0.00000000000E+00  0.74505805969E-08  0.10566000000E+00  0.10566000000E+00 0.  1.
     999900   -1    0    0    0    0 -0.00000000000E+00 -0.00000000000E+00 -0.74505805969E-08  0.93827000000E+00  0.93827000000E+00 0.  1.
     999902    2    1    2    0    0 -0.17024567022E-01 -0.19046504522E-01  0.22933333989E-02  0.10182811288E+01  0.10179580505E+01 0.  0.
     999903    2    3    3    0    0 -0.12197702486E+00 -0.45077922072E-01  0.63305425554E-02  0.13165327440E+00  0.19547256568E-01 0.  0.
         14    1    1    2    0    0  0.17024567022E-01  0.19046504522E-01 -0.22933333989E-02  0.25648871221E-01  0.00000000000E+00 0.  1.
     999901    1    3    3    0    0  0.10495245784E+00  0.26031417550E-01 -0.40372091565E-02  0.88662785438E+00  0.88000000000E+00 0.  1.
        -11    1    4    4    0    0 -0.87658071711E-01 -0.22793815020E-01  0.48423858014E-02  0.90703943467E-01  0.51100000000E-03 0.  1.
         11    1    4    4    0    0 -0.34318953147E-01 -0.22284107053E-01  0.14881567539E-02  0.40949330932E-01  0.51100000000E-03 0. -1.
</event>
<event>
 8    1  0.1081309E+005  0.1043930E+01  0.7957747E-01            NaN
         13   -1    0    0    0    0  0.00000000000E+00  0.00000000000E+00  0.74505805969E-08  0.10566000000E+00  0.10566000000E+00 0.  1.
     999900   -1    0    0    0    0 -0.00000000000E+00 -0.00000000000E+00 -0.74505805969E-08  0.93827000000E+00  0.93827000000E+00 0.  1.
     999902    2    1    2    0    0 -0.71200342838E-02  0.17454402886E-01  0.89186881966E-02  0.10230758861E+01  0.10228633216E+01 0.  0.
     999903    2    3    3    0    0  0.16799257277E-01  0.98146401708E-01  0.89487295866E-01  0.13539653421E+00  0.20231513605E-01 0.  0.
         14    1    1    2    0    0  0.71200342838E-02 -0.17454402886E-01 -0.89186881966E-02  0.20854113922E-01  0.00000000000E+00 0. -1.
     999901    1    3    3    0    0 -0.23919291561E-01 -0.80691998822E-01 -0.80568607669E-01  0.88767935186E+00  0.88000000000E+00 0.  1.
        -11    1    4    4    0    0 -0.44531890036E-02  0.25677355056E-01  0.24138272612E-01  0.35525691840E-01  0.51100000000E-03 0.  1.
         11    1    4    4    0    0  0.21252446281E-01  0.72469046652E-01  0.65349023253E-01  0.99870842375E-01  0.51100000000E-03 0. -1.
</event>
<event>
 8    1  0.1081309E+005  0.1043930E+01  0.7957747E-01            NaN
         13   -1    0    0    0    0  0.00000000000E+00  0.00000000000E+00  0.74505805969E-08  0.10566000000E+00  0.10566000000E+00 0.  1.
     999900   -1    0    0    0    0 -0.00000000000E+00 -0.00000000000E+00 -0.74505805969E-08  0.93827000000E+00  0.93827000000E+00 0. -1.
     999902    2    1    2    0    0  0.21809884773E-01 -0.37503185428E-02  0.58925739325E-02  0.10210289435E+01  0.10207720828E+01 0.  0.
     999903    2    3    3    0    0  0.32048231234E-01  0.53433785033E-01  0.11492629504E+00  0.13239898798E+00  0.20956627073E-01 0.  0.
         14    1    1    2    0    0 -0.21809884773E-01  0.37503185428E-02 -0.58925739325E-02  0.22901056538E-01  0.00000000000E+00 0. -1.
     999901    1    3    3    0    0 -0.10238346460E-01 -0.57184103576E-01 -0.10903372111E+00  0.88862995548E+00  0.88000000000E+00 0. -1.
        -11    1    4    4    0    0  0.10777754272E-01  0.14010275347E-01  0.53677808745E-01  0.56515626822E-01  0.51100000000E-03 0. -1.
         11    1    4    4    0    0  0.21270476962E-01  0.39423509686E-01  0.61248486297E-01  0.75883361159E-01  0.51100000000E-03 0.  1.
</event>
<event>
 8    1  0.1081309E+005  0.1043930E+01  0.7957747E-01            NaN
         13   -1    0    0    0    0  0.00000000000E+00  0.00000000000E+00  0.74505805969E-08  0.10566000000E+00  0.10566000000E+00 0.  1.
     999900   -1    0    0    0    0 -0.00000000000E+00 -0.00000000000E+00 -0.74505805969E-08  0.93827000000E+00  0.93827000000E+00 0. -1.
     999902    2    1    2    0    0  0.25116835452E-02  0.10165622120E-01 -0.18581469327E-01  0.10226011597E+01  0.10223787030E+01 0.  0.
     999903    2    3    3    0    0  0.22596313168E-03 -0.81801076353E-01 -0.10387823337E+00  0.13370373246E+00  0.19862868741E-01 0.  0.
         14    1    1    2    0    0 -0.25116835452E-02 -0.10165622120E-01  0.18581469327E-01  0.21328840326E-01  0.00000000000E+00 0.  1.
     999901    1    3    3    0    0  0.22857204135E-02  0.91966698473E-01  0.85296764043E-01  0.88889742721E+00  0.88000000000E+00 0.  1.
        -11    1    4    4    0    0 -0.51331328349E-02 -0.23047953921E-01 -0.42141018444E-01  0.48308216580E-01  0.51100000000E-03 0.  1.
         11    1    4    4    0    0  0.53590959666E-02 -0.58753122432E-01 -0.61737214927E-01  0.85395515884E-01  0.51100000000E-03 0. -1.
</event>
<event>
 8    1  0.1081309E+005  0.1043930E+01  0.7957747E-01            NaN
         13   -1    0    0    0    0  0.00000000000E+00  0.00000000000E+00  0.74505805969E-08  0.10566000000E+00  0.10566000000E+00 0.  1.
     999900   -1    0    0    0    0 -0.00000000000E+00 -0.00000000000E+00 -0.74505805969E-08  0.93827000000E+00  0.93827000000E+00 0. -1.
     999902    2    1    2    0    0  0.11235250469E-01  0.16453098204E-01 -0.13227762944E-01  0.10200153809E+01  0.10197349991E+01 0.  0.
     999903    2    3    3    0    0 -0.12101425792E+00 -0.37139889747E-01 -0.10957751854E-01  0.12851816063E+00  0.19313809949E-01 0.  0.
         14    1    1    2    0    0 -0.11235250469E-01 -0.16453098204E-01  0.13227762944E-01  0.23914619088E-01  0.00000000000E+00 0.  1.
     999901    1    3    3    0    0  0.13224950839E+00  0.53592987952E-01 -0.22700110903E-02  0.89149722029E+00  0.88000000000E+00 0. -1.
        -11    1    4    4    0    0 -0.82947867047E-01 -0.34587521901E-01 -0.65705906543E-02  0.90111481519E-01  0.51100000000E-03 0.  1.
         11    1    4    4    0    0 -0.38066390872E-01 -0.25523678460E-02 -0.43871611997E-02  0.38406679107E-01  0.51100000000E-03 0. -1.
</event>
<event>
 8    1  0.1081309E+005  0.1043930E+01  0.7957747E-01            NaN
         13   -1    0    0    0    0  0.00000000000E+00  0.00000000000E+00  0.74505805969E-08  0.10566000000E+00  0.10566000000E+00 0. -1.
     999900   -1    0    0    0    0 -0.00000000000E+00 -0.00000000000E+00 -0.74505805969E-08  0.93827000000E+00  0.93827000000E+00 0.  1.
     999902    2    1    2    0    0  0.20440847090E-01  0.15446860131E-01  0.14077512426E-01  0.10146962853E+01  0.10142750817E+01 0.  0.
     999903    2    3    3    0    0  0.79153785620E-01 -0.34746554410E-01  0.91320719637E-01  0.12794203466E+00  0.23601812980E-01 0.  0.
         14    1    1    2    0    0 -0.20440847090E-01 -0.15446860131E-01 -0.14077512426E-01  0.29233714676E-01  0.00000000000E+00 0.  1.
     999901    1    3    3    0    0 -0.58712938531E-01  0.50193414541E-01 -0.77243207211E-01  0.88675425067E+00  0.88000000000E+00 0. -1.
        -11    1    4    4    0    0  0.34063987841E-01 -0.25475730361E-02  0.33055954901E-01  0.47537381832E-01  0.51100000000E-03 0. -1.
         11    1    4    4    0    0  0.45089797779E-01 -0.32198981374E-01  0.58264764736E-01  0.80404652826E-01  0.51100000000E-03 0.  1.
</event>
<event>
 8    1  0.1081309E+005  0.1043930E+01  0.7957747E-01            NaN
         13   -1    0    0    0    0  0.00000000000E+00  0.00000000000E+00  0.74505805969E-08  0.10566000000E+00  0.10566000000E+00 0. -1.
     999900   -1    0    0    0    0 -0.00000000000E+00 -0.00000000000E+00 -0.74505805969E-08  0.93827000000E+00  0.93827000000E+00 0.  1.
     999902    2    1    2    0    0 -0.13459302079E-01 -0.20969338649E-01 -0.45994655005E-02  0.10185918655E+01  0.10182766655E+01 0.  0.
     999903    2    3    3    0    0 -0.93328937727E-01  0.54750463449E-01 -0.68388290678E-01  0.12944527393E+00  0.19266986674E-01 0.  0.
         14    1    1    2    0    0  0.13459302079E-01  0.20969338649E-01  0.45994655005E-02  0.25338134476E-01  0.00000000000E+00 0.  1.
     999901    1    3    3    0    0  0.79869635648E-01 -0.75719802098E-01  0.63788825177E-01  0.88914659160E+00  0.88000000000E+00 0. -1.
        -11    1    4    4    0    0 -0.33197858587E-01  0.30039775871E-01 -0.30853266594E-01  0.54375280501E-01  0.51100000000E-03 0. -1.
         11    1    4    4    0    0 -0.60131079140E-01  0.24710687578E-01 -0.37535024084E-01  0.75069993427E-01  0.51100000000E-03 0.  1.
</event>
<event>
 8    1  0.1081309E+005  0.1043930E+01  0.7957747E-01            NaN
         13   -1    0    0    0    0  0.00000000000E+00  0.00000000000E+00  0.74505805969E-08  0.10566000000E+00  0.10566000000E+00 0. -1.
     999900   -1    0    0    0    0 -0.00000000000E+00 -0.00000000000E+00 -0.74505805969E-08  0.93827000000E+00  0.93827000000E+00 0. -1.
     999902    2    1    2    0    0  0.19333016676E-01 -0.47180091607E-02  0.61560294766E-02  0.10230992093E+01  0.10228871248E+01 0.  0.
     999903    2    3    3    0    0 -0.63976740417E-02 -0.13179584192E+00 -0.13073077032E-02  0.13356756539E+00  0.20676346189E-01 0.  0.
         14    1    1    2    0    0 -0.19333016676E-01  0.47180091607E-02 -0.61560294766E-02  0.20830790747E-01  0.00000000000E+00 0. -1.
     999901    1    3    3    0    0  0.25730690718E-01  0.12707783276E+00  0.74633371798E-02  0.88953164386E+00  0.88000000000E+00 0.  1.
        -11    1    4    4    0    0  0.49937134000E-03 -0.69175965473E-01  0.88846935631E-02  0.69747849226E-01  0.51100000000E-03 0. -1.
         11    1    4    4    0    0 -0.68970453817E-02 -0.62619876446E-01 -0.10192001266E-01  0.63819716169E-01  0.51100000000E-03 0.  1.
</event>
<event>
 8    1  0.1081309E+005  0.1043930E+01  0.7957747E-01            NaN
         13   -1    0    0    0    0  0.00000000000E+00  0.00000000000E+00  0.74505805969E-08  0.10566000000E+00  0.10566000000E+00 0. -1.
     999900   -1    0    0    0    0 -0.00000000000E+00 -0.00000000000E+00 -0.74505805969E-08  0.93827000000E+00  0.93827000000E+00 0. -1.
     999902    2    1    2    0    0  0.49260018091E-02  0.44098511306E-04  0.21807101144E-01  0.10215734104E+01  0.10213287501E+01 0.  0.
     999903    2    3    3    0    0 -0.42086157373E-01  0.12042651466E+00 -0.21965288744E-01  0.13105777811E+00  0.20490905751E-01 0.  0.
         14    1    1    2    0    0 -0.49260018091E-02 -0.44098511306E-04 -0.21807101144E-01  0.22356589606E-01  0.00000000000E+00 0.  1.
     999901    1    3    3    0    0  0.47012159182E-01 -0.12038241615E+00  0.43772389888E-01  0.89051563229E+00  0.88000000000E+00 0.  1.
        -11    1    4    4    0    0 -0.21231553760E-02  0.29924070080E-01 -0.15806085225E-02  0.30045252591E-01  0.51100000000E-03 0. -1.
         11    1    4    4    0    0 -0.39963001997E-01  0.90502444576E-01 -0.20384680221E-01  0.10101252552E+00  0.51100000000E-03 0.  1.
</event>
<event>
 8    1  0.1081309E+005  0.1043930E+01  0.7957747E-01            NaN
         13   -1    0    0    0    0  0.00000000000E+00  0.00000000000E+00  0.74505805969E-08  0.10566000000E+00  0.10566000000E+00 0.  1.
     999900   -1    0    0    0    0 -0.00000000000E+00 -0.00000000000E+00 -0.74505805969E-08  0.93827000000E+00  0.93827000000E+00 0. -1.
     999902    2    1    2    0    0 -0.22895913232E-01 -0.52869218604E-02  0.85259013402E-03  0.10204161467E+01  0.10201451912E+01 0.  0.
     999903    2    3    3    0    0  0.11913778463E+00 -0.85263349631E-02 -0.41184935461E-01  0.12803101761E+00  0.20717925735E-01 0.  0.
         14    1    1    2    0    0  0.22895913232E-01  0.52869218604E-02 -0.85259013402E-03  0.23513853266E-01  0.00000000000E+00 0. -1.
     999901    1    3    3    0    0 -0.14203369786E+00  0.32394131027E-02  0.42037525595E-01  0.89238512913E+00  0.88000000000E+00 0.  1.
        -11    1    4    4    0    0  0.69197049525E-01  0.27630312528E-03 -0.14411083949E-01  0.70684145804E-01  0.51100000000E-03 0. -1.
         11    1    4    4    0    0  0.49940735105E-01 -0.88026380884E-02 -0.26773851512E-01  0.57346871806E-01  0.51100000000E-03 0.  1.
</event>
<event>
 8    1  0.1081309E+005  0.1043930E+01  0.7957747E-01            NaN
         13   -1    0    0    0    0  0.00000000000E+00  0.00000000000E+00  0.74505805969E-08  0.10566000000E+00  0.10566000000E+00 0.  1.
     999900   -1    0    0    0    0 -0.00000000000E+00 -0.00000000000E+00 -0.74505805969E-08  0.93827000000E+00  0.93827000000E+00 0. -1.
     999902    2    1    2    0    0  0.84491253699E-02  0.17170803785E-01  0.12991397026E-01  0.10207999196E+01  0.10205378363E+01 0.  0.
     999903    2    3    3    0    0 -0.65212793663E-01 -0.68963173663E-01 -0.84002534053E-01  0.12824574027E+00  0.19542681285E-01 0.  0.
         14    1    1    2    0    0 -0.84491253699E-02 -0.17170803785E-01 -0.12991397026E-01  0.23130080390E-01  0.00000000000E+00 0. -1.
     999901    1    3    3    0    0  0.73661919033E-01  0.86133977449E-01  0.96993931079E-01  0.89255417934E+00  0.88000000000E+00 0.  1.
        -11    1    4    4    0    0 -0.32699290004E-01 -0.22402210057E-01 -0.28378599729E-01  0.48751498703E-01  0.51100000000E-03 0.  1.
         11    1    4    4    0    0 -0.32513503659E-01 -0.46560963606E-01 -0.55623934324E-01  0.79494241570E-01  0.51100000000E-03 0. -1.
</event>
<event>
 8    1  0.1081309E+005  0.1043930E+01  0.7957747E-01            NaN
         13   -1    0    0    0    0  0.00000000000E+00  0.00000000000E+00  0.74505805969E-08  0.10566000000E+00  0.10566000000E+00 0. -1.
     999900   -1    0    0    0    0 -0.00000000000E+00 -0.00000000000E+00 -0.74505805969E-08  0.93827000000E+00  0.93827000000E+00 0. -1.
     999902    2    1    2    0    0 -0.62803655003E-02  0.14613657805E-01  0.16810429221E-01  0.10207871282E+01  0.10205247516E+01 0.  0.
     999903    2    3    3    0    0 -0.12250220670E+00  0.15069031564E-01  0.44849830534E-01  0.13270271116E+00  0.19095441672E-01 0.  0.
         14    1    1    2    0    0  0.62803655003E-02 -0.14613657805E-01 -0.16810429221E-01  0.23142871814E-01  0.00000000000E+00 0.  1.
     999901    1    3    3    0    0  0.11622184120E+00 -0.45537375909E-03 -0.28039401314E-01  0.88808441702E+00  0.88000000000E+00 0.  1.
        -11    1    4    4    0    0 -0.76783730666E-01  0.12922801432E-01  0.37204112392E-01  0.86296855051E-01  0.51100000000E-03 0. -1.
         11    1    4    4    0    0 -0.45718476031E-01  0.21462301315E-02  0.76457181416E-02  0.46405856110E-01  0.51100000000E-03 0.  1.
</event>
<event>
 8    1  0.1081309E+005  0.1043930E+01  0.7957747E-01            NaN
         13   -1    0    0    0    0  0.00000000000E+00  0.00000000000E+00  0.74505805969E-08  0.10566000000E+00  0.10566000000E+00 0. -1.
     999900   -1    0    0    0    0 -0.00000000000E+00 -0.00000000000E+00 -0.74505805969E-08  0.93827000000E+00  0.93827000000E+00 0. -1.
     999902    2    1    2    0    0  0.19684293391E-01 -0.11989061721E-01  0.26499454525E-02  0.10207301893E+01  0.10204665051E+01 0.  0.
     999903    2    3    3    0    0  0.11921771867E+00 -0.28047466939E-01  0.49981046923E-01  0.13370989170E+00  0.19511669353E-01 0.  0.
         14    1    1    2    0    0 -0.19684293391E-01  0.11989061721E-01 -0.26499454525E-02  0.23199810735E-01  0.00000000000E+00 0.  1.
     999901    1    3    3    0    0 -0.99533425278E-01  0.16058405218E-01 -0.47331101470E-01  0.88702029756E+00  0.88000000000E+00 0.  1.
        -11    1    4    4    0    0  0.53026916374E-01 -0.12985833343E-01  0.32775419694E-01  0.63678685484E-01  0.51100000000E-03 0. -1.
         11    1    4    4    0    0  0.66190802294E-01 -0.15061633596E-01  0.17205627229E-01  0.70031206217E-01  0.51100000000E-03 0.  1.
</event>
<event>
 8    1  0.1081309E+005  0.1043930E+01  0.7957747E-01            NaN
         13   -1    0    0    0    0  0.00000000000E+00  0.00000000000E+00  0.74505805969E-08  0.10566000000E+00  0.10566000000E+00 0. -1.
     999900   -1    0    0    0    0 -0.00000000000E+00 -0.00000000000E+00 -0.74505805969E-08  0.93827000000E+00  0.93827000000E+00 0. -1.
     999902    2    1    2    0    0 -0.19752868918E-01  0.10661409022E-01 -0.69624128237E-02  0.10204285816E+01  0.10201579160E+01 0.  0.
     999903    2    3    3    0    0 -0.12169958650E+00 -0.41546499383E-01  0.24592899874E-01  0.13244517150E+00  0.20000294095E-01 0.  0.
         14    1    1    2    0    0  0.19752868918E-01 -0.10661409022E-01  0.69624128237E-02  0.23501418364E-01  0.00000000000E+00 0.  1.
     999901    1    3    3    0    0  0.10194671758E+00  0.52207908405E-01 -0.31555312697E-01  0.88798341014E+00  0.88000000000E+00 0. -1.
        -11    1    4    4    0    0 -0.84979097482E-01 -0.28046431299E-01  0.26322536524E-01  0.93280149911E-01  0.51100000000E-03 0. -1.
         11    1    4    4    0    0 -0.36720489014E-01 -0.13500068084E-01 -0.17296366502E-02  0.39165021584E-01  0.51100000000E-03 0.  1.
</event>
<event>
 8    1  0.1081309E+005  0.1043930E+01  0.7957747E-01            NaN
         13   -1    0    0    0    0  0.00000000000E+00  0.00000000000E+00  0.74505805969E-08  0.10566000000E+00  0.10566000000E+00 0. -1.
     999900   -1    0    0    0    0 -0.00000000000E+00 -0.00000000000E+00 -0.74505805969E-08  0.93827000000E+00  0.93827000000E+00 0.  1.
     999902    2    1    2    0    0 -0.66007289072E-02  0.12432025777E-01  0.18617990516E-01  0.10205900245E+01  0.10203231074E+01 0.  0.
     999903    2    3    3    0    0 -0.11099607113E-01  0.10749321482E+00 -0.71170245030E-01  0.13091660303E+00  0.19898760312E-01 0.  0.
         14    1    1    2    0    0  0.66007289072E-02 -0.12432025777E-01 -0.18617990516E-01  0.23339975533E-01  0.00000000000E+00 0.  1.
     999901    1    3    3    0    0  0.44988782058E-02 -0.95061189040E-01  0.89788235546E-01  0.88967342144E+00  0.88000000000E+00 0. -1.
        -11    1    4    4    0    0 -0.13202444599E-01  0.57949730918E-01 -0.30636649793E-01  0.66868088715E-01  0.51100000000E-03 0. -1.
         11    1    4    4    0    0  0.21028374862E-02  0.49543483899E-01 -0.40533595237E-01  0.64048514317E-01  0.51100000000E-03 0.  1.
</event>
<event>
 8    1  0.1081309E+005  0.1043930E+01  0.7957747E-01            NaN
         13   -1    0    0    0    0  0.00000000000E+00  0.00000000000E+00  0.74505805969E-08  0.10566000000E+00  0.10566000000E+00 0.  1.
     999900   -1    0    0    0    0 -0.00000000000E+00 -0.00000000000E+00 -0.74505805969E-08  0.93827000000E+00  0.93827000000E+00 0. -1.
     999902    2    1    2    0    0  0.11219434221E-01 -0.14920590609E-01 -0.14467131451E-01  0.10203122605E+01  0.10200388773E+01 0.  0.
     999903    2    3    3    0    0  0.82730820135E-01 -0.10126291413E+00  0.93931320242E-02  0.13287877714E+00  0.21678840084E-01 0.  0.
         14    1    1    2    0    0 -0.11219434221E-01  0.14920590609E-01  0.14467131451E-01  0.23617739536E-01  0.00000000000E+00 0.  1.
     999901    1    3    3    0    0 -0.71511385913E-01  0.86342323522E-01 -0.23860263476E-01  0.88743348332E+00  0.88000000000E+00 0. -1.
        -11    1    4    4    0    0  0.66224148218E-01 -0.66557244630E-01  0.10129784021E-01  0.94437165699E-01  0.51100000000E-03 0. -1.
         11    1    4    4    0    0  0.16506671917E-01 -0.34705669501E-01 -0.73665199640E-03  0.38441611444E-01  0.51100000000E-03 0.  1.
</event>
<event>
 8    1  0.1081309E+005  0.1043930E+01  0.7957747E-01            NaN
         13   -1    0    0    0    0  0.00000000000E+00  0.00000000000E+00  0.74505805969E-08  0.10566000000E+00  0.10566000000E+00 0. -1.
     999900   -1    0    0    0    0 -0.00000000000E+00 -0.00000000000E+00 -0.74505805969E-08  0.93827000000E+00  0.93827000000E+00 0.  1.
     999902    2    1    2    0    0  0.74111304774E-02  0.22025292423E-01 -0.66330409753E-02  0.10197631716E+01  0.10194767730E+01 0.  0.
     999903    2    3    3    0    0 -0.12244294008E+00 -0.57778391521E-02 -0.36076041394E-01  0.12931273278E+00  0.19865676314E-01 0.  0.
         14    1    1    2    0    0 -0.74111304774E-02 -0.22025292423E-01  0.66330409753E-02  0.24166828378E-01  0.00000000000E+00 0. -1.
     999901    1    3    3    0    0  0.12985407056E+00  0.27803131575E-01  0.29443000419E-01  0.89045043884E+00  0.88000000000E+00 0. -1.
        -11    1    4    4    0    0 -0.10511132749E+00 -0.11177816784E-01 -0.33974924806E-01  0.11103103797E+00  0.51100000000E-03 0.  1.
         11    1    4    4    0    0 -0.17331612583E-01  0.53999776320E-02 -0.21011165881E-02  0.18281694809E-01  0.51100000000E-03 0. -1.
</event>
<event>
 8    1  0.1081309E+005  0.1043930E+01  0.7957747E-01            NaN
         13   -1    0    0    0    0  0.00000000000E+00  0.00000000000E+00  0.74505805969E-08  0.10566000000E+00  0.10566000000E+00 0. -1.
     999900   -1    0    0    0    0 -0.00000000000E+00 -0.00000000000E+00 -0.74505805969E-08  0.93827000000E+00  0.93827000000E+00 0. -1.
     999902    2    1    2    0    0 -0.15233368239E-01 -0.16439417833E-01  0.90644000018E-02  0.10197541171E+01  0.10194675012E+01 0.  0.
     999903    2    3    3    0    0  0.19504229791E-01  0.30227195218E-01 -0.12136228316E+00  0.12824102512E+00  0.20563522068E-01 0.  0.
         14    1    1    2    0    0  0.15233368239E-01  0.16439417833E-01 -0.90644000018E-02  0.24175882900E-01  0.00000000000E+00 0.  1.
     999901    1    3    3    0    0 -0.34737598030E-01 -0.46666613051E-01  0.13042668316E+00  0.89151309198E+00  0.88000000000E+00 0.  1.
        -11    1    4    4    0    0  0.17027871647E-01  0.21728394824E-01 -0.57717950712E-01  0.63981985823E-01  0.51100000000E-03 0.  1.
         11    1    4    4    0    0  0.24763581443E-02  0.84988003937E-02 -0.63644332447E-01  0.64259039298E-01  0.51100000000E-03 0. -1.
</event>
<event>
 8    1  0.1081309E+005  0.1043930E+01  0.7957747E-01            NaN
         13   -1    0    0    0    0  0.00000000000E+00  0.00000000000E+00  0.74505805969E-08  0.10566000000E+00  0.10566000000E+00 0. -1.
     999900   -1    0    0    0    0 -0.00000000000E+00 -0.00000000000E+00 -0.74505805969E-08  0.93827000000E+00  0.93827000000E+00 0.  1.
     999902    2    1    2    0    0  0.32249488250E-02 -0.22687207175E-01 -0.81067433749E-02  0.10196230267E+01  0.10193332564E+01 0.  0.
     999903    2    3    3    0    0 -0.25276560817E-01  0.12236541027E+00  0.12268586272E-01  0.12706056279E+00  0.19536382724E-01 0.  0.
         14    1    1    2    0    0 -0.32249488250E-02  0.22687207175E-01  0.81067433749E-02  0.24306973330E-01  0.00000000000E+00 0.  1.
     999901    1    3    3    0    0  0.28501509642E-01 -0.14505261744E+00 -0.20375329647E-01  0.89256246388E+00  0.88000000000E+00 0. -1.
        -11    1    4    4    0    0 -0.24425354823E-01  0.81639800572E-01  0.29355539146E-02  0.85267423988E-01  0.51100000000E-03 0.  1.
         11    1    4    4    0    0 -0.85120599349E-03  0.40725609693E-01  0.93330323578E-02  0.41793138797E-01  0.51100000000E-03 0. -1.
</event>
<event>
 8    1  0.1081309E+005  0.1043930E+01  0.7957747E-01            NaN
         13   -1    0    0    0    0  0.00000000000E+00  0.00000000000E+00  0.74505805969E-08  0.10566000000E+00  0.10566000000E+00 0. -1.
     999900   -1    0    0    0    0 -0.00000000000E+00 -0.00000000000E+00 -0.74505805969E-08  0.93827000000E+00  0.93827000000E+00 0. -1.
     999902    2    1    2    0    0 -0.12889448019E-01 -0.10621606730E-01 -0.13416077518E-01  0.10225069392E+01  0.10222824918E+01 0.  0.
     999903    2    3    3    0    0  0.35857710853E-01  0.68954884087E-01 -0.10580698823E+00  0.13276271537E+00  0.19755211095E-01 0.  0.
         14    1    1    2    0    0  0.12889448019E-01  0.10621606730E-01  0.13416077518E-01  0.21423060840E-01  0.00000000000E+00 0. -1.
     999901    1    3    3    0    0 -0.48747158873E-01 -0.79576490817E-01  0.92390910717E-01  0.88974422379E+00  0.88000000000E+00 0.  1.
        -11    1    4    4    0    0  0.38011392184E-01  0.65250122442E-01 -0.96771233333E-01  0.12274924495E+00  0.51100000000E-03 0. -1.
         11    1    4    4    0    0 -0.21536813311E-02  0.37047616449E-02 -0.90357549016E-02  0.10013470416E-01  0.51100000000E-03 0.  1.
</event>
<event>
 8    1  0.1081309E+005  0.1043930E+01  0.7957747E-01            NaN
         13   -1    0    0    0    0  0.00000000000E+00  0.00000000000E+00  0.74505805969E-08  0.10566000000E+00  0.10566000000E+00 0. -1.
     999900   -1    0    0    0    0 -0.00000000000E+00 -0.00000000000E+00 -0.74505805969E-08  0.93827000000E+00  0.93827000000E+00 0. -1.
     999902    2    1    2    0    0  0.64711672283E-02 -0.21687819354E-01  0.10238064003E-01  0.10190893988E+01  0.10187866054E+01 0.  0.
     999903    2    3    3    0    0  0.10048462253E+00 -0.30498412396E-01  0.76651133489E-01  0.13154962384E+00  0.20064763739E-01 0.  0.
         14    1    1    2    0    0 -0.64711672283E-02  0.21687819354E-01 -0.10238064003E-01  0.24840601203E-01  0.00000000000E+00 0.  1.
     999901    1    3    3    0    0 -0.94013455303E-01  0.88105930425E-02 -0.66413069486E-01  0.88753977495E+00  0.88000000000E+00 0. -1.
        -11    1    4    4    0    0  0.39544640571E-01 -0.31494764311E-02  0.34408846843E-01  0.52515975300E-01  0.51100000000E-03 0. -1.
         11    1    4    4    0    0  0.60939981960E-01 -0.27348935965E-01  0.42242286646E-01  0.79033648542E-01  0.51100000000E-03 0.  1.
</event>
<event>
 8    1  0.1081309E+005  0.1043930E+01  0.7957747E-01            NaN
         13   -1    0    0    0    0  0.00000000000E+00  0.00000000000E+00  0.74505805969E-08  0.10566000000E+00  0.10566000000E+00 0.  1.
     999900   -1    0    0    0    0 -0.00000000000E+00 -0.00000000000E+00 -0.74505805969E-08  0.93827000000E+00  0.93827000000E+00 0. -1.
     999902    2    1    2    0    0 -0.39610091862E-02  0.17584085130E-01  0.14569608605E-01  0.10207532198E+01  0.10204900650E+01 0.  0.
     999903    2    3    3    0    0 -0.75068080010E-01 -0.10358950343E+00  0.67098312390E-02  0.12957364748E+00  0.19450101024E-01 0.  0.
         14    1    1    2    0    0  0.39610091862E-02 -0.17584085130E-01 -0.14569608605E-01  0.23176780159E-01  0.00000000000E+00 0. -1.
     999901    1    3    3    0    0  0.71107070824E-01  0.12117358856E+00  0.78597773660E-02  0.89117957236E+00  0.88000000000E+00 0. -1.
        -11    1    4    4    0    0 -0.45595315310E-01 -0.78066978559E-01  0.45232801249E-02  0.90521307456E-01  0.51100000000E-03 0. -1.
         11    1    4    4    0    0 -0.29472764701E-01 -0.25522524871E-01  0.21865511141E-02  0.39052340028E-01  0.51100000000E-03 0.  1.
</event>
<event>
 8    1  0.1081309E+005  0.1043930E+01  0.7957747E-01            NaN
         13   -1    0    0    0    0  0.00000000000E+00  0.00000000000E+00  0.74505805969E-08  0.10566000000E+00  0.10566000000E+00 0.  1.
     999900   -1    0    0    0    0 -0.00000000000E+00 -0.00000000000E+00 -0.74505805969E-08  0.93827000000E+00  0.93827000000E+00 0.  1.
     999902    2    1    2    0    0  0.39239056079E-02  0.22947865026E-01 -0.29295027216E-02  0.10204654836E+01  0.10201956771E+01 0.  0.
     999903    2    3    3    0    0  0.81060410165E-01  0.32327183422E-01  0.95946302225E-01  0.13152541994E+00  0.21849629173E-01 0.  0.
         14    1    1    2    0    0 -0.39239056079E-02 -0.22947865026E-01  0.29295027216E-02  0.23464516417E-01  0.00000000000E+00 0.  1.
     999901    1    3    3    0    0 -0.77136504557E-01 -0.93793183953E-02 -0.98875804947E-01  0.88894006364E+00  0.88000000000E+00 0.  1.
        -11    1    4    4    0    0  0.57912041401E-01  0.12127232416E-01  0.60756796441E-01  0.84808748017E-01  0.51100000000E-03 0. -1.
         11    1    4    4    0    0  0.23148368764E-01  0.20199951006E-01  0.35189505784E-01  0.46716671921E-01  0.51100000000E-03 0.  1.
</event>
<event>
 8    1  0.1081309E+005  0.1043930E+01  0.7957747E-01            NaN
         13   -1    0    0    0    0  0.00000000000E+00  0.00000000000E+00  0.74505805969E-08  0.10566000000E+00  0.10566000000E+00 0.  1.
     999900   -1    0    0    0    0 -0.00000000000E+00 -0.00000000000E+00 -0.74505805969E-08  0.93827000000E+00  0.93827000000E+00 0. -1.
     999902    2    1    2    0    0 -0.14069916443E-01 -0.21605193372E-01 -0.88953217432E-02  0.10166559523E+01  0.10162900431E+01 0.  0.
     999903    2    3    3    0    0 -0.12541221963E+00  0.16696333543E-01 -0.98976210595E-02  0.12881299318E+00  0.22086917447E-01 0.  0.
         14    1    1    2    0    0  0.14069916443E-01  0.21605193372E-01  0.88953217432E-02  0.27274047706E-01  0.00000000000E+00 0.  1.
     999901    1    3    3    0    0  0.11134230319E+00 -0.38301526915E-01  0.10022993162E-02  0.88784295911E+00  0.88000000000E+00 0.  1.
        -11    1    4    4    0    0 -0.45640046571E-01  0.15855876061E-01  0.77000150245E-03  0.48324700517E-01  0.51100000000E-03 0. -1.
         11    1    4    4    0    0 -0.79772173062E-01  0.84045748181E-03 -0.10667622562E-01  0.80488292664E-01  0.51100000000E-03 0.  1.
</event>
<event>
 8    1  0.1081309E+005  0.1043930E+01  0.7957747E-01            NaN
         13   -1    0    0    0    0  0.00000000000E+00  0.00000000000E+00  0.74505805969E-08  0.10566000000E+00  0.10566000000E+00 0.  1.
     999900   -1    0    0    0    0 -0.00000000000E+00 -0.00000000000E+00 -0.74505805969E-08  0.93827000000E+00  0.93827000000E+00 0. -1.
     999902    2    1    2    0    0  0.22448109567E-01  0.11194048491E-01 -0.52532416896E-02  0.10183014828E+01  0.10179789237E+01 0.  0.
     999903    2    3    3    0    0  0.64203921894E-01 -0.79072154811E-01 -0.77676027080E-01  0.12974276491E+00  0.20617240621E-01 0.  0.
         14    1    1    2    0    0 -0.22448109567E-01 -0.11194048491E-01  0.52532416896E-02  0.25628517183E-01  0.00000000000E+00 0. -1.
     999901    1    3    3    0    0 -0.41755812327E-01  0.90266203302E-01  0.72422785391E-01  0.88855871791E+00  0.88000000000E+00 0.  1.
        -11    1    4    4    0    0  0.34439130120E-01 -0.51645731158E-01 -0.57061082253E-01  0.84318227325E-01  0.51100000000E-03 0.  1.
         11    1    4    4    0    0  0.29764791774E-01 -0.27426423653E-01 -0.20614944828E-01  0.45424537587E-01  0.51100000000E-03 0. -1.
</event>
<event>
 8    1  0.1081309E+005  0.1043930E+01  0.7957747E-01            NaN
         13   -1    0    0    0    0  0.00000000000E+00  0.00000000000E+00  0.74505805969E-08  0.10566000000E+00  0.10566000000E+00 0.  1.
     999900   -1    0    0    0    0 -0.00000000000E+00 -0.00000000000E+00 -0.74505805969E-08  0.93827000000E+00  0.93827000000E+00 0. -1.
     999902    2    1    2    0    0 -0.10041380694E-02 -0.53879136541E-02  0.23759121664E-01  0.10195469368E+01  0.10192553275E+01 0.  0.
     999903    2    3    3    0    0 -0.11693722257E+00 -0.48595283755E-01  0.25894688201E-01  0.13088956892E+00  0.20633195311E-01 0.  0.
         14    1    1    2    0    0  0.10041380694E-02  0.53879136541E-02 -0.23759121664E-01  0.24383063160E-01  0.00000000000E+00 0. -1.
     999901    1    3    3    0    0  0.11593308450E+00  0.43207370101E-01 -0.21355665367E-02  0.88865736792E+00  0.88000000000E+00 0.  1.
        -11    1    4    4    0    0 -0.77841361309E-01 -0.33931443205E-01  0.74631869351E-02  0.85244241146E-01  0.51100000000E-03 0. -1.
         11    1    4    4    0    0 -0.39095861264E-01 -0.14663840550E-01  0.18431501266E-01  0.45645327774E-01  0.51100000000E-03 0.  1.
</event>
<event>
 8    1  0.1081309E+005  0.1043930E+01  0.7957747E-01            NaN
         13   -1    0    0    0    0  0.00000000000E+00  0.00000000000E+00  0.74505805969E-08  0.10566000000E+00  0.10566000000E+00 0. -1.
     999900   -1    0    0    0    0 -0.00000000000E+00 -0.00000000000E+00 -0.74505805969E-08  0.93827000000E+00  0.93827000000E+00 0.  1.
     999902    2    1    2    0    0  0.31370251532E-02 -0.19528126847E-01  0.12188564544E-01  0.10206974846E+01  0.10204330480E+01 0.  0.
     999903    2    3    3    0    0 -0.18229909966E-01  0.12262319776E+00  0.28596031374E-01  0.12888318222E+00  0.20600082625E-01 0.  0.
         14    1    1    2    0    0 -0.31370251532E-02  0.19528126847E-01 -0.12188564544E-01  0.23232515375E-01  0.00000000000E+00 0.  1.
     999901    1    3    3    0    0  0.21366935119E-01 -0.14215132460E+00 -0.16407466829E-01  0.89181430240E+00  0.88000000000E+00 0.  1.
        -11    1    4    4    0    0 -0.45190346689E-02  0.68609051447E-01  0.69977965284E-02  0.69114787795E-01  0.51100000000E-03 0. -1.
         11    1    4    4    0    0 -0.13710875297E-01  0.54014146309E-01  0.21598234845E-01  0.59768394427E-01  0.51100000000E-03 0.  1.
</event>
<event>
 8    1  0.1081309E+005  0.1043930E+01  0.7957747E-01            NaN
         13   -1    0    0    0    0  0.00000000000E+00  0.00000000000E+00  0.74505805969E-08  0.10566000000E+00  0.10566000000E+00 0. -1.
     999900   -1    0    0    0    0 -0.00000000000E+00 -0.00000000000E+00 -0.74505805969E-08  0.93827000000E+00  0.93827000000E+00 0. -1.
     999902    2    1    2    0    0  0.18294536953E-02  0.11285815295E-01 -0.20545474506E-01  0.10204175979E+01  0.10201466763E+01 0.  0.
     999903    2    3    3    0    0  0.10224823351E-02  0.77326458388E-01  0.10175648260E+00  0.12950807030E+00  0.20917262834E-01 0.  0.
         14    1    1    2    0    0 -0.18294536953E-02 -0.11285815295E-01  0.20545474506E-01  0.23512402054E-01  0.00000000000E+00 0. -1.
     999901    1    3    3    0    0  0.80697136024E-03 -0.66040643093E-01 -0.12230195710E+00  0.89090952765E+00  0.88000000000E+00 0. -1.
        -11    1    4    4    0    0  0.45770998485E-02  0.40283895519E-01  0.37376890900E-01  0.55145581651E-01  0.51100000000E-03 0.  1.
         11    1    4    4    0    0 -0.35546175134E-02  0.37042562869E-01  0.64379591698E-01  0.74362488647E-01  0.51100000000E-03 0. -1.
</event>
<event>
 8    1  0.1081309E+005  0.1043930E+01  0.7957747E-01            NaN
         13   -1    0    0    0    0  0.00000000000E+00  0.00000000000E+00  0.74505805969E-08  0.10566000000E+00  0.10566000000E+00 0.  1.
     999900   -1    0    0    0    0 -0.00000000000E+00 -0.00000000000E+00 -0.74505805969E-08  0.93827000000E+00  0.93827000000E+00 0.  1.
     999902    2    1    2    0    0 -0.21735582607E-01 -0.53666004977E-02  0.90039637669E-02  0.10197989554E+01  0.10195134143E+01 0.  0.
     999903    2    3    3    0    0 -0.10843746735E+00  0.48942172853E-01  0.54961081492E-01  0.13268074657E+00  0.20722920264E-01 0.  0.
         14    1    1    2    0    0  0.21735582607E-01  0.53666004977E-02 -0.90039637669E-02  0.24131044646E-01  0.00000000000E+00 0. -1.
     999901    1    3    3    0    0  0.86701884740E-01 -0.54308773351E-01 -0.45957117725E-01  0.88711820878E+00  0.88000000000E+00 0.  1.
        -11    1    4    4    0    0 -0.54673327431E-01  0.31207856291E-01  0.38190002413E-01  0.73633147644E-01  0.51100000000E-03 0. -1.
         11    1    4    4    0    0 -0.53764139916E-01  0.17734316562E-01  0.16771079079E-01  0.59047598929E-01  0.51100000000E-03 0.  1.
</event>
<event>
 8    1  0.1081309E+005  0.1043930E+01  0.7957747E-01            NaN
         13   -1    0    0    0    0  0.00000000000E+00  0.00000000000E+00  0.74505805969E-08  0.10566000000E+00  0.10566000000E+00 0.  1.
     999900   -1    0    0    0    0 -0.00000000000E+00 -0.00000000000E+00 -0.74505805969E-08  0.93827000000E+00  0.93827000000E+00 0.  1.
     999902    2    1    2    0    0  0.10974522128E-01  0.19669776320E-01  0.44171439612E-02  0.10209767563E+01  0.10207187103E+01 0.  0.
     999903    2    3    3    0    0  0.12504775073E+00  0.36890945230E-01  0.19210610275E-01  0.13332360511E+00  0.20205304521E-01 0.  0.
         14    1    1    2    0    0 -0.10974522128E-01 -0.19669776320E-01 -0.44171439612E-02  0.22953243718E-01  0.00000000000E+00 0.  1.
     999901    1    3    3    0    0 -0.11407322860E+00 -0.17221168910E-01 -0.14793466314E-01  0.88765315117E+00  0.88000000000E+00 0. -1.
        -11    1    4    4    0    0  0.90487685965E-01  0.19220535219E-01  0.76686147632E-02  0.92825207022E-01  0.51100000000E-03 0. -1.
         11    1    4    4    0    0  0.34560064761E-01  0.17670410011E-01  0.11541995512E-01  0.40498398087E-01  0.51100000000E-03 0.  1.
</event>
<event>
 8    1  0.1081309E+005  0.1043930E+01  0.7957747E-01            NaN
         13   -1    0    0    0    0  0.00000000000E+00  0.00000000000E+00  0.74505805969E-08  0.10566000000E+00  0.10566000000E+00 0. -1.
     999900   -1    0    0    0    0 -0.00000000000E+00 -0.00000000000E+00 -0.74505805969E-08  0.93827000000E+00  0.93827000000E+00 0.  1.
     999902    2    1    2    0    0  0.16917990655E-01 -0.52270236937E-02  0.18524756825E-01  0.10183037088E+01  0.10179812064E+01 0.  0.
     999903    2    3    3    0    0  0.28797140373E-01 -0.18179138793E-01  0.12548564835E+00  0.13165298626E+00  0.20642298043E-01 0.  0.
         14    1    1    2    0    0 -0.16917990655E-01  0.52270236937E-02 -0.18524756825E-01  0.25626291185E-01  0.00000000000E+00 0.  1.
     999901    1    3    3    0    0 -0.11879149717E-01  0.12952115100E-01 -0.10696089153E+00  0.88665072255E+00  0.88000000000E+00 0.  1.
        -11    1    4    4    0    0  0.26133983908E-01 -0.20905153181E-01  0.91117984265E-01  0.97070895339E-01  0.51100000000E-03 0. -1.
         11    1    4    4    0    0  0.26631564648E-02  0.27260143879E-02  0.34367664089E-01  0.34582090925E-01  0.51100000000E-03 0.  1.
</event>
<event>
 8    1  0.1081309E+005  0.1043930E+01  0.7957747E-01            NaN
         13   -1    0    0    0    0  0.00000000000E+00  0.00000000000E+00  0.74505805969E-08  0.10566000000E+00  0.10566000000E+00 0. -1.
     999900   -1    0    0    0    0 -0.00000000000E+00 -0.00000000000E+00 -0.74505805969E-08  0.93827000000E+00  0.93827000000E+00 0.  1.
     999902    2    1    2    0    0  0.15672614824E-01 -0.12813908447E-01  0.10143732221E-01  0.10212866255E+01  0.10210355768E+01 0.  0.
     999903    2    3    3    0    0  0.11365028649E+00 -0.67189011019E-01 -0.22005347577E-02  0.13409518233E+00  0.23365032596E-01 0.  0.
         14    1    1    2    0    0 -0.15672614824E-01  0.12813908447E-01 -0.10143732221E-01  0.22643374494E-01  0.00000000000E+00 0.  1.
     999901    1    3    3    0    0 -0.97977671669E-01  0.54375102572E-01  0.12344266978E-01  0.88719144318E+00  0.88000000000E+00 0.  1.
        -11    1    4    4    0    0  0.55326655150E-01 -0.23001024353E-01  0.70731354026E-02  0.60335530633E-01  0.51100000000E-03 0.  1.
         11    1    4    4    0    0  0.58323631343E-01 -0.44187986665E-01 -0.92736701603E-02  0.73759651693E-01  0.51100000000E-03 0. -1.
</event>
<event>
 8    1  0.1081309E+005  0.1043930E+01  0.7957747E-01            NaN
         13   -1    0    0    0    0  0.00000000000E+00  0.00000000000E+00  0.74505805969E-08  0.10566000000E+00  0.10566000000E+00 0. -1.
     999900   -1    0    0    0    0 -0.00000000000E+00 -0.00000000000E+00 -0.74505805969E-08  0.93827000000E+00  0.93827000000E+00 0.  1.
     999902    2    1    2    0    0  0.10152108680E-01 -0.95293561580E-02 -0.19046915417E-01  0.10203363795E+01  0.10200635610E+01 0.  0.
     999903    2    3    3    0    0 -0.60971573219E-01 -0.11429211692E+00 -0.56321050611E-02  0.13117173151E+00  0.19851493914E-01 0.  0.
         14    1    1    2    0    0 -0.10152108680E-01  0.95293561580E-02  0.19046915417E-01  0.23593620458E-01  0.00000000000E+00 0. -1.
     999901    1    3    3    0    0  0.71123681898E-01  0.10476276076E+00 -0.13414810356E-01  0.88916464803E+00  0.88000000000E+00 0.  1.
        -11    1    4    4    0    0 -0.18393672246E-01 -0.49486996615E-01  0.44125744528E-02  0.52981335836E-01  0.51100000000E-03 0. -1.
         11    1    4    4    0    0 -0.42577900973E-01 -0.64805120301E-01 -0.10044679514E-01  0.78190395677E-01  0.51100000000E-03 0.  1.
</event>
<event>
 8    1  0.1081309E+005  0.1043930E+01  0.7957747E-01            NaN
         13   -1    0    0    0    0  0.00000000000E+00  0.00000000000E+00  0.74505805969E-08  0.10566000000E+00  0.10566000000E+00 0.  1.
     999900   -1    0    0    0    0 -0.00000000000E+00 -0.00000000000E+00 -0.74505805969E-08  0.93827000000E+00  0.93827000000E+00 0.  1.
     999902    2    1    2    0    0 -0.15725101244E-01  0.92184610733E-02  0.16895494566E-01  0.10190760955E+01  0.10187729736E+01 0.  0.
     999903    2    3    3    0    0 -0.44318966678E-01  0.11471178457E+00  0.43413934085E-01  0.13191789195E+00  0.19864446070E-01 0.  0.
         14    1    1    2    0    0  0.15725101244E-01 -0.92184610733E-02 -0.16895494566E-01  0.24853904529E-01  0.00000000000E+00 0.  1.
     999901    1    3    3    0    0  0.28593865434E-01 -0.10549332349E+00 -0.26518439519E-01  0.88715820352E+00  0.88000000000E+00 0. -1.
        -11    1    4    4    0    0 -0.13416847214E-01  0.56591748501E-01  0.14031031613E-01  0.59831168772E-01  0.51100000000E-03 0.  1.
         11    1    4    4    0    0 -0.30902119465E-01  0.58120036066E-01  0.29382902472E-01  0.72086723177E-01  0.51100000000E-03 0. -1.
</event>
<event>
 8    1  0.1081309E+005  0.1043930E+01  0.7957747E-01            NaN
         13   -1    0    0    0    0  0.00000000000E+00  0.00000000000E+00  0.74505805969E-08  0.10566000000E+00  0.10566000000E+00 0. -1.
     999900   -1    0    0    0    0 -0.00000000000E+00 -0.00000000000E+00 -0.74505805969E-08  0.93827000000E+00  0.93827000000E+00 0.  1.
     999902    2    1    2    0    0 -0.49116426806E-02  0.21597538930E-01  0.88285327179E-02  0.10200863234E+01  0.10198076222E+01 0.  0.
     999903    2    3    3    0    0  0.27435031038E-01 -0.12288524881E+00  0.78483622571E-02  0.12771726079E+00  0.19915737765E-01 0.  0.
         14    1    1    2    0    0  0.49116426806E-02 -0.21597538930E-01 -0.88285327179E-02  0.23843676554E-01  0.00000000000E+00 0.  1.
     999901    1    3    3    0    0 -0.32346673719E-01  0.14448278774E+00  0.98017046077E-03  0.89236906266E+00  0.88000000000E+00 0. -1.
        -11    1    4    4    0    0  0.17095299324E-02 -0.69373927472E-02  0.53185535427E-02  0.89217735627E-02  0.51100000000E-03 0. -1.
         11    1    4    4    0    0  0.25725501106E-01 -0.11594785606E+00  0.25298087144E-02  0.11879548723E+00  0.51100000000E-03 0.  1.
</event>
<event>
 8    1  0.1081309E+005  0.1043930E+01  0.7957747E-01            NaN
         13   -1    0    0    0    0  0.00000000000E+00  0.00000000000E+00  0.74505805969E-08  0.10566000000E+00  0.10566000000E+00 0.  1.
     999900   -1    0    0    0    0 -0.00000000000E+00 -0.00000000000E+00 -0.74505805969E-08  0.93827000000E+00  0.93827000000E+00 0. -1.
     999902    2    1    2    0    0  0.75520476901E-02  0.24434614043E-02  0.21218821676E-01  0.10212751480E+01  0.10210238418E+01 0.  0.
     999903    2    3    3    0    0 -0.13655224415E-02 -0.83305354268E-01  0.10217423645E+00  0.13336402536E+00  0.20118199830E-01 0.  0.
         14    1    1    2    0    0 -0.75520476901E-02 -0.24434614043E-02 -0.21218821676E-01  0.22654852047E-01  0.00000000000E+00 0.  1.
     999901    1    3    3    0    0  0.89175701315E-02  0.85748815672E-01 -0.80955414773E-01  0.88791112259E+00  0.88000000000E+00 0.  1.
        -11    1    4    4    0    0 -0.29394996890E-02 -0.24139841310E-01  0.17129618357E-01  0.29749916688E-01  0.51100000000E-03 0. -1.
         11    1    4    4    0    0  0.15739772475E-02 -0.59165512958E-01  0.85044618093E-01  0.10361410867E+00  0.51100000000E-03 0.  1.
</event>
<event>
 8    1  0.1081309E+005  0.1043930E+01  0.7957747E-01            NaN
         13   -1    0    0    0    0  0.00000000000E+00  0.00000000000E+00  0.74505805969E-08  0.10566000000E+00  0.10566000000E+00 0.  1.
     999900   -1    0    0    0    0 -0.00000000000E+00 -0.00000000000E+00 -0.74505805969E-08  0.93827000000E+00  0.93827000000E+00 0. -1.
     999902    2    1    2    0    0 -0.11070596607E-01 -0.58451382182E-04 -0.14487620321E-01  0.10256967154E+01  0.10255346407E+01 0.  0.
     999903    2    3    3    0    0  0.94748354384E-01  0.92082683175E-01  0.12510441666E-01  0.13417187869E+00  0.19725888613E-01 0.  0.
         14    1    1    2    0    0  0.11070596607E-01  0.58451382182E-04  0.14487620321E-01  0.18233284629E-01  0.00000000000E+00 0.  1.
     999901    1    3    3    0    0 -0.10581895099E+00 -0.92141134557E-01 -0.26998061987E-01  0.89152483668E+00  0.88000000000E+00 0. -1.
        -11    1    4    4    0    0  0.57372844720E-01  0.63648971444E-01  0.15622783906E-01  0.87104347624E-01  0.51100000000E-03 0.  1.
         11    1    4    4    0    0  0.37375509665E-01  0.28433711732E-01 -0.31123422400E-02  0.47067531067E-01  0.51100000000E-03 0. -1.
</event>
<event>
 8    1  0.1081309E+005  0.1043930E+01  0.7957747E-01            NaN
         13   -1    0    0    0    0  0.00000000000E+00  0.00000000000E+00  0.74505805969E-08  0.10566000000E+00  0.10566000000E+00 0. -1.
     999900   -1    0    0    0    0 -0.00000000000E+00 -0.00000000000E+00 -0.74505805969E-08  0.93827000000E+00  0.93827000000E+00 0. -1.
     999902    2    1    2    0    0 -0.11630428629E-01 -0.10701496969E-01  0.12053177313E-01  0.10240536827E+01  0.10238607703E+01 0.  0.
     999903    2    3    3    0    0  0.10582443657E+00  0.72507994311E-01 -0.22420014984E-01  0.13169284434E+00  0.19599172520E-01 0.  0.
         14    1    1    2    0    0  0.11630428629E-01  0.10701496969E-01 -0.12053177313E-01  0.19876317335E-01  0.00000000000E+00 0.  1.
     999901    1    3    3    0    0 -0.11745486520E+00 -0.83209491280E-01  0.34473192297E-01  0.89236083833E+00  0.88000000000E+00 0. -1.
        -11    1    4    4    0    0  0.39823910658E-01  0.35885328382E-01 -0.27000926789E-02  0.53677297572E-01  0.51100000000E-03 0. -1.
         11    1    4    4    0    0  0.66000525909E-01  0.36622665929E-01 -0.19719922305E-01  0.78015546763E-01  0.51100000000E-03 0.  1.
</event>
<event>
 7    1  0.1081309E+005  0.1043930E+01  0.7957747E-01            NaN
         13   -1    0    0    0    0  0.00000000000E+00  0.00000000000E+00  0.74505805969E-08  0.10566000000E+00  0.10566000000E+00 0. -1.
     999900   -1    0    0    0    0 -0.00000000000E+00 -0.00000000000E+00 -0.74505805969E-08  0.93827000000E+00  0.93827000000E+00 0.  1.
     999903    2    1    2    0    0  0.26283629446E-01  0.93871482840E-01  0.35673152933E-02  0.99393013603E-01  0.19067274245E-01 0.  0.
         14    1    1    2    0    0 -0.24961956460E-02  0.51366895448E-01  0.90930319887E-02  0.52225206285E-01  0.00000000000E+00 0. -1.
     999901    1    1    2    0    0 -0.23787433800E-01 -0.14523837829E+00 -0.12660347282E-01  0.89231178011E+00  0.88000000000E+00 0.  1.
        -11    1    3    3    0    0  0.26094516525E-01  0.82203929763E-01 -0.23908584414E-02  0.86280862225E-01  0.51100000000E-03 0. -1.
         11    1    3    3    0    0  0.18911292153E-03  0.11667553077E-01  0.59581737347E-02  0.13112151378E-01  0.51100000000E-03 0.  1.
</event>
<event>
 8    1  0.1081309E+005  0.1043930E+01  0.7957747E-01            NaN
         13   -1    0    0    0    0  0.00000000000E+00  0.00000000000E+00  0.74505805969E-08  0.10566000000E+00  0.10566000000E+00 0.  1.
     999900   -1    0    0    0    0 -0.00000000000E+00 -0.00000000000E+00 -0.74505805969E-08  0.93827000000E+00  0.93827000000E+00 0.  1.
     999902    2    1    2    0    0  0.11663380449E-02  0.22833467932E-01  0.68058630678E-02  0.10200752861E+01  0.10197963238E+01 0.  0.
     999903    2    3    3    0    0  0.70624452528E-01  0.94080615902E-01 -0.55967397931E-01  0.13224587229E+00  0.22751824617E-01 0.  0.
         14    1    1    2    0    0 -0.11663380449E-02 -0.22833467932E-01 -0.68058630678E-02  0.23854713881E-01  0.00000000000E+00 0. -1.
     999901    1    3    3    0    0 -0.69458114484E-01 -0.71247147970E-01  0.62773260999E-01  0.88782941383E+00  0.88000000000E+00 0. -1.
        -11    1    4    4    0    0  0.52339052551E-01  0.78428060154E-01 -0.35861976544E-01  0.10087952976E+00  0.51100000000E-03 0.  1.
         11    1    4    4    0    0  0.18285399978E-01  0.15652555748E-01 -0.20105421387E-01  0.31366342534E-01  0.51100000000E-03 0. -1.
</event>
<event>
 8    1  0.1081309E+005  0.1043930E+01  0.7957747E-01            NaN
         13   -1    0    0    0    0  0.00000000000E+00  0.00000000000E+00  0.74505805969E-08  0.10566000000E+00  0.10566000000E+00 0. -1.
     999900   -1    0    0    0    0 -0.00000000000E+00 -0.00000000000E+00 -0.74505805969E-08  0.93827000000E+00  0.93827000000E+00 0.  1.
     999902    2    1    2    0    0  0.77807262858E-02 -0.13337685782E-02 -0.22035502167E-01  0.10205231208E+01  0.10202546535E+01 0.  0.
     999903    2    3    3    0    0  0.50970926747E-02 -0.10398870739E+00  0.74153356351E-01  0.12934550947E+00  0.19796690204E-01 0.  0.
         14    1    1    2    0    0 -0.77807262858E-02  0.13337685782E-02  0.22035502167E-01  0.23406879243E-01  0.00000000000E+00 0. -1.
     999901    1    3    3    0    0  0.26836336111E-02  0.10265493882E+00 -0.96188858518E-01  0.89117761129E+00  0.88000000000E+00 0.  1.
        -11    1    4    4    0    0  0.87458117647E-02 -0.32221102693E-01  0.30751173490E-01  0.45393661168E-01  0.51100000000E-03 0. -1.
         11    1    4    4    0    0 -0.36487190900E-02 -0.71767604701E-01  0.43402182861E-01  0.83951848304E-01  0.51100000000E-03 0.  1.
</event>
<event>
 8    1  0.1081309E+005  0.1043930E+01  0.7957747E-01            NaN
         13   -1    0    0    0    0  0.00000000000E+00  0.00000000000E+00  0.74505805969E-08  0.10566000000E+00  0.10566000000E+00 0. -1.
     999900   -1    0    0    0    0 -0.00000000000E+00 -0.00000000000E+00 -0.74505805969E-08  0.93827000000E+00  0.93827000000E+00 0. -1.
     999902    2    1    2    0    0 -0.27216931389E-02 -0.14219992336E-01 -0.17687803761E-01  0.10210723055E+01  0.10208164276E+01 0.  0.
     999903    2    3    3    0    0 -0.70002318640E-01  0.10259694529E+00 -0.35384592230E-01  0.13063081063E+00  0.19643867230E-01 0.  0.
         14    1    1    2    0    0  0.27216931389E-02  0.14219992336E-01  0.17687803761E-01  0.22857694492E-01  0.00000000000E+00 0. -1.
     999901    1    3    3    0    0  0.67280625501E-01 -0.11681693763E+00  0.17696788469E-01  0.89044149488E+00  0.88000000000E+00 0.  1.
        -11    1    4    4    0    0 -0.76313596507E-02  0.12708023349E-01 -0.11185797191E-01  0.18577262645E-01  0.51100000000E-03 0. -1.
         11    1    4    4    0    0 -0.62370958990E-01  0.89888921941E-01 -0.24198795039E-01  0.11205354798E+00  0.51100000000E-03 0.  1.
</event>
<event>
 8    1  0.1081309E+005  0.1043930E+01  0.7957747E-01            NaN
         13   -1    0    0    0    0  0.00000000000E+00  0.00000000000E+00  0.74505805969E-08  0.10566000000E+00  0.10566000000E+00 0. -1.
     999900   -1    0    0    0    0 -0.00000000000E+00 -0.00000000000E+00 -0.74505805969E-08  0.93827000000E+00  0.93827000000E+00 0. -1.
     999902    2    1    2    0    0 -0.16550800544E-01  0.17166071950E-01 -0.12663357515E-02  0.10200510002E+01  0.10197714628E+01 0.  0.
     999903    2    3    3    0    0  0.94839502149E-01  0.28039244911E-01 -0.80950009360E-01  0.12939084433E+00  0.20207824189E-01 0.  0.
         14    1    1    2    0    0  0.16550800544E-01 -0.17166071950E-01  0.12663357515E-02  0.23878999792E-01  0.00000000000E+00 0.  1.
     999901    1    3    3    0    0 -0.11139030269E+00 -0.10873172962E-01  0.79683673609E-01  0.89066015588E+00  0.88000000000E+00 0.  1.
        -11    1    4    4    0    0  0.60819757255E-01  0.85112715311E-02 -0.44506069461E-01  0.75845474192E-01  0.51100000000E-03 0.  1.
         11    1    4    4    0    0  0.34019744895E-01  0.19527973380E-01 -0.36443939899E-01  0.53545370140E-01  0.51100000000E-03 0. -1.
</event>
<event>
 8    1  0.1081309E+005  0.1043930E+01  0.7957747E-01            NaN
         13   -1    0    0    0    0  0.00000000000E+00  0.00000000000E+00  0.74505805969E-08  0.10566000000E+00  0.10566000000E+00 0. -1.
     999900   -1    0    0    0    0 -0.00000000000E+00 -0.00000000000E+00 -0.74505805969E-08  0.93827000000E+00  0.93827000000E+00 0.  1.
     999902    2    1    2    0    0 -0.11371039883E-01  0.19786054387E-02  0.28253390775E-01  0.10134100145E+01  0.10129503383E+01 0.  0.
     999903    2    3    3    0    0  0.24619645749E-01  0.82077440692E-01 -0.84193995439E-01  0.12191937091E+00  0.20805549915E-01 0.  0.
         14    1    1    2    0    0  0.11371039883E-01 -0.19786054387E-02 -0.28253390775E-01  0.30519985547E-01  0.00000000000E+00 0.  1.
     999901    1    3    3    0    0 -0.35990685632E-01 -0.80098835254E-01  0.11244738621E+00  0.89149064354E+00  0.88000000000E+00 0. -1.
        -11    1    4    4    0    0  0.21501292773E-01  0.58454877050E-01 -0.48234031704E-01  0.78778557852E-01  0.51100000000E-03 0.  1.
         11    1    4    4    0    0  0.31183529755E-02  0.23622563642E-01 -0.35959963734E-01  0.43140813056E-01  0.51100000000E-03 0. -1.
</event>
<event>
 8    1  0.1081309E+005  0.1043930E+01  0.7957747E-01            NaN
         13   -1    0    0    0    0  0.00000000000E+00  0.00000000000E+00  0.74505805969E-08  0.10566000000E+00  0.10566000000E+00 0. -1.
     999900   -1    0    0    0    0 -0.00000000000E+00 -0.00000000000E+00 -0.74505805969E-08  0.93827000000E+00  0.93827000000E+00 0. -1.
     999902    2    1    2    0    0  0.10952496212E-01 -0.21122651816E-01  0.45866564160E-02  0.10196985945E+01  0.10194106448E+01 0.  0.
     999903    2    3    3    0    0  0.87284896037E-01  0.83956308565E-01  0.40396486874E-01  0.12944550293E+00  0.21376324604E-01 0.  0.
         14    1    1    2    0    0 -0.10952496212E-01  0.21122651816E-01 -0.45866564160E-02  0.24231405450E-01  0.00000000000E+00 0.  1.
     999901    1    3    3    0    0 -0.76332399825E-01 -0.10507896038E+00 -0.35809830458E-01  0.89025309162E+00  0.88000000000E+00 0.  1.
        -11    1    4    4    0    0  0.53031229227E-01  0.53039552974E-01  0.14054334056E-01  0.76310489972E-01  0.51100000000E-03 0.  1.
         11    1    4    4    0    0  0.34253666810E-01  0.30916755591E-01  0.26342152818E-01  0.53135012960E-01  0.51100000000E-03 0. -1.
</event>
<event>
 8    1  0.1081309E+005  0.1043930E+01  0.7957747E-01            NaN
         13   -1    0    0    0    0  0.00000000000E+00  0.00000000000E+00  0.74505805969E-08  0.10566000000E+00  0.10566000000E+00 0. -1.
     999900   -1    0    0    0    0 -0.00000000000E+00 -0.00000000000E+00 -0.74505805969E-08  0.93827000000E+00  0.93827000000E+00 0. -1.
     999902    2    1    2    0    0  0.61854483001E-02 -0.13602713816E-01  0.18307804707E-01  0.10202980448E+01  0.10200243286E+01 0.  0.
     999903    2    3    3    0    0  0.12262848844E+00  0.29913546263E-01 -0.25584463114E-01  0.13047830031E+00  0.20915440981E-01 0.  0.
         14    1    1    2    0    0 -0.61854483001E-02  0.13602713816E-01 -0.18307804707E-01  0.23631955209E-01  0.00000000000E+00 0.  1.
     999901    1    3    3    0    0 -0.11644304014E+00 -0.43516260079E-01  0.43892267820E-01  0.88981974448E+00  0.88000000000E+00 0. -1.
        -11    1    4    4    0    0  0.15942477351E-01  0.12316463892E-02 -0.10108631302E-01  0.18924193106E-01  0.51100000000E-03 0. -1.
         11    1    4    4    0    0  0.10668601109E+00  0.28681899874E-01 -0.15475831812E-01  0.11155410721E+00  0.51100000000E-03 0.  1.
</event>
<event>
 8    1  0.1081309E+005  0.1043930E+01  0.7957747E-01            NaN
         13   -1    0    0    0    0  0.00000000000E+00  0.00000000000E+00  0.74505805969E-08  0.10566000000E+00  0.10566000000E+00 0. -1.
     999900   -1    0    0    0    0 -0.00000000000E+00 -0.00000000000E+00 -0.74505805969E-08  0.93827000000E+00  0.93827000000E+00 0.  1.
     999902    2    1    2    0    0  0.21854311718E-01  0.10471399634E-01  0.27993668120E-02  0.10195353775E+01  0.10192434883E+01 0.  0.
     999903    2    3    3    0    0 -0.16140194064E-01 -0.40685036847E-01 -0.11981284515E+00  0.12875239723E+00  0.17500966919E-01 0.  0.
         14    1    1    2    0    0 -0.21854311718E-01 -0.10471399634E-01 -0.27993668120E-02  0.24394622471E-01  0.00000000000E+00 0.  1.
     999901    1    3    3    0    0  0.37994505782E-01  0.51156436480E-01  0.12261221196E+00  0.89078298030E+00  0.88000000000E+00 0. -1.
        -11    1    4    4    0    0  0.17619360617E-02 -0.23626897128E-02 -0.21754497425E-01  0.21959189434E-01  0.51100000000E-03 0.  1.
         11    1    4    4    0    0 -0.17902130125E-01 -0.38322347134E-01 -0.98058347723E-01  0.10679320780E+00  0.51100000000E-03 0. -1.
</event>
<event>
 8    1  0.1081309E+005  0.1043930E+01  0.7957747E-01            NaN
         13   -1    0    0    0    0  0.00000000000E+00  0.00000000000E+00  0.74505805969E-08  0.10566000000E+00  0.10566000000E+00 0.  1.
     999900   -1    0    0    0    0 -0.00000000000E+00 -0.00000000000E+00 -0.74505805969E-08  0.93827000000E+00  0.93827000000E+00 0.  1.
     999902    2    1    2    0    0  0.65585638507E-02 -0.13114591572E-01 -0.18408752124E-01  0.10203951444E+01  0.10201236990E+01 0.  0.
     999903    2    3    3    0    0  0.12412027112E+00 -0.39360755297E-01 -0.77705939706E-02  0.13212559833E+00  0.21016204288E-01 0.  0.
         14    1    1    2    0    0 -0.65585638507E-02  0.13114591572E-01  0.18408752124E-01  0.23534855569E-01  0.00000000000E+00 0.  1.
     999901    1    3    3    0    0 -0.11756170727E+00  0.26246163725E-01 -0.10638158153E-01  0.88826954610E+00  0.88000000000E+00 0. -1.
        -11    1    4    4    0    0  0.10112818997E+00 -0.24753066455E-01 -0.12998696087E-02  0.10412288840E+00  0.51100000000E-03 0. -1.
         11    1    4    4    0    0  0.22992081147E-01 -0.14607688842E-01 -0.64707243619E-02  0.28002709932E-01  0.51100000000E-03 0.  1.
</event>
<event>
 8    1  0.1093673E+005  0.1043930E+01  0.7957747E-01            NaN
         13   -1    0    0    0    0  0.00000000000E+00  0.00000000000E+00  0.74505805969E-08  0.10566000000E+00  0.10566000000E+00 0.  1.
     999900   -1    0    0    0    0 -0.00000000000E+00 -0.00000000000E+00 -0.74505805969E-08  0.93827000000E+00  0.93827000000E+00 0. -1.
     999902    2    1    2    0    0  0.83506231612E-02 -0.22551122471E-01  0.15055055320E-02  0.10198353413E+01  0.10195506710E+01 0.  0.
     999903    2    3    3    0    0  0.38833905233E-01 -0.61418647351E-01 -0.10789445714E+00  0.13168655487E+00  0.20489324358E-01 0.  0.
         14    1    1    2    0    0 -0.83506231612E-02  0.22551122471E-01 -0.15055055320E-02  0.24094658719E-01  0.00000000000E+00 0.  1.
     999901    1    3    3    0    0 -0.30483282072E-01  0.38867524880E-01  0.10939996267E+00  0.88814878641E+00  0.88000000000E+00 0.  1.
        -11    1    4    4    0    0  0.30852331908E-01 -0.41123710041E-01 -0.59711366721E-01  0.78795522388E-01  0.51100000000E-03 0. -1.
         11    1    4    4    0    0  0.79815733256E-02 -0.20294937310E-01 -0.48183090421E-01  0.52891032479E-01  0.51100000000E-03 0.  1.
</event>
<event>
 8    1  0.1081309E+005  0.1043930E+01  0.7957747E-01            NaN
         13   -1    0    0    0    0  0.00000000000E+00  0.00000000000E+00  0.74505805969E-08  0.10566000000E+00  0.10566000000E+00 0. -1.
     999900   -1    0    0    0    0 -0.00000000000E+00 -0.00000000000E+00 -0.74505805969E-08  0.93827000000E+00  0.93827000000E+00 0.  1.
     999902    2    1    2    0    0 -0.14637270309E-01 -0.20635230962E-01 -0.22425857822E-02  0.10185313459E+01  0.10182146193E+01 0.  0.
     999903    2    3    3    0    0  0.29987321054E-01 -0.30751811208E-01 -0.12050137798E+00  0.12944257571E+00  0.19745505658E-01 0.  0.
         14    1    1    2    0    0  0.14637270309E-01  0.20635230962E-01  0.22425857822E-02  0.25398654097E-01  0.00000000000E+00 0. -1.
     999901    1    3    3    0    0 -0.44624591364E-01  0.10116580246E-01  0.11825879220E+00  0.88908877019E+00  0.88000000000E+00 0. -1.
        -11    1    4    4    0    0  0.15476176356E-01 -0.11687803462E-01 -0.80565995943E-01  0.82868918225E-01  0.51100000000E-03 0. -1.
         11    1    4    4    0    0  0.14511144698E-01 -0.19064007746E-01 -0.39935382041E-01  0.46573657485E-01  0.51100000000E-03 0.  1.
</event>
<event>
 8    1  0.1081309E+005  0.1043930E+01  0.7957747E-01            NaN
         13   -1    0    0    0    0  0.00000000000E+00  0.00000000000E+00  0.74505805969E-08  0.10566000000E+00  0.10566000000E+00 0. -1.
     999900   -1    0    0    0    0 -0.00000000000E+00 -0.00000000000E+00 -0.74505805969E-08  0.93827000000E+00  0.93827000000E+00 0. -1.
     999902    2    1    2    0    0  0.20668684240E-01  0.10826234465E-01 -0.78592673179E-02  0.10193094812E+01  0.10190120944E+01 0.  0.
     999903    2    3    3    0    0 -0.10186019318E+00 -0.67014271326E-01 -0.29949690167E-01  0.12714332131E+00  0.20050653277E-01 0.  0.
         14    1    1    2    0    0 -0.20668684240E-01 -0.10826234465E-01  0.78592673179E-02  0.24620518754E-01  0.00000000000E+00 0.  1.
     999901    1    3    3    0    0  0.12252887743E+00  0.77840505792E-01  0.22090422849E-01  0.89216615993E+00  0.88000000000E+00 0.  1.
        -11    1    4    4    0    0 -0.54103970061E-01 -0.30763823396E-01 -0.58223244537E-02  0.62512502664E-01  0.51100000000E-03 0. -1.
         11    1    4    4    0    0 -0.47756223124E-01 -0.36250447930E-01 -0.24127365713E-01  0.64630818650E-01  0.51100000000E-03 0.  1.
</event>
<event>
 8    1  0.1081309E+005  0.1043930E+01  0.7957747E-01            NaN
         13   -1    0    0    0    0  0.00000000000E+00  0.00000000000E+00  0.74505805969E-08  0.10566000000E+00  0.10566000000E+00 0. -1.
     999900   -1    0    0    0    0 -0.00000000000E+00 -0.00000000000E+00 -0.74505805969E-08  0.93827000000E+00  0.93827000000E+00 0.  1.
     999902    2    1    2    0    0 -0.17774086722E-01  0.21517534443E-04  0.16238965715E-01  0.10198546468E+01  0.10195704380E+01 0.  0.
     999903    2    3    3    0    0  0.62919829390E-01  0.37667976721E-01  0.10647350373E+00  0.13077026624E+00  0.19658945424E-01 0.  0.
         14    1    1    2    0    0  0.17774086722E-01 -0.21517534443E-04 -0.16238965715E-01  0.24075353150E-01  0.00000000000E+00 0.  1.
     999901    1    3    3    0    0 -0.80693916112E-01 -0.37646459187E-01 -0.90234538019E-01  0.88908438061E+00  0.88000000000E+00 0.  1.
        -11    1    4    4    0    0  0.37474803358E-01  0.33215822575E-01  0.71074366691E-01  0.86945261387E-01  0.51100000000E-03 0.  1.
         11    1    4    4    0    0  0.25445026032E-01  0.44521541465E-02  0.35399137043E-01  0.43825004857E-01  0.51100000000E-03 0. -1.
</event>
<event>
 8    1  0.1081309E+005  0.1043930E+01  0.7957747E-01            NaN
         13   -1    0    0    0    0  0.00000000000E+00  0.00000000000E+00  0.74505805969E-08  0.10566000000E+00  0.10566000000E+00 0. -1.
     999900   -1    0    0    0    0 -0.00000000000E+00 -0.00000000000E+00 -0.74505805969E-08  0.93827000000E+00  0.93827000000E+00 0. -1.
     999902    2    1    2    0    0  0.22763344107E-01  0.12462889056E-01  0.17542197677E-02  0.10179190268E+01  0.10175866422E+01 0.  0.
     999903    2    3    3    0    0  0.28841088820E-01  0.59896656575E-01 -0.10948575122E+00  0.12962784009E+00  0.19920575603E-01 0.  0.
         14    1    1    2    0    0 -0.22763344107E-01 -0.12462889056E-01 -0.17542197677E-02  0.26010973176E-01  0.00000000000E+00 0. -1.
     999901    1    3    3    0    0 -0.60777447131E-02 -0.47433767519E-01  0.11123997099E+00  0.88829118673E+00  0.88000000000E+00 0.  1.
        -11    1    4    4    0    0  0.21691245366E-02  0.18085217045E-01 -0.42824606945E-01  0.46540178962E-01  0.51100000000E-03 0. -1.
         11    1    4    4    0    0  0.26671964283E-01  0.41811439530E-01 -0.66661144280E-01  0.83087661129E-01  0.51100000000E-03 0.  1.
</event>
<event>
 8    1  0.1081309E+005  0.1043930E+01  0.7957747E-01            NaN
         13   -1    0    0    0    0  0.00000000000E+00  0.00000000000E+00  0.74505805969E-08  0.10566000000E+00  0.10566000000E+00 0.  1.
     999900   -1    0    0    0    0 -0.00000000000E+00 -0.00000000000E+00 -0.74505805969E-08  0.93827000000E+00  0.93827000000E+00 0. -1.
     999902    2    1    2    0    0  0.34650558756E-02  0.20451979406E-01 -0.10362080440E-01  0.10207424433E+01  0.10204790408E+01 0.  0.
     999903    2    3    3    0    0  0.20964107850E-01  0.19552708854E-01  0.12541384257E+00  0.13015717128E+00  0.19759936336E-01 0.  0.
         14    1    1    2    0    0 -0.34650558756E-02 -0.20451979406E-01  0.10362080440E-01  0.23187556682E-01  0.00000000000E+00 0.  1.
     999901    1    3    3    0    0 -0.17499051974E-01  0.89927055221E-03 -0.13577592301E+00  0.89058527204E+00  0.88000000000E+00 0. -1.
        -11    1    4    4    0    0  0.14809874929E-01  0.54661308148E-03  0.52383623798E-01  0.54442045741E-01  0.51100000000E-03 0. -1.
         11    1    4    4    0    0  0.61542329214E-02  0.19006095772E-01  0.73030218776E-01  0.75715125535E-01  0.51100000000E-03 0.  1.
</event>
<event>
 8    1  0.1081309E+005  0.1043930E+01  0.7957747E-01            NaN
         13   -1    0    0    0    0  0.00000000000E+00  0.00000000000E+00  0.74505805969E-08  0.10566000000E+00  0.10566000000E+00 0. -1.
     999900   -1    0    0    0    0 -0.00000000000E+00 -0.00000000000E+00 -0.74505805969E-08  0.93827000000E+00  0.93827000000E+00 0. -1.
     999902    2    1    2    0    0  0.96565074392E-02  0.13217279066E-01 -0.17342055446E-01  0.10200827467E+01  0.10198039609E+01 0.  0.
     999903    2    3    3    0    0  0.24706737216E-01 -0.15033597088E-01  0.12329432469E+00  0.12834107290E+00  0.20820869017E-01 0.  0.
         14    1    1    2    0    0 -0.96565074392E-02 -0.13217279066E-01  0.17342055446E-01  0.23847253278E-01  0.00000000000E+00 0. -1.
     999901    1    3    3    0    0 -0.15050229777E-01  0.28250876154E-01 -0.14063638013E+00  0.89174167383E+00  0.88000000000E+00 0. -1.
        -11    1    4    4    0    0  0.47446973692E-02 -0.29301318603E-02  0.69148881023E-01  0.69375259953E-01  0.51100000000E-03 0.  1.
         11    1    4    4    0    0  0.19962039847E-01 -0.12103465228E-01  0.54145443665E-01  0.58965812943E-01  0.51100000000E-03 0. -1.
</event>
<event>
 8    1  0.1081309E+005  0.1043930E+01  0.7957747E-01            NaN
         13   -1    0    0    0    0  0.00000000000E+00  0.00000000000E+00  0.74505805969E-08  0.10566000000E+00  0.10566000000E+00 0.  1.
     999900   -1    0    0    0    0 -0.00000000000E+00 -0.00000000000E+00 -0.74505805969E-08  0.93827000000E+00  0.93827000000E+00 0.  1.
     999902    2    1    2    0    0 -0.14392515552E-01  0.24546168683E-02  0.18391254932E-01  0.10204479237E+01  0.10201777086E+01 0.  0.
     999903    2    3    3    0    0  0.68671328196E-01 -0.56360118784E-01 -0.89092790361E-01  0.12808499574E+00  0.24000552761E-01 0.  0.
         14    1    1    2    0    0  0.14392515552E-01 -0.24546168683E-02 -0.18391254932E-01  0.23482076268E-01  0.00000000000E+00 0. -1.
     999901    1    3    3    0    0 -0.83063843748E-01  0.58814735653E-01  0.10748404529E+00  0.89236292800E+00  0.88000000000E+00 0. -1.
        -11    1    4    4    0    0  0.95122818227E-02 -0.68624019392E-03 -0.16863987350E-01  0.19380650696E-01  0.51100000000E-03 0.  1.
         11    1    4    4    0    0  0.59159046373E-01 -0.55673878590E-01 -0.72228803011E-01  0.10870434504E+00  0.51100000000E-03 0. -1.
</event>
<event>
 8    1  0.1081309E+005  0.1043930E+01  0.7957747E-01            NaN
         13   -1    0    0    0    0  0.00000000000E+00  0.00000000000E+00  0.74505805969E-08  0.10566000000E+00  0.10566000000E+00 0. -1.
     999900   -1    0    0    0    0 -0.00000000000E+00 -0.00000000000E+00 -0.74505805969E-08  0.93827000000E+00  0.93827000000E+00 0. -1.
     999902    2    1    2    0    0  0.18802012293E-01 -0.19039066233E-03 -0.14614327963E-01  0.10201154982E+01  0.10198374866E+01 0.  0.
     999903    2    3    3    0    0 -0.88481128320E-01 -0.63706862061E-01  0.63617652858E-01  0.12789116696E+00  0.20529746464E-01 0.  0.
         14    1    1    2    0    0 -0.18802012293E-01  0.19039066233E-03  0.14614327963E-01  0.23814501815E-01  0.00000000000E+00 0. -1.
     999901    1    3    3    0    0  0.10728314061E+00  0.63516471399E-01 -0.78231980822E-01  0.89222433122E+00  0.88000000000E+00 0. -1.
        -11    1    4    4    0    0 -0.51060221722E-01 -0.47237753531E-01  0.34156880410E-01  0.77495194698E-01  0.51100000000E-03 0.  1.
         11    1    4    4    0    0 -0.37420906599E-01 -0.16469108530E-01  0.29460772449E-01  0.50395972267E-01  0.51100000000E-03 0. -1.
</event>
<event>
 8    1  0.1081309E+005  0.1043930E+01  0.7957747E-01            NaN
         13   -1    0    0    0    0  0.00000000000E+00  0.00000000000E+00  0.74505805969E-08  0.10566000000E+00  0.10566000000E+00 0. -1.
     999900   -1    0    0    0    0 -0.00000000000E+00 -0.00000000000E+00 -0.74505805969E-08  0.93827000000E+00  0.93827000000E+00 0.  1.
     999902    2    1    2    0    0 -0.15509313989E-02 -0.23791086061E-01 -0.39888828102E-02  0.10197570327E+01  0.10194704867E+01 0.  0.
     999903    2    3    3    0    0  0.44112722784E-01 -0.12488129734E+00  0.34109454774E-02  0.13276258082E+00  0.85438620765E-02 0.  0.
         14    1    1    2    0    0  0.15509313989E-02  0.23791086061E-01  0.39888828102E-02  0.24172967345E-01  0.00000000000E+00 0. -1.
     999901    1    3    3    0    0 -0.45663654183E-01  0.10109021128E+00 -0.73998282876E-02  0.88699445184E+00  0.88000000000E+00 0. -1.
        -11    1    4    4    0    0  0.30503906559E-01 -0.95128910545E-01  0.47506846177E-02  0.10001413931E+00  0.51100000000E-03 0.  1.
         11    1    4    4    0    0  0.13608816225E-01 -0.29752386798E-01 -0.13397391403E-02  0.32748441508E-01  0.51100000000E-03 0. -1.
</event>
<event>
 8    1  0.1081309E+005  0.1043930E+01  0.7957747E-01            NaN
         13   -1    0    0    0    0  0.00000000000E+00  0.00000000000E+00  0.74505805969E-08  0.10566000000E+00  0.10566000000E+00 0. -1.
     999900   -1    0    0    0    0 -0.00000000000E+00 -0.00000000000E+00 -0.74505805969E-08  0.93827000000E+00  0.93827000000E+00 0. -1.
     999902    2    1    2    0    0 -0.13143184971E-01  0.16982599716E-01 -0.94606971400E-02  0.10204639225E+01  0.10201940797E+01 0.  0.
     999903    2    3    3    0    0  0.66632674065E-01  0.10661244959E+00 -0.34911234791E-01  0.13195650689E+00  0.19687501987E-01 0.  0.
         14    1    1    2    0    0  0.13143184971E-01 -0.16982599716E-01  0.94606971400E-02  0.23466077530E-01  0.00000000000E+00 0.  1.
     999901    1    3    3    0    0 -0.79775859036E-01 -0.89629849878E-01  0.25450537652E-01  0.88850741558E+00  0.88000000000E+00 0. -1.
        -11    1    4    4    0    0  0.79578536559E-02  0.11636511229E-01 -0.10740838929E-01  0.17730272708E-01  0.51100000000E-03 0. -1.
         11    1    4    4    0    0  0.58674820409E-01  0.94975938365E-01 -0.24170395863E-01  0.11422623418E+00  0.51100000000E-03 0.  1.
</event>
<event>
 8    1  0.1081309E+005  0.1043930E+01  0.7957747E-01            NaN
         13   -1    0    0    0    0  0.00000000000E+00  0.00000000000E+00  0.74505805969E-08  0.10566000000E+00  0.10566000000E+00 0. -1.
     999900   -1    0    0    0    0 -0.00000000000E+00 -0.00000000000E+00 -0.74505805969E-08  0.93827000000E+00  0.93827000000E+00 0. -1.
     999902    2    1    2    0    0 -0.14219150863E-01  0.21464035285E-01 -0.50349027518E-02  0.10176956845E+01  0.10173574922E+01 0.  0.
     999903    2    3    3    0    0 -0.13934980365E-01 -0.65003712940E-01  0.10563751065E+00  0.12655869433E+00  0.20932106458E-01 0.  0.
         14    1    1    2    0    0  0.14219150863E-01 -0.21464035285E-01  0.50349027518E-02  0.26234315461E-01  0.00000000000E+00 0. -1.
     999901    1    3    3    0    0 -0.28417049870E-03  0.86467748225E-01 -0.11067241340E+00  0.89113699021E+00  0.88000000000E+00 0.  1.
        -11    1    4    4    0    0 -0.15706567217E-01 -0.26409551290E-01  0.40758804829E-01  0.51046076687E-01  0.51100000000E-03 0. -1.
         11    1    4    4    0    0  0.17715868527E-02 -0.38594161650E-01  0.64878705816E-01  0.75512617640E-01  0.51100000000E-03 0.  1.
</event>
<event>
 8    1  0.1081309E+005  0.1043930E+01  0.7957747E-01            NaN
         13   -1    0    0    0    0  0.00000000000E+00  0.00000000000E+00  0.74505805969E-08  0.10566000000E+00  0.10566000000E+00 0. -1.
     999900   -1    0    0    0    0 -0.00000000000E+00 -0.00000000000E+00 -0.74505805969E-08  0.93827000000E+00  0.93827000000E+00 0.  1.
     999902    2    1    2    0    0 -0.17043731171E-01  0.15942694339E-01 -0.38082095106E-03  0.10205889782E+01  0.10203220369E+01 0.  0.
     999903    2    3    3    0    0 -0.58291916330E-01 -0.69427293592E-01 -0.91819892092E-01  0.13078531930E+00  0.21349720297E-01 0.  0.
         14    1    1    2    0    0  0.17043731171E-01 -0.15942694339E-01  0.38082095106E-03  0.23341021820E-01  0.00000000000E+00 0. -1.
     999901    1    3    3    0    0  0.41248185160E-01  0.85369987931E-01  0.91439071141E-01  0.88980365888E+00  0.88000000000E+00 0. -1.
        -11    1    4    4    0    0 -0.47950578296E-01 -0.42948387208E-01 -0.58507166733E-01  0.86989491335E-01  0.51100000000E-03 0. -1.
         11    1    4    4    0    0 -0.10341338035E-01 -0.26478906384E-01 -0.33312725359E-01  0.43795827969E-01  0.51100000000E-03 0.  1.
</event>
<event>
 8    1  0.1081309E+005  0.1043930E+01  0.7957747E-01            NaN
         13   -1    0    0    0    0  0.00000000000E+00  0.00000000000E+00  0.74505805969E-08  0.10566000000E+00  0.10566000000E+00 0. -1.
     999900   -1    0    0    0    0 -0.00000000000E+00 -0.00000000000E+00 -0.74505805969E-08  0.93827000000E+00  0.93827000000E+00 0. -1.
     999902    2    1    2    0    0  0.21462533739E-01 -0.41483121796E-02 -0.15607606354E-02  0.10220145985E+01  0.10217796019E+01 0.  0.
     999903    2    3    3    0    0  0.64830015207E-01  0.11327530237E+00  0.15091812832E-01  0.13300033996E+00  0.20666461150E-01 0.  0.
         14    1    1    2    0    0 -0.21462533739E-01  0.41483121796E-02  0.15607606354E-02  0.21915401484E-01  0.00000000000E+00 0. -1.
     999901    1    3    3    0    0 -0.43367481468E-01 -0.11742361455E+00 -0.16652573467E-01  0.88901425855E+00  0.88000000000E+00 0. -1.
        -11    1    4    4    0    0  0.37200730126E-01  0.83113560590E-01  0.72502963227E-02  0.91348706579E-01  0.51100000000E-03 0.  1.
         11    1    4    4    0    0  0.27629285081E-01  0.30161741784E-01  0.78415165094E-02  0.41651633386E-01  0.51100000000E-03 0. -1.
</event>
<event>
 8    1  0.1081309E+005  0.1043930E+01  0.7957747E-01            NaN
         13   -1    0    0    0    0  0.00000000000E+00  0.00000000000E+00  0.74505805969E-08  0.10566000000E+00  0.10566000000E+00 0. -1.
     999900   -1    0    0    0    0 -0.00000000000E+00 -0.00000000000E+00 -0.74505805969E-08  0.93827000000E+00  0.93827000000E+00 0. -1.
     999902    2    1    2    0    0  0.33130978351E-02 -0.15356729863E-01 -0.18978771985E-01  0.10192926390E+01  0.10189948402E+01 0.  0.
     999903    2    3    3    0    0  0.10806850728E+00 -0.54195702785E-03 -0.71990453360E-01  0.13137180266E+00  0.19920571708E-01 0.  0.
         14    1    1    2    0    0 -0.33130978351E-02  0.15356729863E-01  0.18978771985E-01  0.24637360967E-01  0.00000000000E+00 0. -1.
     999901    1    3    3    0    0 -0.10475540944E+00 -0.14814772835E-01  0.53011681375E-01  0.88792083637E+00  0.88000000000E+00 0.  1.
        -11    1    4    4    0    0  0.19564858541E-01 -0.64857265169E-02 -0.19043152598E-01  0.28066904355E-01  0.51100000000E-03 0. -1.
         11    1    4    4    0    0  0.88503648735E-01  0.59437694890E-02 -0.52947300762E-01  0.10330489831E+00  0.51100000000E-03 0.  1.
</event>
<event>
 8    1  0.1081309E+005  0.1043930E+01  0.7957747E-01            NaN
         13   -1    0    0    0    0  0.00000000000E+00  0.00000000000E+00  0.74505805969E-08  0.10566000000E+00  0.10566000000E+00 0.  1.
     999900   -1    0    0    0    0 -0.00000000000E+00 -0.00000000000E+00 -0.74505805969E-08  0.93827000000E+00  0.93827000000E+00 0. -1.
     999902    2    1    2    0    0  0.15165742052E-01 -0.12509470185E-01  0.15594337238E-01  0.10188367752E+01  0.10185277142E+01 0.  0.
     999903    2    3    3    0    0  0.42795127830E-01 -0.42160034561E-01  0.11610593694E+00  0.13218852444E+00  0.19604232219E-01 0.  0.
         14    1    1    2    0    0 -0.15165742052E-01  0.12509470185E-01 -0.15594337238E-01  0.25093224787E-01  0.00000000000E+00 0.  1.
     999901    1    3    3    0    0 -0.27629385778E-01  0.29650564376E-01 -0.10051159970E+00  0.88664825077E+00  0.88000000000E+00 0. -1.
        -11    1    4    4    0    0  0.22668086071E-01 -0.24077061373E-01  0.43090916197E-01  0.54319749541E-01  0.51100000000E-03 0.  1.
         11    1    4    4    0    0  0.20127041758E-01 -0.18082973187E-01  0.73015020742E-01  0.77868774898E-01  0.51100000000E-03 0. -1.
</event>
<event>
 8    1  0.1081309E+005  0.1043930E+01  0.7957747E-01            NaN
         13   -1    0    0    0    0  0.00000000000E+00  0.00000000000E+00  0.74505805969E-08  0.10566000000E+00  0.10566000000E+00 0. -1.
     999900   -1    0    0    0    0 -0.00000000000E+00 -0.00000000000E+00 -0.74505805969E-08  0.93827000000E+00  0.93827000000E+00 0. -1.
     999902    2    1    2    0    0 -0.12302944133E-01 -0.16872664576E-01 -0.83357152384E-02  0.10214459302E+01  0.10211984406E+01 0.  0.
     999903    2    3    3    0    0  0.12129200907E+00  0.37550353909E-01 -0.17017137785E-01  0.12965848721E+00  0.19998994589E-01 0.  0.
         14    1    1    2    0    0  0.12302944133E-01  0.16872664576E-01  0.83357152384E-02  0.22484069756E-01  0.00000000000E+00 0. -1.
     999901    1    3    3    0    0 -0.13359495320E+00 -0.54423018485E-01  0.86814225469E-02  0.89178744304E+00  0.88000000000E+00 0.  1.
        -11    1    4    4    0    0  0.63876904633E-01  0.10691307011E-01 -0.36154429658E-02  0.64868293796E-01  0.51100000000E-03 0. -1.
         11    1    4    4    0    0  0.57415104432E-01  0.26859046898E-01 -0.13401694819E-01  0.64790193411E-01  0.51100000000E-03 0.  1.
</event>
<event>
 8    1  0.1081309E+005  0.1043930E+01  0.7957747E-01            NaN
         13   -1    0    0    0    0  0.00000000000E+00  0.00000000000E+00  0.74505805969E-08  0.10566000000E+00  0.10566000000E+00 0.  1.
     999900   -1    0    0    0    0 -0.00000000000E+00 -0.00000000000E+00 -0.74505805969E-08  0.93827000000E+00  0.93827000000E+00 0.  1.
     999902    2    1    2    0    0 -0.22984074097E-01  0.69439244531E-02  0.17580781696E-02  0.10198556031E+01  0.10195714171E+01 0.  0.
     999903    2    3    3    0    0  0.12132724185E+00  0.31095625269E-01  0.17970375778E-01  0.12762698934E+00  0.16687614464E-01 0.  0.
         14    1    1    2    0    0  0.22984074097E-01 -0.69439244531E-02 -0.17580781696E-02  0.24074396934E-01  0.00000000000E+00 0. -1.
     999901    1    3    3    0    0 -0.14431131594E+00 -0.24151700816E-01 -0.16212297608E-01  0.89222861373E+00  0.88000000000E+00 0.  1.
        -11    1    4    4    0    0  0.58310184526E-01  0.78256695563E-02  0.37106138633E-02  0.58952086474E-01  0.51100000000E-03 0.  1.
         11    1    4    4    0    0  0.63017057322E-01  0.23269955713E-01  0.14259761914E-01  0.68674902863E-01  0.51100000000E-03 0. -1.
</event>
<event>
 8    1  0.1081309E+005  0.1043930E+01  0.7957747E-01            NaN
         13   -1    0    0    0    0  0.00000000000E+00  0.00000000000E+00  0.74505805969E-08  0.10566000000E+00  0.10566000000E+00 0. -1.
     999900   -1    0    0    0    0 -0.00000000000E+00 -0.00000000000E+00 -0.74505805969E-08  0.93827000000E+00  0.93827000000E+00 0.  1.
     999902    2    1    2    0    0 -0.68233039833E-02  0.16355828263E-01  0.14622269761E-01  0.10209543309E+01  0.10206957747E+01 0.  0.
     999903    2    3    3    0    0 -0.15355487931E-01  0.57983765258E-01  0.11864335815E+00  0.13380943290E+00  0.15192427656E-01 0.  0.
         14    1    1    2    0    0  0.68233039833E-02 -0.16355828263E-01 -0.14622269761E-01  0.22975669052E-01  0.00000000000E+00 0. -1.
     999901    1    3    3    0    0  0.85321839477E-02 -0.41627936995E-01 -0.10402108839E+00  0.88714489805E+00  0.88000000000E+00 0.  1.
        -11    1    4    4    0    0  0.62459083214E-03  0.21333852949E-01  0.50037201896E-01  0.54401342722E-01  0.51100000000E-03 0. -1.
         11    1    4    4    0    0 -0.15980078763E-01  0.36649912309E-01  0.68606156250E-01  0.79408090179E-01  0.51100000000E-03 0.  1.
</event>
<event>
 8    1  0.1081309E+005  0.1043930E+01  0.7957747E-01            NaN
         13   -1    0    0    0    0  0.00000000000E+00  0.00000000000E+00  0.74505805969E-08  0.10566000000E+00  0.10566000000E+00 0.  1.
     999900   -1    0    0    0    0 -0.00000000000E+00 -0.00000000000E+00 -0.74505805969E-08  0.93827000000E+00  0.93827000000E+00 0.  1.
     999902    2    1    2    0    0 -0.92658137055E-02 -0.98206317279E-02 -0.18447705225E-01  0.10210691614E+01  0.10208132124E+01 0.  0.
     999903    2    3    3    0    0 -0.95921369767E-01  0.13355955912E-01 -0.89851822219E-01  0.13363190308E+00  0.20120756186E-01 0.  0.
         14    1    1    2    0    0  0.92658137055E-02  0.98206317279E-02  0.18447705225E-01  0.22860838551E-01  0.00000000000E+00 0.  1.
     999901    1    3    3    0    0  0.86655556062E-01 -0.23176587640E-01  0.71404116994E-01  0.88743725837E+00  0.88000000000E+00 0. -1.
        -11    1    4    4    0    0 -0.15842362375E-01  0.56132023663E-02 -0.25794154132E-01  0.30791037573E-01  0.51100000000E-03 0. -1.
         11    1    4    4    0    0 -0.80079007392E-01  0.77427535460E-02 -0.64057668087E-01  0.10284086551E+00  0.51100000000E-03 0.  1.
</event>
<event>
 8    1  0.1081309E+005  0.1043930E+01  0.7957747E-01            NaN
         13   -1    0    0    0    0  0.00000000000E+00  0.00000000000E+00  0.74505805969E-08  0.10566000000E+00  0.10566000000E+00 0. -1.
     999900   -1    0    0    0    0 -0.00000000000E+00 -0.00000000000E+00 -0.74505805969E-08  0.93827000000E+00  0.93827000000E+00 0.  1.
     999902    2    1    2    0    0 -0.15143993202E-01  0.15439535632E-01  0.12743065211E-01  0.10188280976E+01  0.10185188202E+01 0.  0.
     999903    2    3    3    0    0 -0.63843006360E-01  0.55108466448E-01 -0.96911110771E-01  0.12980095731E+00  0.18537869124E-01 0.  0.
         14    1    1    2    0    0  0.15143993202E-01 -0.15439535632E-01 -0.12743065211E-01  0.25101902350E-01  0.00000000000E+00 0.  1.
     999901    1    3    3    0    0  0.48699013158E-01 -0.39668930816E-01  0.10965417598E+00  0.88902714034E+00  0.88000000000E+00 0.  1.
        -11    1    4    4    0    0 -0.27268246176E-01  0.15580449585E-01 -0.45925292215E-01  0.55639026275E-01  0.51100000000E-03 0.  1.
         11    1    4    4    0    0 -0.36574760184E-01  0.39528016862E-01 -0.50985818556E-01  0.74161931032E-01  0.51100000000E-03 0. -1.
</event>
<event>
 8    1  0.1081309E+005  0.1043930E+01  0.7957747E-01            NaN
         13   -1    0    0    0    0  0.00000000000E+00  0.00000000000E+00  0.74505805969E-08  0.10566000000E+00  0.10566000000E+00 0. -1.
     999900   -1    0    0    0    0 -0.00000000000E+00 -0.00000000000E+00 -0.74505805969E-08  0.93827000000E+00  0.93827000000E+00 0.  1.
     999902    2    1    2    0    0 -0.20990756955E-01 -0.94732532686E-02 -0.41976344445E-04  0.10209005370E+01  0.10206407547E+01 0.  0.
     999903    2    3    3    0    0  0.63398835049E-01 -0.98514998980E-01  0.54261492501E-01  0.13073263009E+00  0.20544918921E-01 0.  0.
         14    1    1    2    0    0  0.20990756955E-01  0.94732532686E-02  0.41976344445E-04  0.23029463021E-01  0.00000000000E+00 0. -1.
     999901    1    3    3    0    0 -0.84389592004E-01  0.89041745711E-01 -0.54303468845E-01  0.89016790688E+00  0.88000000000E+00 0.  1.
        -11    1    4    4    0    0  0.35450033482E-01 -0.68281045646E-01  0.27892926843E-01  0.81836926612E-01  0.51100000000E-03 0. -1.
         11    1    4    4    0    0  0.27948801567E-01 -0.30233953334E-01  0.26368565658E-01  0.48895703483E-01  0.51100000000E-03 0.  1.
</event>
<event>
 8    1  0.1081309E+005  0.1043930E+01  0.7957747E-01            NaN
         13   -1    0    0    0    0  0.00000000000E+00  0.00000000000E+00  0.74505805969E-08  0.10566000000E+00  0.10566000000E+00 0.  1.
     999900   -1    0    0    0    0 -0.00000000000E+00 -0.00000000000E+00 -0.74505805969E-08  0.93827000000E+00  0.93827000000E+00 0. -1.
     999902    2    1    2    0    0 -0.23897158286E-01  0.12432433590E-01  0.50870734638E-02  0.10165161733E+01  0.10161464524E+01 0.  0.
     999903    2    3    3    0    0  0.40739180463E-01  0.10893143901E+00  0.49854368764E-01  0.12775634911E+00  0.17620653294E-01 0.  0.
         14    1    1    2    0    0  0.23897158286E-01 -0.12432433590E-01 -0.50870734638E-02  0.27413826722E-01  0.00000000000E+00 0. -1.
     999901    1    3    3    0    0 -0.64636338749E-01 -0.96499005419E-01 -0.44767295300E-01  0.88875982417E+00  0.88000000000E+00 0. -1.
        -11    1    4    4    0    0  0.19176649118E-01  0.31509062773E-01  0.20430012298E-01  0.42168844325E-01  0.51100000000E-03 0.  1.
         11    1    4    4    0    0  0.21562531345E-01  0.77422376237E-01  0.29424356466E-01  0.85587504781E-01  0.51100000000E-03 0. -1.
</event>
<event>
 8    1  0.1081309E+005  0.1043930E+01  0.7957747E-01            NaN
         13   -1    0    0    0    0  0.00000000000E+00  0.00000000000E+00  0.74505805969E-08  0.10566000000E+00  0.10566000000E+00 0.  1.
     999900   -1    0    0    0    0 -0.00000000000E+00 -0.00000000000E+00 -0.74505805969E-08  0.93827000000E+00  0.93827000000E+00 0. -1.
     999902    2    1    2    0    0 -0.13452883718E-01  0.12978929160E-01  0.15885927335E-01  0.10193984821E+01  0.10191032676E+01 0.  0.
     999903    2    3    3    0    0 -0.10958569319E+00 -0.58119837791E-01 -0.32862220067E-01  0.12997567288E+00  0.20659388557E-01 0.  0.
         14    1    1    2    0    0  0.13452883718E-01 -0.12978929160E-01 -0.15885927335E-01  0.24531517885E-01  0.00000000000E+00 0.  1.
     999901    1    3    3    0    0  0.96132809469E-01  0.71098766951E-01  0.48748147403E-01  0.88942280924E+00  0.88000000000E+00 0.  1.
        -11    1    4    4    0    0 -0.34984365610E-01 -0.80522567213E-02 -0.89404526743E-02  0.36999155267E-01  0.51100000000E-03 0. -1.
         11    1    4    4    0    0 -0.74601327577E-01 -0.50067581070E-01 -0.23921767393E-01  0.92976517609E-01  0.51100000000E-03 0.  1.
</event>
<event>
 8    1  0.1081309E+005  0.1043930E+01  0.7957747E-01            NaN
         13   -1    0    0    0    0  0.00000000000E+00  0.00000000000E+00  0.74505805969E-08  0.10566000000E+00  0.10566000000E+00 0. -1.
     999900   -1    0    0    0    0 -0.00000000000E+00 -0.00000000000E+00 -0.74505805969E-08  0.93827000000E+00  0.93827000000E+00 0. -1.
     999902    2    1    2    0    0  0.18289232450E-01  0.10594424123E-01 -0.10798791872E-01  0.10201949678E+01  0.10199188304E+01 0.  0.
     999903    2    3    3    0    0  0.20349802627E-01 -0.41696777875E-01  0.11882525493E+00  0.12916129323E+00  0.20259879261E-01 0.  0.
         14    1    1    2    0    0 -0.18289232450E-01 -0.10594424123E-01  0.10798791872E-01  0.23735032168E-01  0.00000000000E+00 0. -1.
     999901    1    3    3    0    0 -0.20605701769E-02  0.52291201998E-01 -0.12962404681E+00  0.89103367460E+00  0.88000000000E+00 0. -1.
        -11    1    4    4    0    0  0.22267472032E-01 -0.25260293886E-01  0.71776150541E-01  0.79284296461E-01  0.51100000000E-03 0.  1.
         11    1    4    4    0    0 -0.19176694052E-02 -0.16436483989E-01  0.47049104394E-01  0.49876996774E-01  0.51100000000E-03 0. -1.
</event>
<event>
 8    1  0.1081309E+005  0.1043930E+01  0.7957747E-01            NaN
         13   -1    0    0    0    0  0.00000000000E+00  0.00000000000E+00  0.74505805969E-08  0.10566000000E+00  0.10566000000E+00 0.  1.
     999900   -1    0    0    0    0 -0.00000000000E+00 -0.00000000000E+00 -0.74505805969E-08  0.93827000000E+00  0.93827000000E+00 0.  1.
     999902    2    1    2    0    0  0.56620455888E-02  0.22503013029E-01  0.75291802322E-03  0.10207133844E+01  0.10204493137E+01 0.  0.
     999903    2    3    3    0    0 -0.12024580925E-01  0.10742812731E+00  0.75591103629E-01  0.13328685456E+00  0.19130540156E-01 0.  0.
         14    1    1    2    0    0 -0.56620455888E-02 -0.22503013029E-01 -0.75291802322E-03  0.23216615627E-01  0.00000000000E+00 0.  1.
     999901    1    3    3    0    0  0.17686626514E-01 -0.84925114281E-01 -0.74838185605E-01  0.88742652981E+00  0.88000000000E+00 0. -1.
        -11    1    4    4    0    0 -0.50212948852E-02  0.27032894999E-01  0.98955075845E-02  0.29226238309E-01  0.51100000000E-03 0.  1.
         11    1    4    4    0    0 -0.70032860400E-02  0.80395232311E-01  0.65695596044E-01  0.10406061625E+00  0.51100000000E-03 0. -1.
</event>
<event>
 8    1  0.1081309E+005  0.1043930E+01  0.7957747E-01            NaN
         13   -1    0    0    0    0  0.00000000000E+00  0.00000000000E+00  0.74505805969E-08  0.10566000000E+00  0.10566000000E+00 0.  1.
     999900   -1    0    0    0    0 -0.00000000000E+00 -0.00000000000E+00 -0.74505805969E-08  0.93827000000E+00  0.93827000000E+00 0. -1.
     999902    2    1    2    0    0 -0.47005544029E-02  0.19711604184E-01 -0.12862201787E-01  0.10199283587E+01  0.10196459082E+01 0.  0.
     999903    2    3    3    0    0  0.11075029427E+00  0.65957549364E-01  0.10434894248E-01  0.13087811230E+00  0.20103911642E-01 0.  0.
         14    1    1    2    0    0  0.47005544029E-02 -0.19711604184E-01  0.12862201787E-01  0.24001641319E-01  0.00000000000E+00 0.  1.
     999901    1    3    3    0    0 -0.11545084867E+00 -0.46245945180E-01 -0.23297096034E-01  0.88905024638E+00  0.88000000000E+00 0. -1.
        -11    1    4    4    0    0  0.35312812490E-01  0.32277624496E-01  0.40560254957E-02  0.48016166370E-01  0.51100000000E-03 0. -1.
         11    1    4    4    0    0  0.75437481777E-01  0.33679924868E-01  0.63788687521E-02  0.82861945932E-01  0.51100000000E-03 0.  1.
</event>
<event>
 8    1  0.1081309E+005  0.1043930E+01  0.7957747E-01            NaN
         13   -1    0    0    0    0  0.00000000000E+00  0.00000000000E+00  0.74505805969E-08  0.10566000000E+00  0.10566000000E+00 0. -1.
     999900   -1    0    0    0    0 -0.00000000000E+00 -0.00000000000E+00 -0.74505805969E-08  0.93827000000E+00  0.93827000000E+00 0.  1.
     999902    2    1    2    0    0 -0.90422206316E-02 -0.87764172329E-02  0.20876146785E-01  0.10195455632E+01  0.10192539206E+01 0.  0.
     999903    2    3    3    0    0  0.56898362624E-01  0.10370054122E+00 -0.43694824743E-01  0.12759901936E+00  0.19520402528E-01 0.  0.
         14    1    1    2    0    0  0.90422206316E-02  0.87764172329E-02 -0.20876146785E-01  0.24384436799E-01  0.00000000000E+00 0.  1.
     999901    1    3    3    0    0 -0.65940583255E-01 -0.11247695845E+00  0.64570971528E-01  0.89194654384E+00  0.88000000000E+00 0. -1.
        -11    1    4    4    0    0  0.42032255491E-01  0.89106316293E-01 -0.40472576157E-01  0.10651261262E+00  0.51100000000E-03 0. -1.
         11    1    4    4    0    0  0.14866107133E-01  0.14594224924E-01 -0.32222485863E-02  0.21086406744E-01  0.51100000000E-03 0.  1.
</event>
<event>
 8    1  0.1081309E+005  0.1043930E+01  0.7957747E-01            NaN
         13   -1    0    0    0    0  0.00000000000E+00  0.00000000000E+00  0.74505805969E-08  0.10566000000E+00  0.10566000000E+00 0. -1.
     999900   -1    0    0    0    0 -0.00000000000E+00 -0.00000000000E+00 -0.74505805969E-08  0.93827000000E+00  0.93827000000E+00 0. -1.
     999902    2    1    2    0    0 -0.14363306410E-01  0.39985034425E-02 -0.18868259737E-01  0.10198820515E+01  0.10195984970E+01 0.  0.
     999903    2    3    3    0    0 -0.12804811091E+00 -0.31669628500E-02  0.21846119462E-01  0.13160662162E+00  0.20897405540E-01 0.  0.
         14    1    1    2    0    0  0.14363306410E-01 -0.39985034425E-02  0.18868259737E-01  0.24047948485E-01  0.00000000000E+00 0. -1.
     999901    1    3    3    0    0  0.11368480450E+00  0.71654662925E-02 -0.40714379199E-01  0.88827542989E+00  0.88000000000E+00 0. -1.
        -11    1    4    4    0    0 -0.64396462191E-01  0.38779626898E-02  0.19490633355E-02  0.64544580766E-01  0.51100000000E-03 0.  1.
         11    1    4    4    0    0 -0.63651648716E-01 -0.70449255398E-02  0.19897056126E-01  0.67062040855E-01  0.51100000000E-03 0. -1.
</event>
<event>
 8    1  0.1081309E+005  0.1043930E+01  0.7957747E-01            NaN
         13   -1    0    0    0    0  0.00000000000E+00  0.00000000000E+00  0.74505805969E-08  0.10566000000E+00  0.10566000000E+00 0.  1.
     999900   -1    0    0    0    0 -0.00000000000E+00 -0.00000000000E+00 -0.74505805969E-08  0.93827000000E+00  0.93827000000E+00 0. -1.
     999902    2    1    2    0    0  0.95490900789E-02 -0.16143331990E-01 -0.14555764648E-01  0.10201884210E+01  0.10199121294E+01 0.  0.
     999903    2    3    3    0    0 -0.25441044866E-01 -0.94525574909E-01  0.83891994574E-01  0.13054801789E+00  0.20556924505E-01 0.  0.
         14    1    1    2    0    0 -0.95490900789E-02  0.16143331990E-01  0.14555764648E-01  0.23741579003E-01  0.00000000000E+00 0.  1.
     999901    1    3    3    0    0  0.34990134945E-01  0.78382242919E-01 -0.98447759222E-01  0.88964040311E+00  0.88000000000E+00 0. -1.
        -11    1    4    4    0    0 -0.15531809252E-01 -0.73064766079E-01  0.52746535104E-01  0.91444820670E-01  0.51100000000E-03 0.  1.
         11    1    4    4    0    0 -0.99092356145E-02 -0.21460808829E-01  0.31145459470E-01  0.39103197218E-01  0.51100000000E-03 0. -1.
</event>
<event>
 8    1  0.1081309E+005  0.1043930E+01  0.7957747E-01            NaN
         13   -1    0    0    0    0  0.00000000000E+00  0.00000000000E+00  0.74505805969E-08  0.10566000000E+00  0.10566000000E+00 0.  1.
     999900   -1    0    0    0    0 -0.00000000000E+00 -0.00000000000E+00 -0.74505805969E-08  0.93827000000E+00  0.93827000000E+00 0.  1.
     999902    2    1    2    0    0  0.13325505653E-03 -0.23678247721E-01  0.27464546696E-03  0.10202497846E+01  0.10199749361E+01 0.  0.
     999903    2    3    3    0    0  0.50630042225E-01  0.61098822602E-01 -0.99839955895E-01  0.12909322675E+00  0.20014422301E-01 0.  0.
         14    1    1    2    0    0 -0.13325505653E-03  0.23678247721E-01 -0.27464546696E-03  0.23680215417E-01  0.00000000000E+00 0.  1.
     999901    1    3    3    0    0 -0.50496787168E-01 -0.84777070323E-01  0.10011460136E+00  0.89115655784E+00  0.88000000000E+00 0. -1.
        -11    1    4    4    0    0  0.33008638381E-01  0.47786723328E-01 -0.59797250468E-01  0.83361342472E-01  0.51100000000E-03 0. -1.
         11    1    4    4    0    0  0.17621403844E-01  0.13312099273E-01 -0.40042705427E-01  0.45731884276E-01  0.51100000000E-03 0.  1.
</event>
<event>
 8    1  0.1081309E+005  0.1043930E+01  0.7957747E-01            NaN
         13   -1    0    0    0    0  0.00000000000E+00  0.00000000000E+00  0.74505805969E-08  0.10566000000E+00  0.10566000000E+00 0.  1.
     999900   -1    0    0    0    0 -0.00000000000E+00 -0.00000000000E+00 -0.74505805969E-08  0.93827000000E+00  0.93827000000E+00 0.  1.
     999902    2    1    2    0    0 -0.34060210181E-02  0.11761533088E-01 -0.20226004660E-01  0.10202862714E+01  0.10200122791E+01 0.  0.
     999903    2    3    3    0    0  0.14260922762E-01  0.11681611387E+00  0.53558237663E-01  0.13079613636E+00  0.19742494441E-01 0.  0.
         14    1    1    2    0    0  0.34060210181E-02 -0.11761533088E-01  0.20226004660E-01  0.23643728645E-01  0.00000000000E+00 0.  1.
     999901    1    3    3    0    0 -0.17666943781E-01 -0.10505458078E+00 -0.73784242323E-01  0.88949013500E+00  0.88000000000E+00 0.  1.
        -11    1    4    4    0    0 -0.32267441517E-02  0.19132273180E-01  0.14150323740E-01  0.24019753075E-01  0.51100000000E-03 0.  1.
         11    1    4    4    0    0  0.17487666914E-01  0.97683840688E-01  0.39407913923E-01  0.10677638328E+00  0.51100000000E-03 0. -1.
</event>
<event>
 8    1  0.1081309E+005  0.1043930E+01  0.7957747E-01            NaN
         13   -1    0    0    0    0  0.00000000000E+00  0.00000000000E+00  0.74505805969E-08  0.10566000000E+00  0.10566000000E+00 0. -1.
     999900   -1    0    0    0    0 -0.00000000000E+00 -0.00000000000E+00 -0.74505805969E-08  0.93827000000E+00  0.93827000000E+00 0. -1.
     999902    2    1    2    0    0 -0.12254629499E-01 -0.17853118528E-01  0.84032411562E-02  0.10207023387E+01  0.10204380138E+01 0.  0.
     999903    2    3    3    0    0 -0.45353984579E-01  0.11920824886E+00  0.84290822251E-02  0.12947768334E+00  0.20635661921E-01 0.  0.
         14    1    1    2    0    0  0.12254629499E-01  0.17853118528E-01 -0.84032411562E-02  0.23227661253E-01  0.00000000000E+00 0.  1.
     999901    1    3    3    0    0  0.33099355080E-01 -0.13706136739E+00 -0.25841068945E-04  0.89122465541E+00  0.88000000000E+00 0.  1.
        -11    1    4    4    0    0  0.22293624911E-03  0.19987991747E-01  0.51211008596E-03  0.20002322175E-01  0.51100000000E-03 0.  1.
         11    1    4    4    0    0 -0.45576920828E-01  0.99220257112E-01  0.79169721392E-02  0.10947536117E+00  0.51100000000E-03 0. -1.
</event>
<event>
 8    1  0.1081309E+005  0.1043930E+01  0.7957747E-01            NaN
         13   -1    0    0    0    0  0.00000000000E+00  0.00000000000E+00  0.74505805969E-08  0.10566000000E+00  0.10566000000E+00 0. -1.
     999900   -1    0    0    0    0 -0.00000000000E+00 -0.00000000000E+00 -0.74505805969E-08  0.93827000000E+00  0.93827000000E+00 0. -1.
     999902    2    1    2    0    0  0.10197202687E-01  0.51304434803E-02  0.23099859608E-01  0.10181635896E+01  0.10178375053E+01 0.  0.
     999903    2    3    3    0    0 -0.10866128697E+00  0.10043734130E-01  0.63437044392E-01  0.12924370033E+00  0.27776313540E-01 0.  0.
         14    1    1    2    0    0 -0.10197202687E-01 -0.51304434803E-02 -0.23099859608E-01  0.25766410437E-01  0.00000000000E+00 0.  1.
     999901    1    3    3    0    0  0.11885848966E+00 -0.49132906493E-02 -0.40337184785E-01  0.88891988923E+00  0.88000000000E+00 0.  1.
        -11    1    4    4    0    0 -0.45293364452E-01  0.17109721546E-01  0.32946258925E-01  0.58565762463E-01  0.51100000000E-03 0.  1.
         11    1    4    4    0    0 -0.63367922518E-01 -0.70659874160E-02  0.30490785467E-01  0.70677937872E-01  0.51100000000E-03 0. -1.
</event>
<event>
 8    1  0.1081309E+005  0.1043930E+01  0.7957747E-01            NaN
         13   -1    0    0    0    0  0.00000000000E+00  0.00000000000E+00  0.74505805969E-08  0.10566000000E+00  0.10566000000E+00 0.  1.
     999900   -1    0    0    0    0 -0.00000000000E+00 -0.00000000000E+00 -0.74505805969E-08  0.93827000000E+00  0.93827000000E+00 0.  1.
     999902    2    1    2    0    0 -0.12253684243E-01 -0.22367682400E-01  0.24342512226E-02  0.10183098600E+01  0.10179875144E+01 0.  0.
     999903    2    3    3    0    0 -0.37485579770E-01  0.11267572640E+00 -0.38996201360E-01  0.12668782507E+00  0.20690898738E-01 0.  0.
         14    1    1    2    0    0  0.12253684243E-01  0.22367682400E-01 -0.24342512226E-02  0.25620139977E-01  0.00000000000E+00 0.  1.
     999901    1    3    3    0    0  0.25231895527E-01 -0.13504340880E+00  0.41430452583E-01  0.89162203495E+00  0.88000000000E+00 0.  1.
        -11    1    4    4    0    0 -0.15590211394E-01  0.63589025346E-01 -0.30648195760E-01  0.72292405273E-01  0.51100000000E-03 0.  1.
         11    1    4    4    0    0 -0.21895368376E-01  0.49086701051E-01 -0.83480055999E-02  0.54395419797E-01  0.51100000000E-03 0. -1.
</event>
<event>
 8    1  0.1081309E+005  0.1043930E+01  0.7957747E-01            NaN
         13   -1    0    0    0    0  0.00000000000E+00  0.00000000000E+00  0.74505805969E-08  0.10566000000E+00  0.10566000000E+00 0.  1.
     999900   -1    0    0    0    0 -0.00000000000E+00 -0.00000000000E+00 -0.74505805969E-08  0.93827000000E+00  0.93827000000E+00 0. -1.
     999902    2    1    2    0    0  0.12581212122E-01 -0.17834536227E-01  0.84781877363E-02  0.10205155334E+01  0.10202468900E+01 0.  0.
     999903    2    3    3    0    0  0.11500128057E+00 -0.46020511647E-01 -0.42859642956E-01  0.13264172898E+00  0.20339548878E-01 0.  0.
         14    1    1    2    0    0 -0.12581212122E-01  0.17834536227E-01 -0.84781877363E-02  0.23414466643E-01  0.00000000000E+00 0. -1.
     999901    1    3    3    0    0 -0.10242006845E+00  0.28185975420E-01  0.51337830693E-01  0.88787380437E+00  0.88000000000E+00 0. -1.
        -11    1    4    4    0    0  0.12055136812E-01  0.10930662902E-02 -0.63873206751E-02  0.13695988605E-01  0.51100000000E-03 0.  1.
         11    1    4    4    0    0  0.10294614376E+00 -0.47113577937E-01 -0.36472322281E-01  0.11894574038E+00  0.51100000000E-03 0. -1.
</event>
<event>
 8    1  0.1081309E+005  0.1043930E+01  0.7957747E-01            NaN
         13   -1    0    0    0    0  0.00000000000E+00  0.00000000000E+00  0.74505805969E-08  0.10566000000E+00  0.10566000000E+00 0.  1.
     999900   -1    0    0    0    0 -0.00000000000E+00 -0.00000000000E+00 -0.74505805969E-08  0.93827000000E+00  0.93827000000E+00 0.  1.
     999902    2    1    2    0    0 -0.74993388038E-03  0.21300238853E-01 -0.93079996102E-02  0.10206727123E+01  0.10204077049E+01 0.  0.
     999903    2    3    3    0    0  0.11425781138E+00 -0.56625539082E-01  0.10285098587E-01  0.12955930880E+00  0.20458057236E-01 0.  0.
         14    1    1    2    0    0  0.74993388038E-03 -0.21300238853E-01  0.93079996102E-02  0.23257287734E-01  0.00000000000E+00 0. -1.
     999901    1    3    3    0    0 -0.11500774526E+00  0.77925777935E-01 -0.19593098198E-01  0.89111340346E+00  0.88000000000E+00 0. -1.
        -11    1    4    4    0    0  0.23634496143E-01 -0.12075306794E-01  0.10579058401E-01  0.28575864637E-01  0.51100000000E-03 0.  1.
         11    1    4    4    0    0  0.90623315239E-01 -0.44550232288E-01 -0.29395981339E-03  0.10098344416E+00  0.51100000000E-03 0. -1.
</event>
<event>
 8    1  0.1081309E+005  0.1043930E+01  0.7957747E-01            NaN
         13   -1    0    0    0    0  0.00000000000E+00  0.00000000000E+00  0.74505805969E-08  0.10566000000E+00  0.10566000000E+00 0.  1.
     999900   -1    0    0    0    0 -0.00000000000E+00 -0.00000000000E+00 -0.74505805969E-08  0.93827000000E+00  0.93827000000E+00 0. -1.
     999902    2    1    2    0    0 -0.97587292966E-02  0.23425627897E-01  0.22242353035E-02  0.10184556980E+01  0.10181370579E+01 0.  0.
     999903    2    3    3    0    0  0.77104066330E-01 -0.36373963887E-01 -0.91993973945E-01  0.12716550541E+00  0.20977898644E-01 0.  0.
         14    1    1    2    0    0  0.97587292966E-02 -0.23425627897E-01 -0.22242353035E-02  0.25474302003E-01  0.00000000000E+00 0. -1.
     999901    1    3    3    0    0 -0.86862795627E-01  0.59799591784E-01  0.94218209248E-01  0.89129019258E+00  0.88000000000E+00 0.  1.
        -11    1    4    4    0    0  0.21042154017E-01 -0.18228126268E-01 -0.20844997798E-01  0.34782350224E-01  0.51100000000E-03 0. -1.
         11    1    4    4    0    0  0.56061912313E-01 -0.18145837620E-01 -0.71148976147E-01  0.92383155190E-01  0.51100000000E-03 0.  1.
</event>
<event>
 8    1  0.1081309E+005  0.1043930E+01  0.7957747E-01            NaN
         13   -1    0    0    0    0  0.00000000000E+00  0.00000000000E+00  0.74505805969E-08  0.10566000000E+00  0.10566000000E+00 0. -1.
     999900   -1    0    0    0    0 -0.00000000000E+00 -0.00000000000E+00 -0.74505805969E-08  0.93827000000E+00  0.93827000000E+00 0. -1.
     999902    2    1    2    0    0 -0.75280293538E-02  0.14569767076E-01 -0.17025443070E-01  0.10202907308E+01  0.10200168431E+01 0.  0.
     999903    2    3    3    0    0  0.97272096757E-01  0.43107629450E-01 -0.74510064905E-01  0.13175150384E+00  0.22058569040E-01 0.  0.
         14    1    1    2    0    0  0.75280293538E-02 -0.14569767076E-01  0.17025443070E-01  0.23639269242E-01  0.00000000000E+00 0. -1.
     999901    1    3    3    0    0 -0.10480012611E+00 -0.28537862374E-01  0.57484621835E-01  0.88853922692E+00  0.88000000000E+00 0. -1.
        -11    1    4    4    0    0  0.50157950662E-01  0.12710650556E-01 -0.27607204855E-01  0.58649804204E-01  0.51100000000E-03 0. -1.
         11    1    4    4    0    0  0.47114146094E-01  0.30396978894E-01 -0.46902860049E-01  0.73101699637E-01  0.51100000000E-03 0.  1.
</event>
<event>
 8    1  0.1081309E+005  0.1043930E+01  0.7957747E-01            NaN
         13   -1    0    0    0    0  0.00000000000E+00  0.00000000000E+00  0.74505805969E-08  0.10566000000E+00  0.10566000000E+00 0. -1.
     999900   -1    0    0    0    0 -0.00000000000E+00 -0.00000000000E+00 -0.74505805969E-08  0.93827000000E+00  0.93827000000E+00 0. -1.
     999902    2    1    2    0    0  0.93383238484E-02 -0.43035403104E-02  0.18454172581E-01  0.10228046305E+01  0.10225864418E+01 0.  0.
     999903    2    3    3    0    0 -0.21707114188E-01 -0.12890371857E+00 -0.14144655040E-01  0.13288794494E+00  0.19281264959E-01 0.  0.
         14    1    1    2    0    0 -0.93383238484E-02  0.43035403104E-02 -0.18454172581E-01  0.21125369515E-01  0.00000000000E+00 0.  1.
     999901    1    3    3    0    0  0.31045438036E-01  0.12460017826E+00  0.32598827622E-01  0.88991668554E+00  0.88000000000E+00 0.  1.
        -11    1    4    4    0    0 -0.16058481379E-01 -0.80006482628E-01  0.24019075349E-03  0.81604110799E-01  0.51100000000E-03 0.  1.
         11    1    4    4    0    0 -0.56486328092E-02 -0.48897235937E-01 -0.14384845794E-01  0.51283834143E-01  0.51100000000E-03 0. -1.
</event>
<event>
 8    1  0.1081309E+005  0.1043930E+01  0.7957747E-01            NaN
         13   -1    0    0    0    0  0.00000000000E+00  0.00000000000E+00  0.74505805969E-08  0.10566000000E+00  0.10566000000E+00 0. -1.
     999900   -1    0    0    0    0 -0.00000000000E+00 -0.00000000000E+00 -0.74505805969E-08  0.93827000000E+00  0.93827000000E+00 0. -1.
     999902    2    1    2    0    0 -0.31634041507E-02  0.80885214162E-02  0.21684364889E-01  0.10205709978E+01  0.10203036403E+01 0.  0.
     999903    2    3    3    0    0  0.78416894124E-01 -0.32246698350E-01 -0.94259287043E-01  0.12831251199E+00  0.19754207180E-01 0.  0.
         14    1    1    2    0    0  0.31634041507E-02 -0.80885214162E-02 -0.21684364889E-01  0.23359002230E-01  0.00000000000E+00 0.  1.
     999901    1    3    3    0    0 -0.81580298275E-01  0.40335219767E-01  0.11594365193E+00  0.89225848578E+00  0.88000000000E+00 0.  1.
        -11    1    4    4    0    0  0.13622643267E-01 -0.90799848745E-02 -0.88046656034E-02  0.18595854170E-01  0.51100000000E-03 0.  1.
         11    1    4    4    0    0  0.64794250857E-01 -0.23166713476E-01 -0.85454621439E-01  0.10971665782E+00  0.51100000000E-03 0. -1.
</event>
<event>
 8    1  0.1081309E+005  0.1043930E+01  0.7957747E-01            NaN
         13   -1    0    0    0    0  0.00000000000E+00  0.00000000000E+00  0.74505805969E-08  0.10566000000E+00  0.10566000000E+00 0. -1.
     999900   -1    0    0    0    0 -0.00000000000E+00 -0.00000000000E+00 -0.74505805969E-08  0.93827000000E+00  0.93827000000E+00 0.  1.
     999902    2    1    2    0    0  0.21184576721E-01 -0.58885008334E-02 -0.62278879367E-02  0.10210772688E+01  0.10208215033E+01 0.  0.
     999903    2    3    3    0    0  0.14634593738E-01 -0.12225651843E+00 -0.44800202095E-01  0.13255476423E+00  0.20071865351E-01 0.  0.
         14    1    1    2    0    0 -0.21184576721E-01  0.58885008334E-02  0.62278879367E-02  0.22852731151E-01  0.00000000000E+00 0. -1.
     999901    1    3    3    0    0  0.65499829829E-02  0.11636801760E+00  0.38572314158E-01  0.88852250462E+00  0.88000000000E+00 0. -1.
        -11    1    4    4    0    0 -0.32136745109E-02 -0.49552902370E-01 -0.13936096736E-01  0.51578035542E-01  0.51100000000E-03 0.  1.
         11    1    4    4    0    0  0.17848268249E-01 -0.72703616064E-01 -0.30864105359E-01  0.80976728687E-01  0.51100000000E-03 0. -1.
</event>
<event>
 8    1  0.1081309E+005  0.1043930E+01  0.7957747E-01            NaN
         13   -1    0    0    0    0  0.00000000000E+00  0.00000000000E+00  0.74505805969E-08  0.10566000000E+00  0.10566000000E+00 0. -1.
     999900   -1    0    0    0    0 -0.00000000000E+00 -0.00000000000E+00 -0.74505805969E-08  0.93827000000E+00  0.93827000000E+00 0. -1.
     999902    2    1    2    0    0 -0.16198660560E-01 -0.88289804058E-02  0.11777921488E-01  0.10220424023E+01  0.10218080080E+01 0.  0.
     999903    2    3    3    0    0  0.57228599757E-01 -0.48728644124E-01 -0.10427013290E+00  0.13049840638E+00  0.22538413067E-01 0.  0.
         14    1    1    2    0    0  0.16198660560E-01  0.88289804058E-02 -0.11777921488E-01  0.21887597710E-01  0.00000000000E+00 0.  1.
     999901    1    3    3    0    0 -0.73427260317E-01  0.39899663718E-01  0.11604805439E+00  0.89154399591E+00  0.88000000000E+00 0.  1.
        -11    1    4    4    0    0  0.27908213800E-02 -0.32442479064E-02 -0.19453705812E-01  0.19925401358E-01  0.51100000000E-03 0.  1.
         11    1    4    4    0    0  0.54437778377E-01 -0.45484396217E-01 -0.84816427087E-01  0.11057300502E+00  0.51100000000E-03 0. -1.
</event>
<event>
 8    1  0.1081309E+005  0.1043930E+01  0.7957747E-01            NaN
         13   -1    0    0    0    0  0.00000000000E+00  0.00000000000E+00  0.74505805969E-08  0.10566000000E+00  0.10566000000E+00 0. -1.
     999900   -1    0    0    0    0 -0.00000000000E+00 -0.00000000000E+00 -0.74505805969E-08  0.93827000000E+00  0.93827000000E+00 0. -1.
     999902    2    1    2    0    0 -0.57954408715E-02 -0.17175228604E-01  0.18030819408E-01  0.10183627150E+01  0.10180417149E+01 0.  0.
     999903    2    3    3    0    0 -0.23599339018E-01 -0.31247471740E-01  0.12425253935E+00  0.13168461075E+00  0.19204423472E-01 0.  0.
         14    1    1    2    0    0  0.57954408715E-02  0.17175228604E-01 -0.18030819408E-01  0.25567284975E-01  0.00000000000E+00 0.  1.
     999901    1    3    3    0    0  0.17803898146E-01  0.14072243136E-01 -0.10622171994E+00  0.88667810428E+00  0.88000000000E+00 0. -1.
        -11    1    4    4    0    0 -0.23274470028E-02  0.20347509646E-02  0.19130939977E-01  0.19385850677E-01  0.51100000000E-03 0.  1.
         11    1    4    4    0    0 -0.21271892015E-01 -0.33282222704E-01  0.10512159937E+00  0.11229876007E+00  0.51100000000E-03 0. -1.
</event>
<event>
 8    1  0.1081309E+005  0.1043930E+01  0.7957747E-01            NaN
         13   -1    0    0    0    0  0.00000000000E+00  0.00000000000E+00  0.74505805969E-08  0.10566000000E+00  0.10566000000E+00 0.  1.
     999900   -1    0    0    0    0 -0.00000000000E+00 -0.00000000000E+00 -0.74505805969E-08  0.93827000000E+00  0.93827000000E+00 0. -1.
     999902    2    1    2    0    0 -0.30002309287E-02  0.17930129816E-01 -0.58192962322E-02  0.10248419108E+01  0.10246641337E+01 0.  0.
     999903    2    3    3    0    0  0.89275888134E-02 -0.78693895923E-01  0.10445183263E+00  0.13263218372E+00  0.20215828440E-01 0.  0.
         14    1    1    2    0    0  0.30002309287E-02 -0.17930129816E-01  0.58192962322E-02  0.19088089205E-01  0.00000000000E+00 0. -1.
     999901    1    3    3    0    0 -0.11927819742E-01  0.96624025739E-01 -0.11027112886E+00  0.89220972708E+00  0.88000000000E+00 0. -1.
        -11    1    4    4    0    0  0.61838065844E-02 -0.16273236596E-01  0.35748287652E-01  0.39765046011E-01  0.51100000000E-03 0.  1.
         11    1    4    4    0    0  0.27437822290E-02 -0.62420659327E-01  0.68703544981E-01  0.92867137705E-01  0.51100000000E-03 0. -1.
</event>
<event>
 8    1  0.1081309E+005  0.1043930E+01  0.7957747E-01            NaN
         13   -1    0    0    0    0  0.00000000000E+00  0.00000000000E+00  0.74505805969E-08  0.10566000000E+00  0.10566000000E+00 0.  1.
     999900   -1    0    0    0    0 -0.00000000000E+00 -0.00000000000E+00 -0.74505805969E-08  0.93827000000E+00  0.93827000000E+00 0. -1.
     999902    2    1    2    0    0  0.14019922234E-02 -0.83280393392E-02 -0.23300599915E-01  0.10191461388E+01  0.10188447440E+01 0.  0.
     999903    2    3    3    0    0  0.10145989475E+00  0.66949020907E-01  0.35963706802E-01  0.12830918527E+00  0.19838779558E-01 0.  0.
         14    1    1    2    0    0 -0.14019922234E-02  0.83280393392E-02  0.23300599915E-01  0.24783861238E-01  0.00000000000E+00 0.  1.
     999901    1    3    3    0    0 -0.10005790253E+00 -0.75277060246E-01 -0.59264306717E-01  0.89083695349E+00  0.88000000000E+00 0. -1.
        -11    1    4    4    0    0  0.30845866399E-01  0.23657715280E-01  0.24422764956E-02  0.38953572386E-01  0.51100000000E-03 0. -1.
         11    1    4    4    0    0  0.70614028352E-01  0.43291305627E-01  0.33521430306E-01  0.89355612883E-01  0.51100000000E-03 0.  1.
</event>
<event>
 8    1  0.1081309E+005  0.1043930E+01  0.7957747E-01            NaN
         13   -1    0    0    0    0  0.00000000000E+00  0.00000000000E+00  0.74505805969E-08  0.10566000000E+00  0.10566000000E+00 0.  1.
     999900   -1    0    0    0    0 -0.00000000000E+00 -0.00000000000E+00 -0.74505805969E-08  0.93827000000E+00  0.93827000000E+00 0.  1.
     999902    2    1    2    0    0 -0.87314357645E-02 -0.53286129578E-02 -0.21533413404E-01  0.10200905374E+01  0.10198119358E+01 0.  0.
     999903    2    3    3    0    0 -0.64443491191E-01  0.58385896999E-01 -0.97998459231E-01  0.13272912556E+00  0.21247264190E-01 0.  0.
         14    1    1    2    0    0  0.87314357645E-02  0.53286129578E-02  0.21533413404E-01  0.23839462649E-01  0.00000000000E+00 0.  1.
     999901    1    3    3    0    0  0.55712055426E-01 -0.63714509956E-01  0.76465045827E-01  0.88736141179E+00  0.88000000000E+00 0. -1.
        -11    1    4    4    0    0 -0.25561426411E-01  0.30092211075E-01 -0.58073655546E-01  0.70226336064E-01  0.51100000000E-03 0. -1.
         11    1    4    4    0    0 -0.38882064780E-01  0.28293685923E-01 -0.39924803685E-01  0.62502789497E-01  0.51100000000E-03 0.  1.
</event>
<event>
 8    1  0.1081309E+005  0.1043930E+01  0.7957747E-01            NaN
         13   -1    0    0    0    0  0.00000000000E+00  0.00000000000E+00  0.74505805969E-08  0.10566000000E+00  0.10566000000E+00 0.  1.
     999900   -1    0    0    0    0 -0.00000000000E+00 -0.00000000000E+00 -0.74505805969E-08  0.93827000000E+00  0.93827000000E+00 0.  1.
     999902    2    1    2    0    0  0.19931855103E-01  0.83383363249E-02  0.11927584652E-01  0.10192505759E+01  0.10189517468E+01 0.  0.
     999903    2    3    3    0    0 -0.30820431406E-01  0.65729060043E-02  0.12514357101E+00  0.13054546678E+00  0.19700341232E-01 0.  0.
         14    1    1    2    0    0 -0.19931855103E-01 -0.83383363249E-02 -0.11927584652E-01  0.24679424145E-01  0.00000000000E+00 0. -1.
     999901    1    3    3    0    0  0.50752286509E-01  0.17654303206E-02 -0.11321598636E+00  0.88870510908E+00  0.88000000000E+00 0.  1.
        -11    1    4    4    0    0  0.15696075339E-02  0.41170102673E-02  0.10773061516E-01  0.11650468522E-01  0.51100000000E-03 0.  1.
         11    1    4    4    0    0 -0.32390038940E-01  0.24558957370E-02  0.11437050950E+00  0.11889499826E+00  0.51100000000E-03 0. -1.
</event>
<event>
 8    1  0.1081309E+005  0.1043930E+01  0.7957747E-01            NaN
         13   -1    0    0    0    0  0.00000000000E+00  0.00000000000E+00  0.74505805969E-08  0.10566000000E+00  0.10566000000E+00 0.  1.
     999900   -1    0    0    0    0 -0.00000000000E+00 -0.00000000000E+00 -0.74505805969E-08  0.93827000000E+00  0.93827000000E+00 0.  1.
     999902    2    1    2    0    0  0.18296606597E-01 -0.10240112465E-01  0.46056697988E-02  0.10224628644E+01  0.10222374828E+01 0.  0.
     999903    2    3    3    0    0  0.12679475066E-01 -0.13200106208E+00  0.47762060239E-02  0.13406131663E+00  0.19093847030E-01 0.  0.
         14    1    1    2    0    0 -0.18296606597E-01  0.10240112465E-01 -0.46056697988E-02  0.21467135592E-01  0.00000000000E+00 0.  1.
     999901    1    3    3    0    0  0.56171315301E-02  0.12176094961E+00 -0.17053622513E-03  0.88840154778E+00  0.88000000000E+00 0. -1.
        -11    1    4    4    0    0  0.72653716540E-02 -0.47724959465E-01  0.10535748463E-01  0.49413768303E-01  0.51100000000E-03 0. -1.
         11    1    4    4    0    0  0.54141034125E-02 -0.84276102611E-01 -0.57595424390E-02  0.84647548323E-01  0.51100000000E-03 0.  1.
</event>
<event>
 8    1  0.1081309E+005  0.1043930E+01  0.7957747E-01            NaN
         13   -1    0    0    0    0  0.00000000000E+00  0.00000000000E+00  0.74505805969E-08  0.10566000000E+00  0.10566000000E+00 0. -1.
     999900   -1    0    0    0    0 -0.00000000000E+00 -0.00000000000E+00 -0.74505805969E-08  0.93827000000E+00  0.93827000000E+00 0. -1.
     999902    2    1    2    0    0  0.27401046185E-02 -0.19617937041E-01 -0.12706141035E-01  0.10203966694E+01  0.10201252596E+01 0.  0.
     999903    2    3    3    0    0  0.66123461087E-01  0.82988136552E-01  0.69533855980E-01  0.12837151659E+00  0.19620046626E-01 0.  0.
         14    1    1    2    0    0 -0.27401046185E-02  0.19617937041E-01  0.12706141035E-01  0.23533330556E-01  0.00000000000E+00 0. -1.
     999901    1    3    3    0    0 -0.63383356468E-01 -0.10260607359E+00 -0.82239997016E-01  0.89202515285E+00  0.88000000000E+00 0. -1.
        -11    1    4    4    0    0  0.28431519060E-01  0.30524060153E-01  0.16776161990E-01  0.44964099640E-01  0.51100000000E-03 0.  1.
         11    1    4    4    0    0  0.37691942027E-01  0.52464076398E-01  0.52757693990E-01  0.83407416950E-01  0.51100000000E-03 0. -1.
</event>
<event>
 8    1  0.1120208E+005  0.1043930E+01  0.7957747E-01            NaN
         13   -1    0    0    0    0  0.00000000000E+00  0.00000000000E+00  0.74505805969E-08  0.10566000000E+00  0.10566000000E+00 0.  1.
     999900   -1    0    0    0    0 -0.00000000000E+00 -0.00000000000E+00 -0.74505805969E-08  0.93827000000E+00  0.93827000000E+00 0. -1.
     999902    2    1    2    0    0  0.75267422829E-03 -0.57703443388E-02 -0.22983093971E-01  0.10202216470E+01  0.10199461373E+01 0.  0.
     999903    2    3    3    0    0 -0.28693953620E-01  0.42526244422E-01  0.11512733851E+00  0.12765559572E+00  0.20244075888E-01 0.  0.
         14    1    1    2    0    0 -0.75267422829E-03  0.57703443388E-02  0.22983093971E-01  0.23708352975E-01  0.00000000000E+00 0.  1.
     999901    1    3    3    0    0  0.29446627848E-01 -0.48296588761E-01 -0.13811043248E+00  0.89256605130E+00  0.88000000000E+00 0. -1.
        -11    1    4    4    0    0 -0.90994128208E-02  0.15890324221E-01  0.65541460847E-01  0.68053258030E-01  0.51100000000E-03 0. -1.
         11    1    4    4    0    0 -0.19594540799E-01  0.26635920201E-01  0.49585877660E-01  0.59602337693E-01  0.51100000000E-03 0.  1.
</event>
<event>
 8    1  0.1081309E+005  0.1043930E+01  0.7957747E-01            NaN
         13   -1    0    0    0    0  0.00000000000E+00  0.00000000000E+00  0.74505805969E-08  0.10566000000E+00  0.10566000000E+00 0.  1.
     999900   -1    0    0    0    0 -0.00000000000E+00 -0.00000000000E+00 -0.74505805969E-08  0.93827000000E+00  0.93827000000E+00 0.  1.
     999902    2    1    2    0    0 -0.28314657313E-02 -0.14596978219E-01  0.14694219108E-01  0.10230252387E+01  0.10228116297E+01 0.  0.
     999903    2    3    3    0    0 -0.25609519766E-01  0.12556156190E+00  0.19492446213E-01  0.13162954701E+00  0.22909143559E-01 0.  0.
         14    1    1    2    0    0  0.28314657313E-02  0.14596978219E-01 -0.14694219108E-01  0.20904761336E-01  0.00000000000E+00 0. -1.
     999901    1    3    3    0    0  0.22778054035E-01 -0.14015854012E+00 -0.47982271048E-02  0.89139569165E+00  0.88000000000E+00 0.  1.
        -11    1    4    4    0    0 -0.21733671651E-01  0.71992127251E-01  0.20361369359E-01  0.77910624133E-01  0.51100000000E-03 0.  1.
         11    1    4    4    0    0 -0.38758481146E-02  0.53569434645E-01 -0.86892314604E-03  0.53718922879E-01  0.51100000000E-03 0. -1.
</event>
<event>
 8    1  0.1081309E+005  0.1043930E+01  0.7957747E-01            NaN
         13   -1    0    0    0    0  0.00000000000E+00  0.00000000000E+00  0.74505805969E-08  0.10566000000E+00  0.10566000000E+00 0. -1.
     999900   -1    0    0    0    0 -0.00000000000E+00 -0.00000000000E+00 -0.74505805969E-08  0.93827000000E+00  0.93827000000E+00 0.  1.
     999902    2    1    2    0    0  0.17835148737E-01  0.12458502555E-01 -0.10026015990E-01  0.10199752966E+01  0.10196939629E+01 0.  0.
     999903    2    3    3    0    0 -0.82202574229E-01  0.98086355652E-01 -0.13518796169E-01  0.13017089411E+00  0.19583346233E-01 0.  0.
         14    1    1    2    0    0 -0.17835148737E-01 -0.12458502555E-01  0.10026015990E-01  0.23954703359E-01  0.00000000000E+00 0. -1.
     999901    1    3    3    0    0  0.10003772297E+00 -0.85627853097E-01  0.34927801783E-02  0.88980440253E+00  0.88000000000E+00 0. -1.
        -11    1    4    4    0    0 -0.62017499787E-01  0.83650223704E-01 -0.15454850200E-01  0.10527413605E+00  0.51100000000E-03 0.  1.
         11    1    4    4    0    0 -0.20185074442E-01  0.14436131948E-01  0.19360540317E-02  0.24896758064E-01  0.51100000000E-03 0. -1.
</event>
<event>
 8    1  0.1081309E+005  0.1043930E+01  0.7957747E-01            NaN
         13   -1    0    0    0    0  0.00000000000E+00  0.00000000000E+00  0.74505805969E-08  0.10566000000E+00  0.10566000000E+00 0. -1.
     999900   -1    0    0    0    0 -0.00000000000E+00 -0.00000000000E+00 -0.74505805969E-08  0.93827000000E+00  0.93827000000E+00 0.  1.
     999902    2    1    2    0    0  0.22733979024E-01 -0.17956802790E-03  0.68800558716E-02  0.10201770798E+01  0.10199005211E+01 0.  0.
     999903    2    3    3    0    0  0.39782342750E-01  0.29676035799E-01 -0.11903260249E+00  0.13055019102E+00  0.20280286579E-01 0.  0.
         14    1    1    2    0    0 -0.22733979024E-01  0.17956802790E-03 -0.68800558716E-02  0.23752920152E-01  0.00000000000E+00 0.  1.
     999901    1    3    3    0    0 -0.17048363726E-01 -0.29855603827E-01  0.12591265837E+00  0.88962688883E+00  0.88000000000E+00 0. -1.
        -11    1    4    4    0    0  0.17227872757E-01  0.25112314517E-01 -0.72423004988E-01  0.78567045971E-01  0.51100000000E-03 0. -1.
         11    1    4    4    0    0  0.22554469993E-01  0.45637212817E-02 -0.46609597507E-01  0.51983145051E-01  0.51100000000E-03 0.  1.
</event>
<event>
 8    1  0.1081309E+005  0.1043930E+01  0.7957747E-01            NaN
         13   -1    0    0    0    0  0.00000000000E+00  0.00000000000E+00  0.74505805969E-08  0.10566000000E+00  0.10566000000E+00 0.  1.
     999900   -1    0    0    0    0 -0.00000000000E+00 -0.00000000000E+00 -0.74505805969E-08  0.93827000000E+00  0.93827000000E+00 0.  1.
     999902    2    1    2    0    0 -0.38241024157E-02 -0.13385305539E-01  0.18933293862E-01  0.10204297919E+01  0.10201591545E+01 0.  0.
     999903    2    3    3    0    0 -0.93705108397E-01 -0.89776854461E-01 -0.12360581268E-01  0.13200783664E+00  0.20802740917E-01 0.  0.
         14    1    1    2    0    0  0.38241024157E-02  0.13385305539E-01 -0.18933293862E-01  0.23500208087E-01  0.00000000000E+00 0. -1.
     999901    1    3    3    0    0  0.89881005981E-01  0.76391548922E-01  0.31293875129E-01  0.88842195527E+00  0.88000000000E+00 0. -1.
        -11    1    4    4    0    0 -0.71197040015E-01 -0.56567190838E-01 -0.13135736099E-01  0.91878584393E-01  0.51100000000E-03 0. -1.
         11    1    4    4    0    0 -0.22508068382E-01 -0.33209663623E-01  0.77515483183E-03  0.40129252252E-01  0.51100000000E-03 0.  1.
</event>
<event>
 8    1  0.1081309E+005  0.1043930E+01  0.7957747E-01            NaN
         13   -1    0    0    0    0  0.00000000000E+00  0.00000000000E+00  0.74505805969E-08  0.10566000000E+00  0.10566000000E+00 0. -1.
     999900   -1    0    0    0    0 -0.00000000000E+00 -0.00000000000E+00 -0.74505805969E-08  0.93827000000E+00  0.93827000000E+00 0.  1.
     999902    2    1    2    0    0  0.37362788515E-02  0.17542981924E-01 -0.15700579973E-01  0.10200925462E+01  0.10198139921E+01 0.  0.
     999903    2    3    3    0    0 -0.91368637094E-01  0.19170645928E-01 -0.91207698641E-01  0.13175200374E+00  0.18000130221E-01 0.  0.
         14    1    1    2    0    0 -0.37362788515E-02 -0.17542981924E-01  0.15700579973E-01  0.23837453848E-01  0.00000000000E+00 0. -1.
     999901    1    3    3    0    0  0.95104915945E-01 -0.16276640039E-02  0.75507118668E-01  0.88834054241E+00  0.88000000000E+00 0. -1.
        -11    1    4    4    0    0 -0.45482785378E-01  0.11147675028E-01 -0.57980123683E-01  0.74531270535E-01  0.51100000000E-03 0.  1.
         11    1    4    4    0    0 -0.45885851715E-01  0.80229709002E-02 -0.33227574958E-01  0.57220733203E-01  0.51100000000E-03 0. -1.
</event>
<event>
 8    1  0.1081309E+005  0.1043930E+01  0.7957747E-01            NaN
         13   -1    0    0    0    0  0.00000000000E+00  0.00000000000E+00  0.74505805969E-08  0.10566000000E+00  0.10566000000E+00 0. -1.
     999900   -1    0    0    0    0 -0.00000000000E+00 -0.00000000000E+00 -0.74505805969E-08  0.93827000000E+00  0.93827000000E+00 0. -1.
     999902    2    1    2    0    0  0.70863373301E-02 -0.19926477382E-01 -0.11226161377E-01  0.10199861620E+01  0.10197050865E+01 0.  0.
     999903    2    3    3    0    0  0.79713270882E-01  0.89729708521E-01 -0.44148886629E-01  0.12960250516E+00  0.21025199320E-01 0.  0.
         14    1    1    2    0    0 -0.70863373301E-02  0.19926477382E-01  0.11226161377E-01  0.23943837973E-01  0.00000000000E+00 0. -1.
     999901    1    3    3    0    0 -0.72626933552E-01 -0.10965618590E+00  0.32922725252E-01  0.89038365687E+00  0.88000000000E+00 0.  1.
        -11    1    4    4    0    0  0.22474963301E-01  0.19102410101E-01 -0.19660398644E-01  0.35451635264E-01  0.51100000000E-03 0. -1.
         11    1    4    4    0    0  0.57238307581E-01  0.70627298420E-01 -0.24488487985E-01  0.94150869893E-01  0.51100000000E-03 0.  1.
</event>
<event>
 8    1  0.1081309E+005  0.1043930E+01  0.7957747E-01            NaN
         13   -1    0    0    0    0  0.00000000000E+00  0.00000000000E+00  0.74505805969E-08  0.10566000000E+00  0.10566000000E+00 0.  1.
     999900   -1    0    0    0    0 -0.00000000000E+00 -0.00000000000E+00 -0.74505805969E-08  0.93827000000E+00  0.93827000000E+00 0. -1.
     999902    2    1    2    0    0 -0.19887270932E-01 -0.89683768316E-02 -0.10132242751E-01  0.10198759427E+01  0.10195922425E+01 0.  0.
     999903    2    3    3    0    0 -0.28007777537E-01 -0.79687971530E-01 -0.10089572873E+00  0.13234835775E+00  0.14196172577E-01 0.  0.
         14    1    1    2    0    0  0.19887270932E-01  0.89683768316E-02  0.10132242751E-01  0.24054057273E-01  0.00000000000E+00 0.  1.
     999901    1    3    3    0    0  0.81205066049E-02  0.70719594698E-01  0.90763485975E-01  0.88752758497E+00  0.88000000000E+00 0.  1.
        -11    1    4    4    0    0 -0.11217680040E-01 -0.48404600621E-01 -0.65461368674E-01  0.82184509590E-01  0.51100000000E-03 0.  1.
         11    1    4    4    0    0 -0.16790097496E-01 -0.31283370909E-01 -0.35434360052E-01  0.50163848165E-01  0.51100000000E-03 0. -1.
</event>
<event>
 8    1  0.1081309E+005  0.1043930E+01  0.7957747E-01            NaN
         13   -1    0    0    0    0  0.00000000000E+00  0.00000000000E+00  0.74505805969E-08  0.10566000000E+00  0.10566000000E+00 0.  1.
     999900   -1    0    0    0    0 -0.00000000000E+00 -0.00000000000E+00 -0.74505805969E-08  0.93827000000E+00  0.93827000000E+00 0.  1.
     999902    2    1    2    0    0 -0.18915529773E-01 -0.11870240756E-01 -0.84168477276E-02  0.10200648956E+01  0.10197856873E+01 0.  0.
     999903    2    3    3    0    0 -0.41600488002E-01  0.32773369252E-01 -0.11980958384E+00  0.13163031675E+00  0.12942548960E-01 0.  0.
         14    1    1    2    0    0  0.18915529773E-01  0.11870240756E-01  0.84168477276E-02  0.23865104397E-01  0.00000000000E+00 0. -1.
     999901    1    3    3    0    0  0.22684958229E-01 -0.44643610008E-01  0.11139273611E+00  0.88843457885E+00  0.88000000000E+00 0.  1.
        -11    1    4    4    0    0 -0.35859340706E-01  0.22180784409E-01 -0.98470733319E-01  0.10711968052E+00  0.51100000000E-03 0.  1.
         11    1    4    4    0    0 -0.57411472965E-02  0.10592584843E-01 -0.21338850521E-01  0.24510636232E-01  0.51100000000E-03 0. -1.
</event>
<event>
 8    1  0.1081309E+005  0.1043930E+01  0.7957747E-01            NaN
         13   -1    0    0    0    0  0.00000000000E+00  0.00000000000E+00  0.74505805969E-08  0.10566000000E+00  0.10566000000E+00 0.  1.
     999900   -1    0    0    0    0 -0.00000000000E+00 -0.00000000000E+00 -0.74505805969E-08  0.93827000000E+00  0.93827000000E+00 0.  1.
     999902    2    1    2    0    0  0.94449705931E-02 -0.20138537719E-01 -0.86782098606E-02  0.10200536624E+01  0.10197741881E+01 0.  0.
     999903    2    3    3    0    0  0.83004406623E-01  0.56838683474E-01  0.78778382353E-01  0.12933196695E+00  0.20008915317E-01 0.  0.
         14    1    1    2    0    0 -0.94449705931E-02  0.20138537719E-01  0.86782098606E-02  0.23876337603E-01  0.00000000000E+00 0.  1.
     999901    1    3    3    0    0 -0.73559436030E-01 -0.76977221192E-01 -0.87456592213E-01  0.89072169544E+00  0.88000000000E+00 0.  1.
        -11    1    4    4    0    0  0.50159282080E-01  0.43872767346E-01  0.44618954574E-01  0.80199036912E-01  0.51100000000E-03 0. -1.
         11    1    4    4    0    0  0.32845124543E-01  0.12965916127E-01  0.34159427779E-01  0.49132930042E-01  0.51100000000E-03 0.  1.
</event>
<event>
 8    1  0.1081309E+005  0.1043930E+01  0.7957747E-01            NaN
         13   -1    0    0    0    0  0.00000000000E+00  0.00000000000E+00  0.74505805969E-08  0.10566000000E+00  0.10566000000E+00 0. -1.
     999900   -1    0    0    0    0 -0.00000000000E+00 -0.00000000000E+00 -0.74505805969E-08  0.93827000000E+00  0.93827000000E+00 0. -1.
     999902    2    1    2    0    0  0.18365205944E-01  0.10639364070E-01 -0.10928810596E-01  0.10200570915E+01  0.10197776984E+01 0.  0.
     999903    2    3    3    0    0  0.99310227299E-01 -0.10156443700E-01  0.82488231581E-01  0.13117503757E+00  0.20902333311E-01 0.  0.
         14    1    1    2    0    0 -0.18365205944E-01 -0.10639364070E-01  0.10928810596E-01  0.23872908457E-01  0.00000000000E+00 0. -1.
     999901    1    3    3    0    0 -0.80945021355E-01  0.20795807770E-01 -0.93417042176E-01  0.88888205397E+00  0.88000000000E+00 0. -1.
        -11    1    4    4    0    0  0.30284103518E-01  0.52218272217E-02  0.18973700718E-01  0.36120033850E-01  0.51100000000E-03 0. -1.
         11    1    4    4    0    0  0.69026123781E-01 -0.15378270922E-01  0.63514530862E-01  0.95055003721E-01  0.51100000000E-03 0.  1.
</event>
<event>
 8    1  0.1081309E+005  0.1043930E+01  0.7957747E-01            NaN
         13   -1    0    0    0    0  0.00000000000E+00  0.00000000000E+00  0.74505805969E-08  0.10566000000E+00  0.10566000000E+00 0. -1.
     999900   -1    0    0    0    0 -0.00000000000E+00 -0.00000000000E+00 -0.74505805969E-08  0.93827000000E+00  0.93827000000E+00 0.  1.
     999902    2    1    2    0    0 -0.11328759402E-01  0.19414994836E-01  0.59863107446E-02  0.10206680411E+01  0.10204029260E+01 0.  0.
     999903    2    3    3    0    0 -0.86198280956E-01 -0.29596506710E-01 -0.91526212955E-01  0.13077126913E+00  0.20444567073E-01 0.  0.
         14    1    1    2    0    0  0.11328759402E-01 -0.19414994836E-01 -0.59863107446E-02  0.23261958868E-01  0.00000000000E+00 0.  1.
     999901    1    3    3    0    0  0.74869521555E-01  0.49011501545E-01  0.97512523699E-01  0.88989677200E+00  0.88000000000E+00 0. -1.
        -11    1    4    4    0    0 -0.54892442943E-01 -0.28586899584E-01 -0.64588147564E-01  0.89455469631E-01  0.51100000000E-03 0.  1.
         11    1    4    4    0    0 -0.31305838014E-01 -0.10096071254E-02 -0.26938065390E-01  0.41315799499E-01  0.51100000000E-03 0. -1.
</event>
<event>
 8    1  0.1081309E+005  0.1043930E+01  0.7957747E-01            NaN
         13   -1    0    0    0    0  0.00000000000E+00  0.00000000000E+00  0.74505805969E-08  0.10566000000E+00  0.10566000000E+00 0.  1.
     999900   -1    0    0    0    0 -0.00000000000E+00 -0.00000000000E+00 -0.74505805969E-08  0.93827000000E+00  0.93827000000E+00 0. -1.
     999902    2    1    2    0    0  0.12951260857E-01  0.24507886257E-01  0.51731029947E-02  0.10157319036E+01  0.10153404194E+01 0.  0.
     999903    2    3    3    0    0  0.10573147228E+00  0.71322384918E-01 -0.97000723288E-02  0.12949210745E+00  0.20201179883E-01 0.  0.
         14    1    1    2    0    0 -0.12951260857E-01 -0.24507886257E-01 -0.51731029947E-02  0.28198096410E-01  0.00000000000E+00 0. -1.
     999901    1    3    3    0    0 -0.92780211421E-01 -0.46814498661E-01  0.14873175323E-01  0.88623979614E+00  0.88000000000E+00 0.  1.
        -11    1    4    4    0    0  0.38057307381E-01  0.15673101814E-01 -0.75478957563E-02  0.41847779116E-01  0.51100000000E-03 0. -1.
         11    1    4    4    0    0  0.67674164896E-01  0.55649283103E-01 -0.21521765725E-02  0.87644328335E-01  0.51100000000E-03 0.  1.
</event>
<event>
 8    1  0.1081309E+005  0.1043930E+01  0.7957747E-01            NaN
         13   -1    0    0    0    0  0.00000000000E+00  0.00000000000E+00  0.74505805969E-08  0.10566000000E+00  0.10566000000E+00 0. -1.
     999900   -1    0    0    0    0 -0.00000000000E+00 -0.00000000000E+00 -0.74505805969E-08  0.93827000000E+00  0.93827000000E+00 0.  1.
     999902    2    1    2    0    0 -0.20769227103E-01  0.11834098661E-02  0.99658716157E-02  0.10208631439E+01  0.10206025077E+01 0.  0.
     999903    2    3    3    0    0  0.42996380697E-01 -0.74456356950E-01  0.97713911225E-01  0.13098273310E+00  0.14697961790E-01 0.  0.
         14    1    1    2    0    0  0.20769227103E-01 -0.11834098661E-02 -0.99658716157E-02  0.23066856102E-01  0.00000000000E+00 0.  1.
     999901    1    3    3    0    0 -0.63765607800E-01  0.75639766816E-01 -0.87748039610E-01  0.88988041080E+00  0.88000000000E+00 0. -1.
        -11    1    4    4    0    0  0.36616592066E-01 -0.51848133429E-01  0.66752106603E-01  0.92114649277E-01  0.51100000000E-03 0.  1.
         11    1    4    4    0    0  0.63797886310E-02 -0.22608223521E-01  0.30961804623E-01  0.38868083825E-01  0.51100000000E-03 0. -1.
</event>
<event>
 8    1  0.1081309E+005  0.1043930E+01  0.7957747E-01            NaN
         13   -1    0    0    0    0  0.00000000000E+00  0.00000000000E+00  0.74505805969E-08  0.10566000000E+00  0.10566000000E+00 0.  1.
     999900   -1    0    0    0    0 -0.00000000000E+00 -0.00000000000E+00 -0.74505805969E-08  0.93827000000E+00  0.93827000000E+00 0.  1.
     999902    2    1    2    0    0 -0.12945442287E-01 -0.38736489986E-02  0.93760969717E-02  0.10274830907E+01  0.10273514495E+01 0.  0.
     999903    2    3    3    0    0  0.35264702661E-01 -0.12436018579E+00  0.41928357634E-01  0.13737024764E+00  0.20088372267E-01 0.  0.
         14    1    1    2    0    0  0.12945442287E-01  0.38736489986E-02 -0.93760969717E-02  0.16446909345E-01  0.00000000000E+00 0. -1.
     999901    1    3    3    0    0 -0.48210144948E-01  0.12048653679E+00 -0.32552260662E-01  0.89011284301E+00  0.88000000000E+00 0. -1.
        -11    1    4    4    0    0  0.29473525478E-01 -0.78603296651E-01  0.33981955980E-01  0.90566005773E-01  0.51100000000E-03 0.  1.
         11    1    4    4    0    0  0.57911771833E-02 -0.45756889137E-01  0.79464016539E-02  0.46804241869E-01  0.51100000000E-03 0. -1.
</event>
<event>
 8    1  0.1081309E+005  0.1043930E+01  0.7957747E-01            NaN
         13   -1    0    0    0    0  0.00000000000E+00  0.00000000000E+00  0.74505805969E-08  0.10566000000E+00  0.10566000000E+00 0. -1.
     999900   -1    0    0    0    0 -0.00000000000E+00 -0.00000000000E+00 -0.74505805969E-08  0.93827000000E+00  0.93827000000E+00 0. -1.
     999902    2    1    2    0    0 -0.82633332508E-02  0.17285746904E-01  0.13599812164E-01  0.10204345831E+01  0.10201640573E+01 0.  0.
     999903    2    3    3    0    0 -0.36039176078E-01  0.83101175467E-01  0.96341373306E-01  0.13367117951E+00  0.19537053118E-01 0.  0.
         14    1    1    2    0    0  0.82633332508E-02 -0.17285746904E-01 -0.13599812164E-01  0.23495416858E-01  0.00000000000E+00 0. -1.
     999901    1    3    3    0    0  0.27775842827E-01 -0.65815428563E-01 -0.82741561143E-01  0.88676340363E+00  0.88000000000E+00 0. -1.
        -11    1    4    4    0    0 -0.11900145110E-01  0.35712849688E-01  0.53286419179E-01  0.65243579580E-01  0.51100000000E-03 0.  1.
         11    1    4    4    0    0 -0.24139030968E-01  0.47388325780E-01  0.43054954127E-01  0.68427599930E-01  0.51100000000E-03 0. -1.
</event>
<event>
 8    1  0.1081309E+005  0.1043930E+01  0.7957747E-01            NaN
         13   -1    0    0    0    0  0.00000000000E+00  0.00000000000E+00  0.74505805969E-08  0.10566000000E+00  0.10566000000E+00 0. -1.
     999900   -1    0    0    0    0 -0.00000000000E+00 -0.00000000000E+00 -0.74505805969E-08  0.93827000000E+00  0.93827000000E+00 0. -1.
     999902    2    1    2    0    0 -0.25009173934E-02 -0.46202797194E-02 -0.22862049662E-01  0.10204720613E+01  0.10202024079E+01 0.  0.
     999903    2    3    3    0    0 -0.26362366544E-01 -0.11677414726E+00 -0.52960363900E-01  0.13252286948E+00  0.20647880116E-01 0.  0.
         14    1    1    2    0    0  0.25009173934E-02  0.46202797194E-02  0.22862049662E-01  0.23457938683E-01  0.00000000000E+00 0. -1.
     999901    1    3    3    0    0  0.23861449151E-01  0.11215386754E+00  0.30098314237E-01  0.88794919183E+00  0.88000000000E+00 0. -1.
        -11    1    4    4    0    0 -0.14011292546E-01 -0.57534900437E-01 -0.15006424730E-01  0.61090383787E-01  0.51100000000E-03 0. -1.
         11    1    4    4    0    0 -0.12351073998E-01 -0.59239246823E-01 -0.37953939169E-01  0.71432485695E-01  0.51100000000E-03 0.  1.
</event>
<event>
 8    1  0.1081309E+005  0.1043930E+01  0.7957747E-01            NaN
         13   -1    0    0    0    0  0.00000000000E+00  0.00000000000E+00  0.74505805969E-08  0.10566000000E+00  0.10566000000E+00 0.  1.
     999900   -1    0    0    0    0 -0.00000000000E+00 -0.00000000000E+00 -0.74505805969E-08  0.93827000000E+00  0.93827000000E+00 0. -1.
     999902    2    1    2    0    0  0.85503472312E-02  0.23241214555E-01  0.27896694245E-02  0.10190092306E+01  0.10187044553E+01 0.  0.
     999903    2    3    3    0    0  0.12284378522E+00 -0.31545130654E-01 -0.16749692702E-01  0.12971382397E+00  0.21434390299E-01 0.  0.
         14    1    1    2    0    0 -0.85503472312E-02 -0.23241214555E-01 -0.27896694245E-02  0.24920769395E-01  0.00000000000E+00 0. -1.
     999901    1    3    3    0    0 -0.11429343799E+00  0.54786345209E-01  0.19539362126E-01  0.88929540663E+00  0.88000000000E+00 0.  1.
        -11    1    4    4    0    0  0.72740815540E-01 -0.10626305609E-01 -0.24053770676E-02  0.73554004487E-01  0.51100000000E-03 0. -1.
         11    1    4    4    0    0  0.50102969683E-01 -0.20918825045E-01 -0.14344315634E-01  0.56159819483E-01  0.51100000000E-03 0.  1.
</event>
<event>
 8    1  0.1081309E+005  0.1043930E+01  0.7957747E-01            NaN
         13   -1    0    0    0    0  0.00000000000E+00  0.00000000000E+00  0.74505805969E-08  0.10566000000E+00  0.10566000000E+00 0.  1.
     999900   -1    0    0    0    0 -0.00000000000E+00 -0.00000000000E+00 -0.74505805969E-08  0.93827000000E+00  0.93827000000E+00 0.  1.
     999902    2    1    2    0    0 -0.22762471143E-01  0.14662939153E-02  0.49638089539E-02  0.10205864889E+01  0.10203194901E+01 0.  0.
     999903    2    3    3    0    0 -0.33189721003E-02  0.90492831466E-01  0.93306907130E-01  0.13148116499E+00  0.19523055749E-01 0.  0.
         14    1    1    2    0    0  0.22762471143E-01 -0.14662939153E-02 -0.49638089539E-02  0.23343511084E-01  0.00000000000E+00 0.  1.
     999901    1    3    3    0    0 -0.19443499043E-01 -0.89026537550E-01 -0.88343098176E-01  0.88910532393E+00  0.88000000000E+00 0.  1.
        -11    1    4    4    0    0 -0.90560090258E-02  0.65511707955E-01  0.58817788649E-01  0.88507562170E-01  0.51100000000E-03 0.  1.
         11    1    4    4    0    0  0.57370369255E-02  0.24981123510E-01  0.34489118480E-01  0.42973602817E-01  0.51100000000E-03 0. -1.
</event>
<event>
 8    1  0.1081309E+005  0.1043930E+01  0.7957747E-01            NaN
         13   -1    0    0    0    0  0.00000000000E+00  0.00000000000E+00  0.74505805969E-08  0.10566000000E+00  0.10566000000E+00 0.  1.
     999900   -1    0    0    0    0 -0.00000000000E+00 -0.00000000000E+00 -0.74505805969E-08  0.93827000000E+00  0.93827000000E+00 0. -1.
     999902    2    1    2    0    0 -0.16797231640E-01  0.14812509630E-01 -0.11429735980E-01  0.10187864860E+01  0.10184761694E+01 0.  0.
     999903    2    3    3    0    0  0.11719198263E+00  0.16127378581E-01  0.39488454205E-01  0.12718820172E+00  0.24968930841E-01 0.  0.
         14    1    1    2    0    0  0.16797231640E-01 -0.14812509630E-01  0.11429735980E-01  0.25143514012E-01  0.00000000000E+00 0.  1.
     999901    1    3    3    0    0 -0.13398921427E+00 -0.13148689505E-02 -0.50918190185E-01  0.89159828427E+00  0.88000000000E+00 0. -1.
        -11    1    4    4    0    0  0.46623947876E-01 -0.44953357134E-02  0.21254255529E-01  0.51439333762E-01  0.51100000000E-03 0.  1.
         11    1    4    4    0    0  0.70568034757E-01  0.20622714294E-01  0.18234198676E-01  0.75748867956E-01  0.51100000000E-03 0. -1.
</event>
<event>
 8    1  0.1081309E+005  0.1043930E+01  0.7957747E-01            NaN
         13   -1    0    0    0    0  0.00000000000E+00  0.00000000000E+00  0.74505805969E-08  0.10566000000E+00  0.10566000000E+00 0.  1.
     999900   -1    0    0    0    0 -0.00000000000E+00 -0.00000000000E+00 -0.74505805969E-08  0.93827000000E+00  0.93827000000E+00 0.  1.
     999902    2    1    2    0    0  0.12749127581E-01 -0.11206141044E-01  0.15553369883E-01  0.10209077246E+01  0.10206481063E+01 0.  0.
     999903    2    3    3    0    0  0.28382049262E-01  0.11945283817E+00 -0.36420742275E-01  0.12960672860E+00  0.19922659540E-01 0.  0.
         14    1    1    2    0    0 -0.12749127581E-01  0.11206141044E-01 -0.15553369883E-01  0.23022275428E-01  0.00000000000E+00 0. -1.
     999901    1    3    3    0    0 -0.15632921681E-01 -0.13065897921E+00  0.51974112158E-01  0.89130099597E+00  0.88000000000E+00 0. -1.
        -11    1    4    4    0    0  0.13607741978E-01  0.88921821788E-01 -0.31584197121E-01  0.95341930234E-01  0.51100000000E-03 0.  1.
         11    1    4    4    0    0  0.14774307283E-01  0.30531016381E-01 -0.48365451541E-02  0.34264798365E-01  0.51100000000E-03 0. -1.
</event>
<event>
 8    1  0.1081309E+005  0.1043930E+01  0.7957747E-01            NaN
         13   -1    0    0    0    0  0.00000000000E+00  0.00000000000E+00  0.74505805969E-08  0.10566000000E+00  0.10566000000E+00 0. -1.
     999900   -1    0    0    0    0 -0.00000000000E+00 -0.00000000000E+00 -0.74505805969E-08  0.93827000000E+00  0.93827000000E+00 0. -1.
     999902    2    1    2    0    0  0.11803360001E-01 -0.10191860114E-01  0.18015155285E-01  0.10201027228E+01  0.10198244093E+01 0.  0.
     999903    2    3    3    0    0 -0.96978790735E-01 -0.54365432645E-01  0.66349612531E-01  0.13099019864E+00  0.19891579532E-01 0.  0.
         14    1    1    2    0    0 -0.11803360001E-01  0.10191860114E-01 -0.18015155285E-01  0.23827277223E-01  0.00000000000E+00 0.  1.
     999901    1    3    3    0    0  0.10878215074E+00  0.44173572532E-01 -0.48334457246E-01  0.88911252414E+00  0.88000000000E+00 0. -1.
        -11    1    4    4    0    0 -0.59910633613E-01 -0.42992216158E-01  0.48798859628E-01  0.88426265850E-01  0.51100000000E-03 0.  1.
         11    1    4    4    0    0 -0.37068157123E-01 -0.11373216487E-01  0.17550752903E-01  0.42563932786E-01  0.51100000000E-03 0. -1.
</event>
<event>
 8    1  0.1081309E+005  0.1043930E+01  0.7957747E-01            NaN
         13   -1    0    0    0    0  0.00000000000E+00  0.00000000000E+00  0.74505805969E-08  0.10566000000E+00  0.10566000000E+00 0. -1.
     999900   -1    0    0    0    0 -0.00000000000E+00 -0.00000000000E+00 -0.74505805969E-08  0.93827000000E+00  0.93827000000E+00 0. -1.
     999902    2    1    2    0    0  0.16247147299E-01 -0.93506753418E-03 -0.16553346261E-01  0.10207166974E+01  0.10204527029E+01 0.  0.
     999903    2    3    3    0    0  0.69708881357E-01 -0.11027738585E+00  0.26308944482E-02  0.13213246688E+00  0.20775880893E-01 0.  0.
         14    1    1    2    0    0 -0.16247147299E-01  0.93506753418E-03  0.16553346261E-01  0.23213302632E-01  0.00000000000E+00 0. -1.
     999901    1    3    3    0    0 -0.53461734058E-01  0.10934231832E+00 -0.19184240709E-01  0.88858423049E+00  0.88000000000E+00 0. -1.
        -11    1    4    4    0    0  0.26543376159E-01 -0.33414016644E-01  0.94584438089E-02  0.43712362171E-01  0.51100000000E-03 0. -1.
         11    1    4    4    0    0  0.43165505198E-01 -0.76863369209E-01 -0.68275493608E-02  0.88420104707E-01  0.51100000000E-03 0.  1.
</event>
<event>
 8    1  0.1081309E+005  0.1043930E+01  0.7957747E-01            NaN
         13   -1    0    0    0    0  0.00000000000E+00  0.00000000000E+00  0.74505805969E-08  0.10566000000E+00  0.10566000000E+00 0. -1.
     999900   -1    0    0    0    0 -0.00000000000E+00 -0.00000000000E+00 -0.74505805969E-08  0.93827000000E+00  0.93827000000E+00 0.  1.
     999902    2    1    2    0    0 -0.57038923088E-02 -0.99358241837E-02  0.22508372022E-01  0.10186736780E+01  0.10183605356E+01 0.  0.
     999903    2    3    3    0    0 -0.57764802922E-01  0.11251299090E+00 -0.69370315961E-02  0.12818444027E+00  0.19676959656E-01 0.  0.
         14    1    1    2    0    0  0.57038923088E-02  0.99358241837E-02 -0.22508372022E-01  0.25256321996E-01  0.00000000000E+00 0.  1.
     999901    1    3    3    0    0  0.52060910614E-01 -0.12244881508E+00  0.29445403618E-01  0.89048923774E+00  0.88000000000E+00 0. -1.
        -11    1    4    4    0    0 -0.29983660729E-01  0.50514009970E-01 -0.12348737678E-01  0.60028639475E-01  0.51100000000E-03 0.  1.
         11    1    4    4    0    0 -0.27781142194E-01  0.61998980931E-01  0.54117060817E-02  0.68155800793E-01  0.51100000000E-03 0. -1.
</event>
<event>
 8    1  0.1081309E+005  0.1043930E+01  0.7957747E-01            NaN
         13   -1    0    0    0    0  0.00000000000E+00  0.00000000000E+00  0.74505805969E-08  0.10566000000E+00  0.10566000000E+00 0.  1.
     999900   -1    0    0    0    0 -0.00000000000E+00 -0.00000000000E+00 -0.74505805969E-08  0.93827000000E+00  0.93827000000E+00 0.  1.
     999902    2    1    2    0    0  0.21868705927E-01 -0.38480909422E-02 -0.67454299504E-02  0.10207233430E+01  0.10204595014E+01 0.  0.
     999903    2    3    3    0    0 -0.10202032818E+00 -0.24460106890E-01 -0.72144417307E-01  0.12940388541E+00  0.23110699263E-01 0.  0.
         14    1    1    2    0    0 -0.21868705927E-01  0.38480909422E-02  0.67454299504E-02  0.23206656976E-01  0.00000000000E+00 0.  1.
     999901    1    3    3    0    0  0.12388903410E+00  0.20612015948E-01  0.65398987356E-01  0.89131945761E+00  0.88000000000E+00 0. -1.
        -11    1    4    4    0    0 -0.47537742259E-01  0.36738251704E-03 -0.31053427858E-01  0.56785107306E-01  0.51100000000E-03 0. -1.
         11    1    4    4    0    0 -0.54482585918E-01 -0.24827489407E-01 -0.41090989449E-01  0.72618778105E-01  0.51100000000E-03 0.  1.
</event>
<event>
 8    1  0.1081309E+005  0.1043930E+01  0.7957747E-01            NaN
         13   -1    0    0    0    0  0.00000000000E+00  0.00000000000E+00  0.74505805969E-08  0.10566000000E+00  0.10566000000E+00 0. -1.
     999900   -1    0    0    0    0 -0.00000000000E+00 -0.00000000000E+00 -0.74505805969E-08  0.93827000000E+00  0.93827000000E+00 0.  1.
     999902    2    1    2    0    0 -0.23616461001E-01  0.24599698520E-02 -0.60296390699E-03  0.10201781107E+01  0.10199015762E+01 0.  0.
     999903    2    3    3    0    0  0.20582035878E-01 -0.58864410602E-01  0.11217174198E+00  0.12976678938E+00  0.19190645932E-01 0.  0.
         14    1    1    2    0    0  0.23616461001E-01 -0.24599698520E-02  0.60296390699E-03  0.23751889343E-01  0.00000000000E+00 0.  1.
     999901    1    3    3    0    0 -0.44198496879E-01  0.61324380454E-01 -0.11277470589E+00  0.89041132127E+00  0.88000000000E+00 0.  1.
        -11    1    4    4    0    0  0.55640717227E-02 -0.15383872390E-01  0.14764828400E-01  0.22042769847E-01  0.51100000000E-03 0.  1.
         11    1    4    4    0    0  0.15017964155E-01 -0.43480538212E-01  0.97406913582E-01  0.10772401954E+00  0.51100000000E-03 0. -1.
</event>
<event>
 8    1  0.1081309E+005  0.1043930E+01  0.7957747E-01            NaN
         13   -1    0    0    0    0  0.00000000000E+00  0.00000000000E+00  0.74505805969E-08  0.10566000000E+00  0.10566000000E+00 0. -1.
     999900   -1    0    0    0    0 -0.00000000000E+00 -0.00000000000E+00 -0.74505805969E-08  0.93827000000E+00  0.93827000000E+00 0. -1.
     999902    2    1    2    0    0 -0.12657597274E-01  0.16704931390E-01 -0.10948538213E-01  0.10202838589E+01  0.10200098101E+01 0.  0.
     999903    2    3    3    0    0 -0.11325663142E+00 -0.38013489836E-01  0.49417368667E-01  0.13081305327E+00  0.19947145394E-01 0.  0.
         14    1    1    2    0    0  0.12657597274E-01 -0.16704931390E-01  0.10948538213E-01  0.23646141134E-01  0.00000000000E+00 0. -1.
     999901    1    3    3    0    0  0.10059903415E+00  0.54718421226E-01 -0.60365906880E-01  0.88947080560E+00  0.88000000000E+00 0. -1.
        -11    1    4    4    0    0 -0.10178877515E+00 -0.31964152838E-01  0.49996843940E-01  0.11782447682E+00  0.51100000000E-03 0.  1.
         11    1    4    4    0    0 -0.11467856277E-01 -0.60493369975E-02 -0.57947527263E-03  0.12988576454E-01  0.51100000000E-03 0. -1.
</event>
<event>
 8    1  0.1081309E+005  0.1043930E+01  0.7957747E-01            NaN
         13   -1    0    0    0    0  0.00000000000E+00  0.00000000000E+00  0.74505805969E-08  0.10566000000E+00  0.10566000000E+00 0.  1.
     999900   -1    0    0    0    0 -0.00000000000E+00 -0.00000000000E+00 -0.74505805969E-08  0.93827000000E+00  0.93827000000E+00 0. -1.
     999902    2    1    2    0    0  0.21323724275E-01  0.31159938383E-02 -0.10293981760E-01  0.10200474395E+01  0.10197678178E+01 0.  0.
     999903    2    3    3    0    0 -0.67563639593E-01  0.97829228062E-01  0.45308618872E-01  0.12877688049E+00  0.19879908132E-01 0.  0.
         14    1    1    2    0    0 -0.21323724275E-01 -0.31159938383E-02  0.10293981760E-01  0.23882560479E-01  0.00000000000E+00 0. -1.
     999901    1    3    3    0    0  0.88887363868E-01 -0.94713234223E-01 -0.55602600632E-01  0.89127055903E+00  0.88000000000E+00 0. -1.
        -11    1    4    4    0    0 -0.46799878568E-01  0.81578840215E-01  0.37739798248E-01  0.10134046229E+00  0.51100000000E-03 0. -1.
         11    1    4    4    0    0 -0.20763761025E-01  0.16250387847E-01  0.75688206247E-02  0.27436418201E-01  0.51100000000E-03 0.  1.
</event>
<event>
 8    1  0.1081309E+005  0.1043930E+01  0.7957747E-01            NaN
         13   -1    0    0    0    0  0.00000000000E+00  0.00000000000E+00  0.74505805969E-08  0.10566000000E+00  0.10566000000E+00 0.  1.
     999900   -1    0    0    0    0 -0.00000000000E+00 -0.00000000000E+00 -0.74505805969E-08  0.93827000000E+00  0.93827000000E+00 0. -1.
     999902    2    1    2    0    0 -0.19172258254E-01  0.42517890484E-04 -0.12391890816E-01  0.10211015911E+01  0.10208463759E+01 0.  0.
     999903    2    3    3    0    0  0.76555607212E-01 -0.40957211799E-01 -0.95467541284E-01  0.13107554331E+00  0.22988963049E-01 0.  0.
         14    1    1    2    0    0  0.19172258254E-01 -0.42517890484E-04  0.12391890816E-01  0.22828408887E-01  0.00000000000E+00 0. -1.
     999901    1    3    3    0    0 -0.95727865466E-01  0.40999729690E-01  0.83075650467E-01  0.89002604780E+00  0.88000000000E+00 0.  1.
        -11    1    4    4    0    0  0.61919310518E-01 -0.42453595010E-01 -0.78874265180E-01  0.10889315669E+00  0.51100000000E-03 0.  1.
         11    1    4    4    0    0  0.14636296694E-01  0.14963832107E-02 -0.16593276103E-01  0.22182386627E-01  0.51100000000E-03 0. -1.
</event>
<event>
 8    1  0.1081309E+005  0.1043930E+01  0.7957747E-01            NaN
         13   -1    0    0    0    0  0.00000000000E+00  0.00000000000E+00  0.74505805969E-08  0.10566000000E+00  0.10566000000E+00 0. -1.
     999900   -1    0    0    0    0 -0.00000000000E+00 -0.00000000000E+00 -0.74505805969E-08  0.93827000000E+00  0.93827000000E+00 0. -1.
     999902    2    1    2    0    0 -0.95402330677E-02  0.16214016025E-01  0.16719535310E-01  0.10187615033E+01  0.10184505621E+01 0.  0.
     999903    2    3    3    0    0 -0.11782459753E+00  0.52100941245E-01  0.16816383705E-01  0.13139833961E+00  0.19636421007E-01 0.  0.
         14    1    1    2    0    0  0.95402330677E-02 -0.16214016025E-01 -0.16719535310E-01  0.25168496650E-01  0.00000000000E+00 0.  1.
     999901    1    3    3    0    0  0.10828436446E+00 -0.35886925220E-01 -0.96848394885E-04  0.88736316374E+00  0.88000000000E+00 0.  1.
        -11    1    4    4    0    0 -0.57705779540E-01  0.31382068914E-01  0.16816475032E-01  0.67807419912E-01  0.51100000000E-03 0. -1.
         11    1    4    4    0    0 -0.60118817985E-01  0.20718872331E-01 -0.91327429619E-07  0.63590919695E-01  0.51100000000E-03 0.  1.
</event>
<event>
 8    1  0.1081309E+005  0.1043930E+01  0.7957747E-01            NaN
         13   -1    0    0    0    0  0.00000000000E+00  0.00000000000E+00  0.74505805969E-08  0.10566000000E+00  0.10566000000E+00 0.  1.
     999900   -1    0    0    0    0 -0.00000000000E+00 -0.00000000000E+00 -0.74505805969E-08  0.93827000000E+00  0.93827000000E+00 0.  1.
     999902    2    1    2    0    0  0.49268962051E-02  0.60011110240E-02 -0.24051827152E-01  0.10186559416E+01  0.10183423537E+01 0.  0.
     999903    2    3    3    0    0  0.10035872568E+00  0.61568315382E-01  0.45755635268E-01  0.12901105170E+00  0.26224835985E-01 0.  0.
         14    1    1    2    0    0 -0.49268962051E-02 -0.60011110240E-02  0.24051827152E-01  0.25274058421E-01  0.00000000000E+00 0.  1.
     999901    1    3    3    0    0 -0.95431829477E-01 -0.55567204358E-01 -0.69807462420E-01  0.88964488988E+00  0.88000000000E+00 0.  1.
        -11    1    4    4    0    0  0.16633081682E-01  0.10447163819E-01 -0.22825373184E-02  0.19780640427E-01  0.51100000000E-03 0.  1.
         11    1    4    4    0    0  0.83725644000E-01  0.51121151563E-01  0.48038172587E-01  0.10923041127E+00  0.51100000000E-03 0. -1.
</event>
<event>
 8    1  0.1081309E+005  0.1043930E+01  0.7957747E-01            NaN
         13   -1    0    0    0    0  0.00000000000E+00  0.00000000000E+00  0.74505805969E-08  0.10566000000E+00  0.10566000000E+00 0. -1.
     999900   -1    0    0    0    0 -0.00000000000E+00 -0.00000000000E+00 -0.74505805969E-08  0.93827000000E+00  0.93827000000E+00 0. -1.
     999902    2    1    2    0    0 -0.15913626281E-01 -0.10007350516E-01  0.14408754258E-01  0.10202445031E+01  0.10199695306E+01 0.  0.
     999903    2    3    3    0    0  0.88968813911E-01  0.15761200022E-01 -0.88120938531E-01  0.12773305644E+00  0.19661348497E-01 0.  0.
         14    1    1    2    0    0  0.15913626281E-01  0.10007350516E-01 -0.14408754258E-01  0.23685496935E-01  0.00000000000E+00 0.  1.
     999901    1    3    3    0    0 -0.10488244019E+00 -0.25768550538E-01  0.10252969279E+00  0.89251144663E+00  0.88000000000E+00 0.  1.
        -11    1    4    4    0    0  0.66251467374E-01  0.14865334816E-01 -0.76177984106E-01  0.10204695729E+00  0.51100000000E-03 0. -1.
         11    1    4    4    0    0  0.22717346537E-01  0.89586520575E-03 -0.11942954425E-01  0.25686099150E-01  0.51100000000E-03 0.  1.
</event>
<event>
 8    1  0.1081309E+005  0.1043930E+01  0.7957747E-01            NaN
         13   -1    0    0    0    0  0.00000000000E+00  0.00000000000E+00  0.74505805969E-08  0.10566000000E+00  0.10566000000E+00 0. -1.
     999900   -1    0    0    0    0 -0.00000000000E+00 -0.00000000000E+00 -0.74505805969E-08  0.93827000000E+00  0.93827000000E+00 0.  1.
     999902    2    1    2    0    0  0.14141897777E-01  0.14554298394E-01  0.75038110812E-02  0.10222937329E+01  0.10220647476E+01 0.  0.
     999903    2    3    3    0    0 -0.86788383445E-01  0.97860505759E-01  0.10383352255E-01  0.13261112789E+00  0.19209246410E-01 0.  0.
         14    1    1    2    0    0 -0.14141897777E-01 -0.14554298394E-01 -0.75038110812E-02  0.21636267128E-01  0.00000000000E+00 0. -1.
     999901    1    3    3    0    0  0.10093028122E+00 -0.83306207365E-01 -0.28795411739E-02  0.88968260498E+00  0.88000000000E+00 0. -1.
        -11    1    4    4    0    0 -0.47191150188E-01  0.60912293035E-01  0.14051829844E-01  0.78326414075E-01  0.51100000000E-03 0.  1.
         11    1    4    4    0    0 -0.39597233257E-01  0.36948212724E-01 -0.36684775892E-02  0.54284713814E-01  0.51100000000E-03 0. -1.
</event>
<event>
 8    1  0.1081309E+005  0.1043930E+01  0.7957747E-01            NaN
         13   -1    0    0    0    0  0.00000000000E+00  0.00000000000E+00  0.74505805969E-08  0.10566000000E+00  0.10566000000E+00 0.  1.
     999900   -1    0    0    0    0 -0.00000000000E+00 -0.00000000000E+00 -0.74505805969E-08  0.93827000000E+00  0.93827000000E+00 0. -1.
     999902    2    1    2    0    0 -0.15748322895E-01 -0.13071125900E-01  0.22251411403E-02  0.10233432261E+01  0.10231361313E+01 0.  0.
     999903    2    3    3    0    0 -0.93369210647E-01  0.48921744026E-01 -0.80377753983E-01  0.13391006031E+00  0.18978260744E-01 0.  0.
         14    1    1    2    0    0  0.15748322895E-01  0.13071125900E-01 -0.22251411403E-02  0.20586773894E-01  0.00000000000E+00 0.  1.
     999901    1    3    3    0    0  0.77620887752E-01 -0.61992869926E-01  0.82602895124E-01  0.88943316580E+00  0.88000000000E+00 0.  1.
        -11    1    4    4    0    0 -0.36390436129E-01  0.27853211926E-01 -0.28069080672E-01  0.53741973048E-01  0.51100000000E-03 0. -1.
         11    1    4    4    0    0 -0.56978774519E-01  0.21068532100E-01 -0.52308673311E-01  0.80168087261E-01  0.51100000000E-03 0.  1.
</event>
<event>
 8    1  0.1081309E+005  0.1043930E+01  0.7957747E-01            NaN
         13   -1    0    0    0    0  0.00000000000E+00  0.00000000000E+00  0.74505805969E-08  0.10566000000E+00  0.10566000000E+00 0. -1.
     999900   -1    0    0    0    0 -0.00000000000E+00 -0.00000000000E+00 -0.74505805969E-08  0.93827000000E+00  0.93827000000E+00 0. -1.
     999902    2    1    2    0    0  0.12950040540E-01 -0.17750876003E-01 -0.13568590563E-01  0.10181055194E+01  0.10177779447E+01 0.  0.
     999903    2    3    3    0    0  0.61533663105E-01  0.10301349254E+00  0.36772841824E-01  0.12710683201E+00  0.20142827723E-01 0.  0.
         14    1    1    2    0    0 -0.12950040540E-01  0.17750876003E-01  0.13568590563E-01  0.25824480609E-01  0.00000000000E+00 0. -1.
     999901    1    3    3    0    0 -0.48583622565E-01 -0.12076436854E+00 -0.50341432388E-01  0.89099868738E+00  0.88000000000E+00 0. -1.
        -11    1    4    4    0    0  0.22759423040E-01  0.24293978152E-01  0.15954985259E-01  0.36918984103E-01  0.51100000000E-03 0. -1.
         11    1    4    4    0    0  0.38774240065E-01  0.78719514388E-01  0.20817856565E-01  0.90187847912E-01  0.51100000000E-03 0.  1.
</event>
<event>
 8    1  0.1081309E+005  0.1043930E+01  0.7957747E-01            NaN
         13   -1    0    0    0    0  0.00000000000E+00  0.00000000000E+00  0.74505805969E-08  0.10566000000E+00  0.10566000000E+00 0. -1.
     999900   -1    0    0    0    0 -0.00000000000E+00 -0.00000000000E+00 -0.74505805969E-08  0.93827000000E+00  0.93827000000E+00 0.  1.
     999902    2    1    2    0    0 -0.17124455874E-01  0.15748580412E-01 -0.86351015540E-03  0.10206488827E+01  0.10203833257E+01 0.  0.
     999903    2    3    3    0    0  0.11547023569E+00  0.14216758046E-01  0.52608404695E-01  0.12910923443E+00  0.19132658775E-01 0.  0.
         14    1    1    2    0    0  0.17124455874E-01 -0.15748580412E-01  0.86351015540E-03  0.23281117322E-01  0.00000000000E+00 0.  1.
     999901    1    3    3    0    0 -0.13259469157E+00  0.15318223662E-02 -0.53471914850E-01  0.89153964824E+00  0.88000000000E+00 0.  1.
        -11    1    4    4    0    0  0.31581644136E-01 -0.28016458749E-02  0.85761982173E-02  0.32849075524E-01  0.51100000000E-03 0. -1.
         11    1    4    4    0    0  0.83888591555E-01  0.17018403921E-01  0.44032206478E-01  0.96260158910E-01  0.51100000000E-03 0.  1.
</event>
<event>
 8    1  0.1081309E+005  0.1043930E+01  0.7957747E-01            NaN
         13   -1    0    0    0    0  0.00000000000E+00  0.00000000000E+00  0.74505805969E-08  0.10566000000E+00  0.10566000000E+00 0. -1.
     999900   -1    0    0    0    0 -0.00000000000E+00 -0.00000000000E+00 -0.74505805969E-08  0.93827000000E+00  0.93827000000E+00 0.  1.
     999902    2    1    2    0    0  0.87695257532E-02  0.11111817893E-03  0.22487291277E-01  0.10197929911E+01  0.10195073072E+01 0.  0.
     999903    2    3    3    0    0  0.35509222894E-01 -0.89674636558E-01 -0.83288470795E-01  0.12852142475E+00  0.16683581759E-01 0.  0.
         14    1    1    2    0    0 -0.87695257532E-02 -0.11111817893E-03 -0.22487291277E-01  0.24137008891E-01  0.00000000000E+00 0.  1.
     999901    1    3    3    0    0 -0.26739697140E-01  0.89785754737E-01  0.10577576207E+00  0.89127156636E+00  0.88000000000E+00 0. -1.
        -11    1    4    4    0    0  0.14174531786E-01 -0.17361955751E-01 -0.21110445940E-01  0.30793942710E-01  0.51100000000E-03 0. -1.
         11    1    4    4    0    0  0.21334691108E-01 -0.72312680807E-01 -0.62178024856E-01  0.97727482041E-01  0.51100000000E-03 0.  1.
</event>
<event>
 8    1  0.1081309E+005  0.1043930E+01  0.7957747E-01            NaN
         13   -1    0    0    0    0  0.00000000000E+00  0.00000000000E+00  0.74505805969E-08  0.10566000000E+00  0.10566000000E+00 0. -1.
     999900   -1    0    0    0    0 -0.00000000000E+00 -0.00000000000E+00 -0.74505805969E-08  0.93827000000E+00  0.93827000000E+00 0. -1.
     999902    2    1    2    0    0 -0.13450297140E-01  0.13265982100E-01  0.25309835838E-01  0.10123470210E+01  0.10118542416E+01 0.  0.
     999903    2    3    3    0    0 -0.14790975034E-03  0.12193713166E+00  0.21457069030E-01  0.12555436422E+00  0.20852016896E-01 0.  0.
         14    1    1    2    0    0  0.13450297140E-01 -0.13265982100E-01 -0.25309835838E-01  0.31582979030E-01  0.00000000000E+00 0.  1.
     999901    1    3    3    0    0 -0.13302387390E-01 -0.10867114956E+00  0.38527668087E-02  0.88679265675E+00  0.88000000000E+00 0.  1.
        -11    1    4    4    0    0 -0.46733473212E-03  0.50896064917E-01  0.19425965762E-01  0.54481713378E-01  0.51100000000E-03 0.  1.
         11    1    4    4    0    0  0.31942498178E-03  0.71041066741E-01  0.20311032678E-02  0.71072650841E-01  0.51100000000E-03 0. -1.
</event>
<event>
 8    1  0.1081309E+005  0.1043930E+01  0.7957747E-01            NaN
         13   -1    0    0    0    0  0.00000000000E+00  0.00000000000E+00  0.74505805969E-08  0.10566000000E+00  0.10566000000E+00 0.  1.
     999900   -1    0    0    0    0 -0.00000000000E+00 -0.00000000000E+00 -0.74505805969E-08  0.93827000000E+00  0.93827000000E+00 0.  1.
     999902    2    1    2    0    0  0.18663881959E-01 -0.63691480545E-02  0.13343351057E-01  0.10201192555E+01  0.10198413327E+01 0.  0.
     999903    2    3    3    0    0  0.47950310248E-01  0.63485101401E-02 -0.11878465735E+00  0.12968270844E+00  0.19190471921E-01 0.  0.
         14    1    1    2    0    0 -0.18663881959E-01  0.63691480545E-02 -0.13343351057E-01  0.23810744510E-01  0.00000000000E+00 0. -1.
     999901    1    3    3    0    0 -0.29286428289E-01 -0.12717658195E-01  0.13212800841E+00  0.89043654705E+00  0.88000000000E+00 0. -1.
        -11    1    4    4    0    0  0.41729966105E-01  0.11519298429E-01 -0.91606147454E-01  0.10132142755E+00  0.51100000000E-03 0. -1.
         11    1    4    4    0    0  0.62203441433E-02 -0.51707882893E-02 -0.27178509898E-01  0.28361280897E-01  0.51100000000E-03 0.  1.
</event>
<event>
 8    1  0.1081309E+005  0.1043930E+01  0.7957747E-01            NaN
         13   -1    0    0    0    0  0.00000000000E+00  0.00000000000E+00  0.74505805969E-08  0.10566000000E+00  0.10566000000E+00 0. -1.
     999900   -1    0    0    0    0 -0.00000000000E+00 -0.00000000000E+00 -0.74505805969E-08  0.93827000000E+00  0.93827000000E+00 0.  1.
     999902    2    1    2    0    0  0.96090728001E-02  0.18952925701E-01 -0.11794546664E-01  0.10196265228E+01  0.10193368369E+01 0.  0.
     999903    2    3    3    0    0 -0.97703440116E-02  0.10389742938E+00  0.76359932244E-01  0.13094078383E+00  0.20603741506E-01 0.  0.
         14    1    1    2    0    0 -0.96090728001E-02 -0.18952925701E-01  0.11794546664E-01  0.24303477194E-01  0.00000000000E+00 0.  1.
     999901    1    3    3    0    0  0.19379416812E-01 -0.84944503682E-01 -0.88154478908E-01  0.88868573897E+00  0.88000000000E+00 0.  1.
        -11    1    4    4    0    0  0.56590911276E-02  0.36884364628E-01  0.22366119277E-01  0.43508459855E-01  0.51100000000E-03 0.  1.
         11    1    4    4    0    0 -0.15429435139E-01  0.67013064755E-01  0.53993812967E-01  0.87432323978E-01  0.51100000000E-03 0. -1.
</event>
<event>
 8    1  0.1081309E+005  0.1043930E+01  0.7957747E-01            NaN
         13   -1    0    0    0    0  0.00000000000E+00  0.00000000000E+00  0.74505805969E-08  0.10566000000E+00  0.10566000000E+00 0.  1.
     999900   -1    0    0    0    0 -0.00000000000E+00 -0.00000000000E+00 -0.74505805969E-08  0.93827000000E+00  0.93827000000E+00 0.  1.
     999902    2    1    2    0    0  0.16344943139E-01  0.17498301309E-02  0.11576675425E-01  0.10238243171E+01  0.10236268821E+01 0.  0.
     999903    2    3    3    0    0  0.19540610900E-01  0.17261729390E-01  0.13099491859E+00  0.13561738843E+00  0.23507542831E-01 0.  0.
         14    1    1    2    0    0 -0.16344943139E-01 -0.17498301309E-02 -0.11576675425E-01  0.20105682918E-01  0.00000000000E+00 0.  1.
     999901    1    3    3    0    0 -0.31956677612E-02 -0.15511899259E-01 -0.11941824317E+00  0.88820692866E+00  0.88000000000E+00 0.  1.
        -11    1    4    4    0    0 -0.24347162410E-02  0.12236800589E-01  0.50870870477E-01  0.52381043479E-01  0.51100000000E-03 0. -1.
         11    1    4    4    0    0  0.21975327141E-01  0.50249288015E-02  0.80124048118E-01  0.83236344948E-01  0.51100000000E-03 0.  1.
</event>
<event>
 8    1  0.1081309E+005  0.1043930E+01  0.7957747E-01            NaN
         13   -1    0    0    0    0  0.00000000000E+00  0.00000000000E+00  0.74505805969E-08  0.10566000000E+00  0.10566000000E+00 0.  1.
     999900   -1    0    0    0    0 -0.00000000000E+00 -0.00000000000E+00 -0.74505805969E-08  0.93827000000E+00  0.93827000000E+00 0.  1.
     999902    2    1    2    0    0 -0.23098407897E-01 -0.51920016923E-02 -0.25966902548E-03  0.10202538357E+01  0.10199790824E+01 0.  0.
     999903    2    3    3    0    0  0.11394259720E+00  0.35256932355E-01  0.41554463460E-01  0.12774905977E+00  0.19159386833E-01 0.  0.
         14    1    1    2    0    0  0.23098407897E-01  0.51920016923E-02  0.25966902548E-03  0.23676164321E-01  0.00000000000E+00 0. -1.
     999901    1    3    3    0    0 -0.13704100509E+00 -0.40448934047E-01 -0.41814132485E-01  0.89250477591E+00  0.88000000000E+00 0.  1.
        -11    1    4    4    0    0  0.48399110054E-01  0.20905498669E-01  0.26386396573E-01  0.58957754144E-01  0.51100000000E-03 0.  1.
         11    1    4    4    0    0  0.65543487144E-01  0.14351433685E-01  0.15168066887E-01  0.68791305628E-01  0.51100000000E-03 0. -1.
</event>
<event>
 7    1  0.1101623E+005  0.1043930E+01  0.7957747E-01            NaN
         13   -1    0    0    0    0  0.00000000000E+00  0.00000000000E+00  0.74505805969E-08  0.10566000000E+00  0.10566000000E+00 0.  1.
     999900   -1    0    0    0    0 -0.00000000000E+00 -0.00000000000E+00 -0.74505805969E-08  0.93827000000E+00  0.93827000000E+00 0.  1.
     999903    2    1    2    0    0  0.64111262260E-01 -0.84369507868E-01 -0.37707986395E-01  0.11424888167E+00  0.20061079669E-01 0.  0.
         14    1    1    2    0    0  0.13983970903E-01  0.42186218192E-01  0.26052114797E-02  0.44519833495E-01  0.00000000000E+00 0. -1.
     999901    1    1    2    0    0 -0.78095233163E-01  0.42183289676E-01  0.35102774916E-01  0.88516128484E+00  0.88000000000E+00 0. -1.
        -11    1    3    3    0    0  0.38367356042E-01 -0.47424329858E-01 -0.11290048782E-01  0.62039079576E-01  0.51100000000E-03 0.  1.
         11    1    3    3    0    0  0.25743906219E-01 -0.36945178010E-01 -0.26417937613E-01  0.52209802090E-01  0.51100000000E-03 0. -1.
</event>
<event>
 8    1  0.1081309E+005  0.1043930E+01  0.7957747E-01            NaN
         13   -1    0    0    0    0  0.00000000000E+00  0.00000000000E+00  0.74505805969E-08  0.10566000000E+00  0.10566000000E+00 0.  1.
     999900   -1    0    0    0    0 -0.00000000000E+00 -0.00000000000E+00 -0.74505805969E-08  0.93827000000E+00  0.93827000000E+00 0. -1.
     999902    2    1    2    0    0  0.16856789492E-02 -0.47940309429E-03  0.22718679102E-01  0.10211438261E+01  0.10208895650E+01 0.  0.
     999903    2    3    3    0    0  0.86283719195E-01 -0.58377989038E-01 -0.74780507622E-01  0.12984412001E+00  0.20359306919E-01 0.  0.
         14    1    1    2    0    0 -0.16856789492E-02  0.47940309429E-03 -0.22718679102E-01  0.22786173900E-01  0.00000000000E+00 0. -1.
     999901    1    3    3    0    0 -0.84598040246E-01  0.57898585943E-01  0.97499186724E-01  0.89129970609E+00  0.88000000000E+00 0.  1.
        -11    1    4    4    0    0  0.49059239376E-01 -0.32577274830E-01 -0.29773743198E-01  0.65991095676E-01  0.51100000000E-03 0. -1.
         11    1    4    4    0    0  0.37224479820E-01 -0.25800714208E-01 -0.45006764424E-01  0.63853024332E-01  0.51100000000E-03 0.  1.
</event>
<event>
 8    1  0.1081309E+005  0.1043930E+01  0.7957747E-01            NaN
         13   -1    0    0    0    0  0.00000000000E+00  0.00000000000E+00  0.74505805969E-08  0.10566000000E+00  0.10566000000E+00 0.  1.
     999900   -1    0    0    0    0 -0.00000000000E+00 -0.00000000000E+00 -0.74505805969E-08  0.93827000000E+00  0.93827000000E+00 0. -1.
     999902    2    1    2    0    0  0.76715692637E-02 -0.10720014376E-01  0.19374249662E-01  0.10204964080E+01  0.10202273205E+01 0.  0.
     999903    2    3    3    0    0  0.10554216272E+00 -0.68426071431E-01 -0.33268632364E-01  0.13163201166E+00  0.19972712160E-01 0.  0.
         14    1    1    2    0    0 -0.76715692637E-02  0.10720014376E-01 -0.19374249662E-01  0.23433591981E-01  0.00000000000E+00 0.  1.
     999901    1    3    3    0    0 -0.97870593458E-01  0.57706057056E-01  0.52642882026E-01  0.88886439636E+00  0.88000000000E+00 0.  1.
        -11    1    4    4    0    0  0.10393226208E+00 -0.62946930264E-01 -0.32910689317E-01  0.12588727388E+00  0.51100000000E-03 0.  1.
         11    1    4    4    0    0  0.16099006377E-02 -0.54791411670E-02 -0.35794304678E-03  0.57447377848E-02  0.51100000000E-03 0. -1.
</event>
<event>
 8    1  0.1081309E+005  0.1043930E+01  0.7957747E-01            NaN
         13   -1    0    0    0    0  0.00000000000E+00  0.00000000000E+00  0.74505805969E-08  0.10566000000E+00  0.10566000000E+00 0.  1.
     999900   -1    0    0    0    0 -0.00000000000E+00 -0.00000000000E+00 -0.74505805969E-08  0.93827000000E+00  0.93827000000E+00 0.  1.
     999902    2    1    2    0    0  0.18596515914E-01  0.25957626818E-03  0.13752661826E-01  0.10207992090E+01  0.10205371094E+01 0.  0.
     999903    2    3    3    0    0  0.67411185860E-01  0.22514996884E-01  0.11186714011E+00  0.13372275989E+00  0.17785567598E-01 0.  0.
         14    1    1    2    0    0 -0.18596515914E-01 -0.25957626818E-03 -0.13752661826E-01  0.23130790978E-01  0.00000000000E+00 0. -1.
     999901    1    3    3    0    0 -0.48814669946E-01 -0.22255420616E-01 -0.98114478279E-01  0.88707644913E+00  0.88000000000E+00 0.  1.
        -11    1    4    4    0    0  0.46209928088E-01  0.12429613317E-01  0.59693154283E-01  0.76507427942E-01  0.51100000000E-03 0. -1.
         11    1    4    4    0    0  0.21201257771E-01  0.10085383567E-01  0.52173985823E-01  0.57215331952E-01  0.51100000000E-03 0.  1.
</event>
<event>
 8    1  0.1081309E+005  0.1043930E+01  0.7957747E-01            NaN
         13   -1    0    0    0    0  0.00000000000E+00  0.00000000000E+00  0.74505805969E-08  0.10566000000E+00  0.10566000000E+00 0. -1.
     999900   -1    0    0    0    0 -0.00000000000E+00 -0.00000000000E+00 -0.74505805969E-08  0.93827000000E+00  0.93827000000E+00 0.  1.
     999902    2    1    2    0    0  0.13479421620E-01 -0.16719633439E-03  0.18831348846E-01  0.10207709313E+01  0.10205081831E+01 0.  0.
     999903    2    3    3    0    0 -0.91441382353E-02 -0.96932191209E-01 -0.82993973965E-01  0.12934303966E+00  0.19030429272E-01 0.  0.
         14    1    1    2    0    0 -0.13479421620E-01  0.16719633439E-03 -0.18831348846E-01  0.23159068659E-01  0.00000000000E+00 0.  1.
     999901    1    3    3    0    0  0.22623559855E-01  0.96764994875E-01  0.10182532281E+00  0.89142789168E+00  0.88000000000E+00 0. -1.
        -11    1    4    4    0    0 -0.57329095288E-02 -0.11372716036E-01 -0.56026653522E-02  0.13923214491E-01  0.51100000000E-03 0.  1.
         11    1    4    4    0    0 -0.34112287064E-02 -0.85559475173E-01 -0.77391308613E-01  0.11541982517E+00  0.51100000000E-03 0. -1.
</event>
<event>
 8    1  0.1081309E+005  0.1043930E+01  0.7957747E-01            NaN
         13   -1    0    0    0    0  0.00000000000E+00  0.00000000000E+00  0.74505805969E-08  0.10566000000E+00  0.10566000000E+00 0. -1.
     999900   -1    0    0    0    0 -0.00000000000E+00 -0.00000000000E+00 -0.74505805969E-08  0.93827000000E+00  0.93827000000E+00 0.  1.
     999902    2    1    2    0    0  0.20075435428E-01 -0.11772824013E-02 -0.11569788939E-01  0.10207293725E+01  0.10204656695E+01 0.  0.
     999903    2    3    3    0    0  0.25481349952E-01 -0.12700316108E+00  0.10418633062E-01  0.13149100940E+00  0.20055810088E-01 0.  0.
         14    1    1    2    0    0 -0.20075435428E-01  0.11772824013E-02  0.11569788939E-01  0.23200627525E-01  0.00000000000E+00 0.  1.
     999901    1    3    3    0    0 -0.54059145240E-02  0.12582587868E+00 -0.21988422001E-01  0.88923836307E+00  0.88000000000E+00 0.  1.
        -11    1    4    4    0    0  0.20962411771E-01 -0.94016094754E-01 -0.87153540539E-03  0.96330002984E-01  0.51100000000E-03 0.  1.
         11    1    4    4    0    0  0.45189381807E-02 -0.32987066329E-01  0.11290168467E-01  0.35161006418E-01  0.51100000000E-03 0. -1.
</event>
<event>
 8    1  0.1081309E+005  0.1043930E+01  0.7957747E-01            NaN
         13   -1    0    0    0    0  0.00000000000E+00  0.00000000000E+00  0.74505805969E-08  0.10566000000E+00  0.10566000000E+00 0.  1.
     999900   -1    0    0    0    0 -0.00000000000E+00 -0.00000000000E+00 -0.74505805969E-08  0.93827000000E+00  0.93827000000E+00 0.  1.
     999902    2    1    2    0    0 -0.15771940052E-02  0.52053238623E-02  0.23494937745E-01  0.10198137184E+01  0.10195285309E+01 0.  0.
     999903    2    3    3    0    0 -0.81046885573E-01 -0.58891700715E-01  0.83310736070E-01  0.13189379514E+00  0.20456401867E-01 0.  0.
         14    1    1    2    0    0  0.15771940052E-02 -0.52053238623E-02 -0.23494937745E-01  0.24116281576E-01  0.00000000000E+00 0. -1.
     999901    1    3    3    0    0  0.79469691567E-01  0.64097024577E-01 -0.59815798326E-01  0.88791992329E+00  0.88000000000E+00 0.  1.
        -11    1    4    4    0    0 -0.23570984165E-01 -0.13611773436E-01  0.12102259388E-01  0.29792574140E-01  0.51100000000E-03 0. -1.
         11    1    4    4    0    0 -0.57475901407E-01 -0.45279927279E-01  0.71208476682E-01  0.10210122100E+00  0.51100000000E-03 0.  1.
</event>
<event>
 8    1  0.1081309E+005  0.1043930E+01  0.7957747E-01            NaN
         13   -1    0    0    0    0  0.00000000000E+00  0.00000000000E+00  0.74505805969E-08  0.10566000000E+00  0.10566000000E+00 0. -1.
     999900   -1    0    0    0    0 -0.00000000000E+00 -0.00000000000E+00 -0.74505805969E-08  0.93827000000E+00  0.93827000000E+00 0.  1.
     999902    2    1    2    0    0 -0.31651855577E-02 -0.23558452741E-01  0.16330207903E-03  0.10201593087E+01  0.10198823312E+01 0.  0.
     999903    2    3    3    0    0  0.54787400538E-01 -0.91439725242E-02  0.11633560386E+00  0.13051764876E+00  0.20386574575E-01 0.  0.
         14    1    1    2    0    0  0.31651855577E-02  0.23558452741E-01 -0.16330207903E-03  0.23770691255E-01  0.00000000000E+00 0.  1.
     999901    1    3    3    0    0 -0.57952586096E-01 -0.14414480217E-01 -0.11617230178E+00  0.88964165998E+00  0.88000000000E+00 0.  1.
        -11    1    4    4    0    0  0.46417625990E-01 -0.11544963676E-01  0.80534701093E-01  0.93669532880E-01  0.51100000000E-03 0.  1.
         11    1    4    4    0    0  0.83697745485E-02  0.24009911519E-02  0.35800902763E-01  0.36848115884E-01  0.51100000000E-03 0. -1.
</event>
<event>
 8    1  0.1081309E+005  0.1043930E+01  0.7957747E-01            NaN
         13   -1    0    0    0    0  0.00000000000E+00  0.00000000000E+00  0.74505805969E-08  0.10566000000E+00  0.10566000000E+00 0. -1.
     999900   -1    0    0    0    0 -0.00000000000E+00 -0.00000000000E+00 -0.74505805969E-08  0.93827000000E+00  0.93827000000E+00 0.  1.
     999902    2    1    2    0    0  0.94255866676E-02 -0.75546212637E-02 -0.20855865720E-01  0.10198285245E+01  0.10195436912E+01 0.  0.
     999903    2    3    3    0    0  0.17424791333E-01 -0.11813064382E-01  0.12442524135E+00  0.12787072186E+00  0.20642407361E-01 0.  0.
         14    1    1    2    0    0 -0.94255866676E-02  0.75546212637E-02  0.20855865720E-01  0.24101475502E-01  0.00000000000E+00 0. -1.
     999901    1    3    3    0    0 -0.79992046650E-02  0.42584431185E-02 -0.14528110707E+00  0.89195780264E+00  0.88000000000E+00 0.  1.
        -11    1    4    4    0    0  0.87070930829E-02 -0.10801156509E-01  0.11072870763E+00  0.11159563731E+00  0.51100000000E-03 0.  1.
         11    1    4    4    0    0  0.87176982497E-02 -0.10119078734E-02  0.13696533721E-01  0.16275084555E-01  0.51100000000E-03 0. -1.
</event>
<event>
 8    1  0.1081309E+005  0.1043930E+01  0.7957747E-01            NaN
         13   -1    0    0    0    0  0.00000000000E+00  0.00000000000E+00  0.74505805969E-08  0.10566000000E+00  0.10566000000E+00 0.  1.
     999900   -1    0    0    0    0 -0.00000000000E+00 -0.00000000000E+00 -0.74505805969E-08  0.93827000000E+00  0.93827000000E+00 0.  1.
     999902    2    1    2    0    0 -0.18338872526E-01 -0.12124208023E-01 -0.86590669677E-02  0.10203018366E+01  0.10200282092E+01 0.  0.
     999903    2    3    3    0    0  0.55734791170E-02 -0.13034045435E+00 -0.56351087223E-02  0.13206987038E+00  0.19773682100E-01 0.  0.
         14    1    1    2    0    0  0.18338872526E-01  0.12124208023E-01  0.86590669677E-02  0.23628163417E-01  0.00000000000E+00 0.  1.
     999901    1    3    3    0    0 -0.23912351643E-01  0.11821624632E+00 -0.30239582455E-02  0.88823196620E+00  0.88000000000E+00 0.  1.
        -11    1    4    4    0    0  0.60908492135E-02 -0.58674973921E-01 -0.11710841438E-01  0.60143627568E-01  0.51100000000E-03 0.  1.
         11    1    4    4    0    0 -0.51737009654E-03 -0.71665480426E-01  0.60757327161E-02  0.71926242816E-01  0.51100000000E-03 0. -1.
</event>
<event>
 8    1  0.1081309E+005  0.1043930E+01  0.7957747E-01            NaN
         13   -1    0    0    0    0  0.00000000000E+00  0.00000000000E+00  0.74505805969E-08  0.10566000000E+00  0.10566000000E+00 0. -1.
     999900   -1    0    0    0    0 -0.00000000000E+00 -0.00000000000E+00 -0.74505805969E-08  0.93827000000E+00  0.93827000000E+00 0. -1.
     999902    2    1    2    0    0  0.18981006636E-01 -0.10620377365E-01 -0.24981336527E-01  0.10108069234E+01  0.10102640735E+01 0.  0.
     999903    2    3    3    0    0 -0.45356079262E-01 -0.58750159347E-01 -0.95537543357E-01  0.12433418561E+00  0.28684706230E-01 0.  0.
         14    1    1    2    0    0 -0.18981006636E-01  0.10620377365E-01  0.24981336527E-01  0.33123076593E-01  0.00000000000E+00 0. -1.
     999901    1    3    3    0    0  0.64337085898E-01  0.48129781982E-01  0.70556206830E-01  0.88647273780E+00  0.88000000000E+00 0.  1.
        -11    1    4    4    0    0 -0.15723246840E-01 -0.43423308157E-01 -0.56845108110E-01  0.73242280272E-01  0.51100000000E-03 0. -1.
         11    1    4    4    0    0 -0.29632832422E-01 -0.15326851190E-01 -0.38692435247E-01  0.51091905338E-01  0.51100000000E-03 0.  1.
</event>
<event>
 8    1  0.1081309E+005  0.1043930E+01  0.7957747E-01            NaN
         13   -1    0    0    0    0  0.00000000000E+00  0.00000000000E+00  0.74505805969E-08  0.10566000000E+00  0.10566000000E+00 0.  1.
     999900   -1    0    0    0    0 -0.00000000000E+00 -0.00000000000E+00 -0.74505805969E-08  0.93827000000E+00  0.93827000000E+00 0.  1.
     999902    2    1    2    0    0  0.44372511027E-02 -0.15093036266E-01  0.17836641646E-01  0.10201469235E+01  0.10198696539E+01 0.  0.
     999903    2    3    3    0    0 -0.95529172088E-01  0.73036913566E-01 -0.38279517848E-01  0.12834582621E+00  0.23390514243E-01 0.  0.
         14    1    1    2    0    0 -0.44372511027E-02  0.15093036266E-01 -0.17836641646E-01  0.23783076468E-01  0.00000000000E+00 0. -1.
     999901    1    3    3    0    0  0.99966423191E-01 -0.88129949832E-01  0.56116159494E-01  0.89180109732E+00  0.88000000000E+00 0. -1.
        -11    1    4    4    0    0 -0.64896603498E-01  0.54298252359E-01 -0.37153913408E-01  0.92415062395E-01  0.51100000000E-03 0. -1.
         11    1    4    4    0    0 -0.30632568590E-01  0.18738661207E-01 -0.11256044403E-02  0.35930763819E-01  0.51100000000E-03 0.  1.
</event>
<event>
 8    1  0.1081309E+005  0.1043930E+01  0.7957747E-01            NaN
         13   -1    0    0    0    0  0.00000000000E+00  0.00000000000E+00  0.74505805969E-08  0.10566000000E+00  0.10566000000E+00 0.  1.
     999900   -1    0    0    0    0 -0.00000000000E+00 -0.00000000000E+00 -0.74505805969E-08  0.93827000000E+00  0.93827000000E+00 0. -1.
     999902    2    1    2    0    0 -0.21515869915E-01  0.40512857587E-02 -0.73985956966E-02  0.10208197254E+01  0.10205580958E+01 0.  0.
     999903    2    3    3    0    0 -0.55678929406E-01  0.88655004341E-01  0.78073925191E-01  0.13198315117E+00  0.19083014016E-01 0.  0.
         14    1    1    2    0    0  0.21515869915E-01 -0.40512857587E-02  0.73985956966E-02  0.23110274615E-01  0.00000000000E+00 0.  1.
     999901    1    3    3    0    0  0.34163059490E-01 -0.84603718582E-01 -0.85472520888E-01  0.88883657421E+00  0.88000000000E+00 0. -1.
        -11    1    4    4    0    0 -0.25853929788E-01  0.48870719094E-01  0.30401434231E-01  0.63097394515E-01  0.51100000000E-03 0.  1.
         11    1    4    4    0    0 -0.29824999617E-01  0.39784285247E-01  0.47672490961E-01  0.68885756657E-01  0.51100000000E-03 0. -1.
</event>
<event>
 8    1  0.1081309E+005  0.1043930E+01  0.7957747E-01            NaN
         13   -1    0    0    0    0  0.00000000000E+00  0.00000000000E+00  0.74505805969E-08  0.10566000000E+00  0.10566000000E+00 0.  1.
     999900   -1    0    0    0    0 -0.00000000000E+00 -0.00000000000E+00 -0.74505805969E-08  0.93827000000E+00  0.93827000000E+00 0.  1.
     999902    2    1    2    0    0  0.18938715462E-01  0.90580766084E-02  0.11709162183E-01  0.10198919432E+01  0.10196086247E+01 0.  0.
     999903    2    3    3    0    0 -0.76777523054E-01  0.10027089196E+00  0.22424220594E-01  0.12995026620E+00  0.20861116828E-01 0.  0.
         14    1    1    2    0    0 -0.18938715462E-01 -0.90580766084E-02 -0.11709162183E-01  0.24038056790E-01  0.00000000000E+00 0. -1.
     999901    1    3    3    0    0  0.95716238516E-01 -0.91212815355E-01 -0.10715058411E-01  0.88994167701E+00  0.88000000000E+00 0. -1.
        -11    1    4    4    0    0 -0.33779018045E-01  0.31688074440E-01  0.14881943153E-01  0.48650688328E-01  0.51100000000E-03 0.  1.
         11    1    4    4    0    0 -0.42998505009E-01  0.68582817523E-01  0.75422774405E-02  0.81299577874E-01  0.51100000000E-03 0. -1.
</event>
<event>
 8    1  0.1081309E+005  0.1043930E+01  0.7957747E-01            NaN
         13   -1    0    0    0    0  0.00000000000E+00  0.00000000000E+00  0.74505805969E-08  0.10566000000E+00  0.10566000000E+00 0. -1.
     999900   -1    0    0    0    0 -0.00000000000E+00 -0.00000000000E+00 -0.74505805969E-08  0.93827000000E+00  0.93827000000E+00 0. -1.
     999902    2    1    2    0    0 -0.55182635253E-02 -0.20720943569E-01 -0.10167236455E-01  0.10201985561E+01  0.10199225031E+01 0.  0.
     999903    2    3    3    0    0 -0.11995787941E+00  0.40383356075E-01  0.21969900846E-01  0.13010701204E+00  0.20602178482E-01 0.  0.
         14    1    1    2    0    0  0.55182635253E-02  0.20720943569E-01  0.10167236455E-01  0.23731443948E-01  0.00000000000E+00 0. -1.
     999901    1    3    3    0    0  0.11443961589E+00 -0.61104299645E-01 -0.32137137302E-01  0.89009154401E+00  0.88000000000E+00 0.  1.
        -11    1    4    4    0    0 -0.81487598185E-01  0.36944834971E-01  0.12558927267E-01  0.90350081705E-01  0.51100000000E-03 0.  1.
         11    1    4    4    0    0 -0.38470281230E-01  0.34385211046E-02  0.94109735787E-02  0.39756930339E-01  0.51100000000E-03 0. -1.
</event>
<event>
 8    1  0.1081309E+005  0.1043930E+01  0.7957747E-01            NaN
         13   -1    0    0    0    0  0.00000000000E+00  0.00000000000E+00  0.74505805969E-08  0.10566000000E+00  0.10566000000E+00 0.  1.
     999900   -1    0    0    0    0 -0.00000000000E+00 -0.00000000000E+00 -0.74505805969E-08  0.93827000000E+00  0.93827000000E+00 0. -1.
     999902    2    1    2    0    0 -0.15407831029E-01  0.17263948923E-01 -0.51223279399E-02  0.10202301385E+01  0.10199548285E+01 0.  0.
     999903    2    3    3    0    0 -0.76129620006E-02  0.12909687334E+00  0.21810273517E-01  0.13270958780E+00  0.20302383321E-01 0.  0.
         14    1    1    2    0    0  0.15407831029E-01 -0.17263948923E-01  0.51223279399E-02  0.23699861455E-01  0.00000000000E+00 0.  1.
     999901    1    3    3    0    0 -0.77948690283E-02 -0.11183292441E+00 -0.26932601457E-01  0.88752055074E+00  0.88000000000E+00 0. -1.
        -11    1    4    4    0    0 -0.12816546528E-01  0.55638086999E-01  0.12812118432E-01  0.58517280264E-01  0.51100000000E-03 0.  1.
         11    1    4    4    0    0  0.52035845275E-02  0.73458786338E-01  0.89981550854E-02  0.74192307541E-01  0.51100000000E-03 0. -1.
</event>
<event>
 8    1  0.1081309E+005  0.1043930E+01  0.7957747E-01            NaN
         13   -1    0    0    0    0  0.00000000000E+00  0.00000000000E+00  0.74505805969E-08  0.10566000000E+00  0.10566000000E+00 0.  1.
     999900   -1    0    0    0    0 -0.00000000000E+00 -0.00000000000E+00 -0.74505805969E-08  0.93827000000E+00  0.93827000000E+00 0.  1.
     999902    2    1    2    0    0  0.12507750876E-01  0.38136436237E-02  0.18954447084E-01  0.10209026516E+01  0.10206429176E+01 0.  0.
     999903    2    3    3    0    0  0.70494182729E-01 -0.75408508211E-01  0.81628774268E-01  0.13322779734E+00  0.20748886361E-01 0.  0.
         14    1    1    2    0    0 -0.12507750876E-01 -0.38136436237E-02 -0.18954447084E-01  0.23027348391E-01  0.00000000000E+00 0. -1.
     999901    1    3    3    0    0 -0.57986431852E-01  0.79222151835E-01 -0.62674327184E-01  0.88767485427E+00  0.88000000000E+00 0. -1.
        -11    1    4    4    0    0  0.48331566893E-01 -0.55554444368E-01  0.46080556180E-01  0.86867228724E-01  0.51100000000E-03 0. -1.
         11    1    4    4    0    0  0.22162615835E-01 -0.19854063843E-01  0.35548218088E-01  0.46360568611E-01  0.51100000000E-03 0.  1.
</event>
<event>
 8    1  0.1081309E+005  0.1043930E+01  0.7957747E-01            NaN
         13   -1    0    0    0    0  0.00000000000E+00  0.00000000000E+00  0.74505805969E-08  0.10566000000E+00  0.10566000000E+00 0.  1.
     999900   -1    0    0    0    0 -0.00000000000E+00 -0.00000000000E+00 -0.74505805969E-08  0.93827000000E+00  0.93827000000E+00 0. -1.
     999902    2    1    2    0    0  0.71854704112E-02  0.18252386479E-01  0.13041834549E-01  0.10203743203E+01  0.10201023887E+01 0.  0.
     999903    2    3    3    0    0  0.74292710068E-02  0.71293867657E-01 -0.10731108225E+00  0.13060003278E+00  0.20067151165E-01 0.  0.
         14    1    1    2    0    0 -0.71854704112E-02 -0.18252386479E-01 -0.13041834549E-01  0.23555679689E-01  0.00000000000E+00 0. -1.
     999901    1    3    3    0    0 -0.24380059555E-03 -0.53041481178E-01  0.12035291680E+00  0.88977428753E+00  0.88000000000E+00 0.  1.
        -11    1    4    4    0    0  0.91872183350E-02  0.21536539525E-01 -0.23926227764E-01  0.33480636366E-01  0.51100000000E-03 0. -1.
         11    1    4    4    0    0 -0.17579473282E-02  0.49757328132E-01 -0.83384854487E-01  0.97119396417E-01  0.51100000000E-03 0.  1.
</event>
<event>
 8    1  0.1081309E+005  0.1043930E+01  0.7957747E-01            NaN
         13   -1    0    0    0    0  0.00000000000E+00  0.00000000000E+00  0.74505805969E-08  0.10566000000E+00  0.10566000000E+00 0.  1.
     999900   -1    0    0    0    0 -0.00000000000E+00 -0.00000000000E+00 -0.74505805969E-08  0.93827000000E+00  0.93827000000E+00 0.  1.
     999902    2    1    2    0    0  0.90653579328E-02  0.96567694919E-02  0.19769303161E-01  0.10201337974E+01  0.10198562180E+01 0.  0.
     999903    2    3    3    0    0  0.10042665079E+00  0.35702265758E-01  0.77237044413E-01  0.13315702486E+00  0.20126307938E-01 0.  0.
         14    1    1    2    0    0 -0.90653579328E-02 -0.96567694919E-02 -0.19769303161E-01  0.23796202616E-01  0.00000000000E+00 0. -1.
     999901    1    3    3    0    0 -0.91361292858E-01 -0.26045496266E-01 -0.57467741252E-01  0.88697677252E+00  0.88000000000E+00 0. -1.
        -11    1    4    4    0    0  0.56332880570E-01  0.30442945846E-01  0.46976460538E-01  0.79417978763E-01  0.51100000000E-03 0. -1.
         11    1    4    4    0    0  0.44093770221E-01  0.52593199120E-02  0.30260583875E-01  0.53739046099E-01  0.51100000000E-03 0.  1.
</event>
<event>
 8    1  0.1081309E+005  0.1043930E+01  0.7957747E-01            NaN
         13   -1    0    0    0    0  0.00000000000E+00  0.00000000000E+00  0.74505805969E-08  0.10566000000E+00  0.10566000000E+00 0.  1.
     999900   -1    0    0    0    0 -0.00000000000E+00 -0.00000000000E+00 -0.74505805969E-08  0.93827000000E+00  0.93827000000E+00 0.  1.
     999902    2    1    2    0    0  0.39252831209E-02  0.34292227903E-02  0.22992737336E-01  0.10203538810E+01  0.10200814718E+01 0.  0.
     999903    2    3    3    0    0  0.81766720921E-01  0.99766000690E-01 -0.55495952293E-02  0.13122243462E+00  0.23440942717E-01 0.  0.
         14    1    1    2    0    0 -0.39252831209E-02 -0.34292227903E-02 -0.22992737336E-01  0.23576118992E-01  0.00000000000E+00 0. -1.
     999901    1    3    3    0    0 -0.77841437800E-01 -0.96336777900E-01  0.28542332566E-01  0.88913144639E+00  0.88000000000E+00 0. -1.
        -11    1    4    4    0    0  0.30169121061E-01  0.53597115438E-01  0.22287188721E-02  0.61547176683E-01  0.51100000000E-03 0. -1.
         11    1    4    4    0    0  0.51597599860E-01  0.46168885252E-01 -0.77783141014E-02  0.69675257933E-01  0.51100000000E-03 0.  1.
</event>
<event>
 8    1  0.1081309E+005  0.1043930E+01  0.7957747E-01            NaN
         13   -1    0    0    0    0  0.00000000000E+00  0.00000000000E+00  0.74505805969E-08  0.10566000000E+00  0.10566000000E+00 0.  1.
     999900   -1    0    0    0    0 -0.00000000000E+00 -0.00000000000E+00 -0.74505805969E-08  0.93827000000E+00  0.93827000000E+00 0. -1.
     999902    2    1    2    0    0  0.10548007384E-01  0.20285073946E-01  0.90120796674E-02  0.10193543563E+01  0.10190580658E+01 0.  0.
     999903    2    3    3    0    0  0.37665842602E-02  0.61400290568E-01  0.11507352705E+00  0.13200691622E+00  0.19993160429E-01 0.  0.
         14    1    1    2    0    0 -0.10548007384E-01 -0.20285073946E-01 -0.90120796674E-02  0.24575643729E-01  0.00000000000E+00 0. -1.
     999901    1    3    3    0    0  0.67814231241E-02 -0.41115216621E-01 -0.10606144738E+00  0.88734744005E+00  0.88000000000E+00 0. -1.
        -11    1    4    4    0    0 -0.17927911367E-02  0.48288888416E-01  0.72653531541E-01  0.87257249618E-01  0.51100000000E-03 0.  1.
         11    1    4    4    0    0  0.55593753969E-02  0.13111402152E-01  0.42419995511E-01  0.44749666606E-01  0.51100000000E-03 0. -1.
</event>
<event>
 8    1  0.1081309E+005  0.1043930E+01  0.7957747E-01            NaN
         13   -1    0    0    0    0  0.00000000000E+00  0.00000000000E+00  0.74505805969E-08  0.10566000000E+00  0.10566000000E+00 0.  1.
     999900   -1    0    0    0    0 -0.00000000000E+00 -0.00000000000E+00 -0.74505805969E-08  0.93827000000E+00  0.93827000000E+00 0.  1.
     999902    2    1    2    0    0  0.53470813368E-02  0.10896342488E-01 -0.18702468829E-01  0.10216341731E+01  0.10213908555E+01 0.  0.
     999903    2    3    3    0    0 -0.32808051368E-01  0.38675344765E-01  0.11787328545E+00  0.12984920808E+00  0.19863405771E-01 0.  0.
         14    1    1    2    0    0 -0.53470813368E-02 -0.10896342488E-01  0.18702468829E-01  0.22295826936E-01  0.00000000000E+00 0.  1.
     999901    1    3    3    0    0  0.38155132705E-01 -0.27779002277E-01 -0.13657575428E+00  0.89178496499E+00  0.88000000000E+00 0.  1.
        -11    1    4    4    0    0 -0.68532726959E-02  0.14374133516E-01  0.58603781530E-01  0.60730942621E-01  0.51100000000E-03 0.  1.
         11    1    4    4    0    0 -0.25954778672E-01  0.24301211249E-01  0.59269503918E-01  0.69118265457E-01  0.51100000000E-03 0. -1.
</event>
<event>
 8    1  0.1081309E+005  0.1043930E+01  0.7957747E-01            NaN
         13   -1    0    0    0    0  0.00000000000E+00  0.00000000000E+00  0.74505805969E-08  0.10566000000E+00  0.10566000000E+00 0.  1.
     999900   -1    0    0    0    0 -0.00000000000E+00 -0.00000000000E+00 -0.74505805969E-08  0.93827000000E+00  0.93827000000E+00 0. -1.
     999902    2    1    2    0    0 -0.46282741846E-02 -0.14452809309E-01  0.17014044936E-01  0.10211312644E+01  0.10208767197E+01 0.  0.
     999903    2    3    3    0    0 -0.73698588680E-01  0.83277528566E-02  0.10922136195E+00  0.13332956828E+00  0.18618121016E-01 0.  0.
         14    1    1    2    0    0  0.46282741846E-02  0.14452809309E-01 -0.17014044936E-01  0.22798735577E-01  0.00000000000E+00 0. -1.
     999901    1    3    3    0    0  0.69070314496E-01 -0.22780562165E-01 -0.92207317019E-01  0.88780169614E+00  0.88000000000E+00 0. -1.
        -11    1    4    4    0    0 -0.19718803404E-01 -0.30545517468E-02  0.18880358124E-01  0.27475271390E-01  0.51100000000E-03 0.  1.
         11    1    4    4    0    0 -0.53979785276E-01  0.11382304603E-01  0.90341003831E-01  0.10585429689E+00  0.51100000000E-03 0. -1.
</event>
<event>
 8    1  0.1081309E+005  0.1043930E+01  0.7957747E-01            NaN
         13   -1    0    0    0    0  0.00000000000E+00  0.00000000000E+00  0.74505805969E-08  0.10566000000E+00  0.10566000000E+00 0.  1.
     999900   -1    0    0    0    0 -0.00000000000E+00 -0.00000000000E+00 -0.74505805969E-08  0.93827000000E+00  0.93827000000E+00 0. -1.
     999902    2    1    2    0    0 -0.11042708883E-01  0.12671623498E-01 -0.14888156920E-01  0.10214762992E+01  0.10212294851E+01 0.  0.
     999903    2    3    3    0    0  0.40420307367E-01 -0.18506550114E-01  0.11960158234E+00  0.12922744913E+00  0.20467082480E-01 0.  0.
         14    1    1    2    0    0  0.11042708883E-01 -0.12671623498E-01  0.14888156920E-01  0.22453700765E-01  0.00000000000E+00 0.  1.
     999901    1    3    3    0    0 -0.51463016250E-01  0.31178173612E-01 -0.13448973926E+00  0.89224885011E+00  0.88000000000E+00 0. -1.
        -11    1    4    4    0    0  0.39743175344E-01 -0.16962688557E-01  0.92807416753E-01  0.10237543902E+00  0.51100000000E-03 0.  1.
         11    1    4    4    0    0  0.67713202296E-03 -0.15438615576E-02  0.26794165586E-01  0.26852010106E-01  0.51100000000E-03 0. -1.
</event>
<event>
 8    1  0.1081309E+005  0.1043930E+01  0.7957747E-01            NaN
         13   -1    0    0    0    0  0.00000000000E+00  0.00000000000E+00  0.74505805969E-08  0.10566000000E+00  0.10566000000E+00 0. -1.
     999900   -1    0    0    0    0 -0.00000000000E+00 -0.00000000000E+00 -0.74505805969E-08  0.93827000000E+00  0.93827000000E+00 0. -1.
     999902    2    1    2    0    0  0.23699307407E-01 -0.34279899003E-02  0.22275721343E-02  0.10198806681E+01  0.10195970806E+01 0.  0.
     999903    2    3    3    0    0  0.50389647723E-01 -0.11820273559E+00  0.22216703399E-01  0.13180117737E+00  0.19156334443E-01 0.  0.
         14    1    1    2    0    0 -0.23699307407E-01  0.34279899003E-02 -0.22275721343E-02  0.24049331881E-01  0.00000000000E+00 0. -1.
     999901    1    3    3    0    0 -0.26690340316E-01  0.11477474569E+00 -0.19989131265E-01  0.88807949075E+00  0.88000000000E+00 0. -1.
        -11    1    4    4    0    0  0.36387559321E-01 -0.95621317374E-01  0.24255522520E-01  0.10514790679E+00  0.51100000000E-03 0. -1.
         11    1    4    4    0    0  0.14002088402E-01 -0.22581418213E-01 -0.20388191212E-02  0.26653270579E-01  0.51100000000E-03 0.  1.
</event>
<event>
 8    1  0.1081309E+005  0.1043930E+01  0.7957747E-01            NaN
         13   -1    0    0    0    0  0.00000000000E+00  0.00000000000E+00  0.74505805969E-08  0.10566000000E+00  0.10566000000E+00 0.  1.
     999900   -1    0    0    0    0 -0.00000000000E+00 -0.00000000000E+00 -0.74505805969E-08  0.93827000000E+00  0.93827000000E+00 0.  1.
     999902    2    1    2    0    0 -0.11216179422E-01  0.97836466595E-02 -0.30165021788E-01  0.10102929525E+01  0.10097328354E+01 0.  0.
     999903    2    3    3    0    0  0.20596744269E-01  0.85546148488E-01  0.78770646699E-01  0.11977681081E+00  0.19982498125E-01 0.  0.
         14    1    1    2    0    0  0.11216179422E-01 -0.97836466595E-02  0.30165021788E-01  0.33637047467E-01  0.00000000000E+00 0.  1.
     999901    1    3    3    0    0 -0.31812923691E-01 -0.75762501829E-01 -0.10893566849E+00  0.89051614172E+00  0.88000000000E+00 0.  1.
        -11    1    4    4    0    0  0.10304706540E-01  0.72357260708E-01  0.59446317194E-01  0.94211920175E-01  0.51100000000E-03 0.  1.
         11    1    4    4    0    0  0.10292037729E-01  0.13188887780E-01  0.19324329505E-01  0.25564890638E-01  0.51100000000E-03 0. -1.
</event>
<event>
 8    1  0.1081309E+005  0.1043930E+01  0.7957747E-01            NaN
         13   -1    0    0    0    0  0.00000000000E+00  0.00000000000E+00  0.74505805969E-08  0.10566000000E+00  0.10566000000E+00 0. -1.
     999900   -1    0    0    0    0 -0.00000000000E+00 -0.00000000000E+00 -0.74505805969E-08  0.93827000000E+00  0.93827000000E+00 0. -1.
     999902    2    1    2    0    0 -0.14558540508E-01  0.16959661292E-01  0.86771252974E-02  0.10199534757E+01  0.10196716231E+01 0.  0.
     999903    2    3    3    0    0  0.36338166486E-01  0.54256127958E-01 -0.11065484319E+00  0.12966047906E+00  0.17411368239E-01 0.  0.
         14    1    1    2    0    0  0.14558540508E-01 -0.16959661292E-01 -0.86771252974E-02  0.23976524274E-01  0.00000000000E+00 0.  1.
     999901    1    3    3    0    0 -0.50896706994E-01 -0.37296466666E-01  0.11933196849E+00  0.89029299667E+00  0.88000000000E+00 0. -1.
        -11    1    4    4    0    0  0.12938823857E-01  0.13924144020E-01 -0.19303753633E-01  0.27095958644E-01  0.51100000000E-03 0.  1.
         11    1    4    4    0    0  0.23399342628E-01  0.40331983938E-01 -0.91351089558E-01  0.10256452042E+00  0.51100000000E-03 0. -1.
</event>
<event>
 8    1  0.1081309E+005  0.1043930E+01  0.7957747E-01            NaN
         13   -1    0    0    0    0  0.00000000000E+00  0.00000000000E+00  0.74505805969E-08  0.10566000000E+00  0.10566000000E+00 0. -1.
     999900   -1    0    0    0    0 -0.00000000000E+00 -0.00000000000E+00 -0.74505805969E-08  0.93827000000E+00  0.93827000000E+00 0. -1.
     999902    2    1    2    0    0  0.17817973612E-01  0.14032783979E-01  0.45976109247E-02  0.10207883225E+01  0.10205259733E+01 0.  0.
     999903    2    3    3    0    0  0.56217965251E-01  0.71561964003E-01 -0.94125647896E-01  0.13257075473E+00  0.20827700541E-01 0.  0.
         14    1    1    2    0    0 -0.17817973612E-01 -0.14032783979E-01 -0.45976109247E-02  0.23141677468E-01  0.00000000000E+00 0.  1.
     999901    1    3    3    0    0 -0.38399991639E-01 -0.57529180024E-01  0.98723258821E-01  0.88821756780E+00  0.88000000000E+00 0.  1.
        -11    1    4    4    0    0  0.42328351982E-01  0.65817143015E-01 -0.80682533587E-01  0.11239892367E+00  0.51100000000E-03 0.  1.
         11    1    4    4    0    0  0.13889613269E-01  0.57448209882E-02 -0.13443114310E-01  0.20171831060E-01  0.51100000000E-03 0. -1.
</event>
<event>
 8    1  0.1081309E+005  0.1043930E+01  0.7957747E-01            NaN
         13   -1    0    0    0    0  0.00000000000E+00  0.00000000000E+00  0.74505805969E-08  0.10566000000E+00  0.10566000000E+00 0.  1.
     999900   -1    0    0    0    0 -0.00000000000E+00 -0.00000000000E+00 -0.74505805969E-08  0.93827000000E+00  0.93827000000E+00 0.  1.
     999902    2    1    2    0    0  0.23032145147E-02 -0.10013059514E-01 -0.21549892449E-01  0.10200560807E+01  0.10197766637E+01 0.  0.
     999903    2    3    3    0    0 -0.11164596840E+00 -0.44244268696E-01  0.44578272933E-01  0.12959040128E+00  0.19597757876E-01 0.  0.
         14    1    1    2    0    0 -0.23032145147E-02  0.10013059514E-01  0.21549892449E-01  0.23873919295E-01  0.00000000000E+00 0.  1.
     999901    1    3    3    0    0  0.11394918292E+00  0.34231209182E-01 -0.66128165382E-01  0.89046567942E+00  0.88000000000E+00 0. -1.
        -11    1    4    4    0    0 -0.52232758088E-01 -0.16259941393E-01  0.10899309910E-01  0.55782638778E-01  0.51100000000E-03 0. -1.
         11    1    4    4    0    0 -0.59413210317E-01 -0.27984327303E-01  0.33678963023E-01  0.73807762506E-01  0.51100000000E-03 0.  1.
</event>
<event>
 8    1  0.1081309E+005  0.1043930E+01  0.7957747E-01            NaN
         13   -1    0    0    0    0  0.00000000000E+00  0.00000000000E+00  0.74505805969E-08  0.10566000000E+00  0.10566000000E+00 0. -1.
     999900   -1    0    0    0    0 -0.00000000000E+00 -0.00000000000E+00 -0.74505805969E-08  0.93827000000E+00  0.93827000000E+00 0. -1.
     999902    2    1    2    0    0 -0.86551533516E-03  0.74818445463E-03 -0.26644522428E-01  0.10172609267E+01  0.10169112810E+01 0.  0.
     999903    2    3    3    0    0 -0.71311202054E-01  0.98194879068E-01  0.32118958419E-01  0.12714205835E+00  0.20148292658E-01 0.  0.
         14    1    1    2    0    0  0.86551533516E-03 -0.74818445463E-03  0.26644522428E-01  0.26669073328E-01  0.00000000000E+00 0. -1.
     999901    1    3    3    0    0  0.70445686719E-01 -0.97446694613E-01 -0.58763480847E-01  0.89011886833E+00  0.88000000000E+00 0. -1.
        -11    1    4    4    0    0 -0.27017339584E-01  0.26890814773E-01  0.27965394364E-02  0.38224786607E-01  0.51100000000E-03 0. -1.
         11    1    4    4    0    0 -0.44293862470E-01  0.71304064295E-01  0.29322418983E-01  0.88917271739E-01  0.51100000000E-03 0.  1.
</event>
<event>
 8    1  0.1081309E+005  0.1043930E+01  0.7957747E-01            NaN
         13   -1    0    0    0    0  0.00000000000E+00  0.00000000000E+00  0.74505805969E-08  0.10566000000E+00  0.10566000000E+00 0.  1.
     999900   -1    0    0    0    0 -0.00000000000E+00 -0.00000000000E+00 -0.74505805969E-08  0.93827000000E+00  0.93827000000E+00 0.  1.
     999902    2    1    2    0    0  0.11653069949E-01  0.42186297691E-02  0.19796667487E-01  0.10205740817E+01  0.10203067957E+01 0.  0.
     999903    2    3    3    0    0  0.79122148759E-01  0.97133418255E-01  0.39082516262E-01  0.13290456071E+00  0.20999138425E-01 0.  0.
         14    1    1    2    0    0 -0.11653069949E-01 -0.42186297691E-02 -0.19796667487E-01  0.23355918307E-01  0.00000000000E+00 0. -1.
     999901    1    3    3    0    0 -0.67469078811E-01 -0.92914788486E-01 -0.19285848775E-01  0.88766952098E+00  0.88000000000E+00 0.  1.
        -11    1    4    4    0    0  0.29888030496E-01  0.37253973291E-01  0.43664136898E-02  0.47963314965E-01  0.51100000000E-03 0. -1.
         11    1    4    4    0    0  0.49234118263E-01  0.59879444964E-01  0.34716102572E-01  0.84941245748E-01  0.51100000000E-03 0.  1.
</event>
<event>
 7    1  0.1081309E+005  0.1043930E+01  0.7957747E-01            NaN
         13   -1    0    0    0    0  0.00000000000E+00  0.00000000000E+00  0.74505805969E-08  0.10566000000E+00  0.10566000000E+00 0.  1.
     999900   -1    0    0    0    0 -0.00000000000E+00 -0.00000000000E+00 -0.74505805969E-08  0.93827000000E+00  0.93827000000E+00 0.  1.
     999903    2    1    2    0    0  0.11439074240E+00  0.28133983688E-01  0.10233924602E-01  0.11989449016E+00  0.19829083986E-01 0.  0.
         14    1    1    2    0    0 -0.27487005910E-01 -0.13817060844E-01 -0.24805245186E-01  0.39518942964E-01  0.00000000000E+00 0. -1.
     999901    1    1    2    0    0 -0.86903736494E-01 -0.14316922844E-01  0.14571320584E-01  0.88451656688E+00  0.88000000000E+00 0. -1.
        -11    1    3    3    0    0  0.17322803988E-01  0.11904043587E-01  0.25321140038E-02  0.21176839095E-01  0.51100000000E-03 0. -1.
         11    1    3    3    0    0  0.97067938416E-01  0.16229940101E-01  0.77018105984E-02  0.98717651063E-01  0.51100000000E-03 0.  1.
</event>
<event>
 8    1  0.1081309E+005  0.1043930E+01  0.7957747E-01            NaN
         13   -1    0    0    0    0  0.00000000000E+00  0.00000000000E+00  0.74505805969E-08  0.10566000000E+00  0.10566000000E+00 0. -1.
     999900   -1    0    0    0    0 -0.00000000000E+00 -0.00000000000E+00 -0.74505805969E-08  0.93827000000E+00  0.93827000000E+00 0. -1.
     999902    2    1    2    0    0  0.15745782855E-01 -0.15349304667E-01  0.85996935338E-02  0.10203188679E+01  0.10200456395E+01 0.  0.
     999903    2    3    3    0    0  0.12026296299E+00  0.49045634304E-01 -0.67876988036E-02  0.13166408622E+00  0.20511075862E-01 0.  0.
         14    1    1    2    0    0 -0.15745782855E-01  0.15349304667E-01 -0.85996935338E-02  0.23611132128E-01  0.00000000000E+00 0. -1.
     999901    1    3    3    0    0 -0.10451718014E+00 -0.64394938971E-01  0.15387392337E-01  0.88865478165E+00  0.88000000000E+00 0. -1.
        -11    1    4    4    0    0  0.73366463806E-01  0.37245177897E-01  0.29452448504E-02  0.82333327858E-01  0.51100000000E-03 0.  1.
         11    1    4    4    0    0  0.46896499188E-01  0.11800456407E-01 -0.97329436540E-02  0.49330758363E-01  0.51100000000E-03 0. -1.
</event>
<event>
 8    1  0.1081309E+005  0.1043930E+01  0.7957747E-01            NaN
         13   -1    0    0    0    0  0.00000000000E+00  0.00000000000E+00  0.74505805969E-08  0.10566000000E+00  0.10566000000E+00 0.  1.
     999900   -1    0    0    0    0 -0.00000000000E+00 -0.00000000000E+00 -0.74505805969E-08  0.93827000000E+00  0.93827000000E+00 0.  1.
     999902    2    1    2    0    0  0.23036651746E-01  0.23065837222E-02  0.45186829739E-02  0.10203413131E+01  0.10200686100E+01 0.  0.
     999903    2    3    3    0    0 -0.10939469289E+00  0.40599158446E-01  0.50662283453E-01  0.12841440235E+00  0.17552813671E-01 0.  0.
         14    1    1    2    0    0 -0.23036651746E-01 -0.23065837222E-02 -0.45186829739E-02  0.23588686863E-01  0.00000000000E+00 0. -1.
     999901    1    3    3    0    0  0.13243134463E+00 -0.38292574723E-01 -0.46143600479E-01  0.89192691079E+00  0.88000000000E+00 0.  1.
        -11    1    4    4    0    0 -0.24120812947E-01  0.95655381060E-02  0.36367974100E-02  0.26206879877E-01  0.51100000000E-03 0.  1.
         11    1    4    4    0    0 -0.85273879940E-01  0.31033620340E-01  0.47025486043E-01  0.10220752247E+00  0.51100000000E-03 0. -1.
</event>
<event>
 8    1  0.1081309E+005  0.1043930E+01  0.7957747E-01            NaN
         13   -1    0    0    0    0  0.00000000000E+00  0.00000000000E+00  0.74505805969E-08  0.10566000000E+00  0.10566000000E+00 0.  1.
     999900   -1    0    0    0    0 -0.00000000000E+00 -0.00000000000E+00 -0.74505805969E-08  0.93827000000E+00  0.93827000000E+00 0.  1.
     999902    2    1    2    0    0  0.15415296652E-01  0.10651809790E-02  0.15470507008E-01  0.10220644433E+01  0.10218305259E+01 0.  0.
     999903    2    3    3    0    0  0.18247215276E-01 -0.12787526594E+00 -0.13499535773E-01  0.13219202439E+00  0.24646487427E-01 0.  0.
         14    1    1    2    0    0 -0.15415296652E-01 -0.10651809790E-02 -0.15470507008E-01  0.21865556670E-01  0.00000000000E+00 0. -1.
     999901    1    3    3    0    0 -0.28319186240E-02  0.12894044691E+00  0.28970042781E-01  0.88987241894E+00  0.88000000000E+00 0.  1.
        -11    1    4    4    0    0  0.68932876550E-02 -0.10925488449E+00 -0.14042807079E-01  0.11037032550E+00  0.51100000000E-03 0.  1.
         11    1    4    4    0    0  0.11353927621E-01 -0.18620381444E-01  0.54327130622E-03  0.21821698886E-01  0.51100000000E-03 0. -1.
</event>
<event>
 8    1  0.1081309E+005  0.1043930E+01  0.7957747E-01            NaN
         13   -1    0    0    0    0  0.00000000000E+00  0.00000000000E+00  0.74505805969E-08  0.10566000000E+00  0.10566000000E+00 0.  1.
     999900   -1    0    0    0    0 -0.00000000000E+00 -0.00000000000E+00 -0.74505805969E-08  0.93827000000E+00  0.93827000000E+00 0.  1.
     999902    2    1    2    0    0  0.15356113978E-02  0.10187402843E-01  0.21218960291E-01  0.10203421736E+01  0.10200694906E+01 0.  0.
     999903    2    3    3    0    0 -0.93922701578E-01 -0.84041466222E-01  0.24959827093E-01  0.13017063767E+00  0.20903588811E-01 0.  0.
         14    1    1    2    0    0 -0.15356113978E-02 -0.10187402843E-01 -0.21218960291E-01  0.23587826413E-01  0.00000000000E+00 0. -1.
     999901    1    3    3    0    0  0.95458312976E-01  0.94228869064E-01 -0.37408668013E-02  0.89017153592E+00  0.88000000000E+00 0.  1.
        -11    1    4    4    0    0 -0.24297598542E-01 -0.17920264737E-01 -0.25056354571E-02  0.30299315391E-01  0.51100000000E-03 0. -1.
         11    1    4    4    0    0 -0.69625103036E-01 -0.66121201485E-01  0.27465462550E-01  0.99871322274E-01  0.51100000000E-03 0.  1.
</event>
<event>
 8    1  0.1081309E+005  0.1043930E+01  0.7957747E-01            NaN
         13   -1    0    0    0    0  0.00000000000E+00  0.00000000000E+00  0.74505805969E-08  0.10566000000E+00  0.10566000000E+00 0. -1.
     999900   -1    0    0    0    0 -0.00000000000E+00 -0.00000000000E+00 -0.74505805969E-08  0.93827000000E+00  0.93827000000E+00 0.  1.
     999902    2    1    2    0    0  0.58641284262E-03 -0.22130349619E-01  0.70255026926E-02  0.10207038522E+01  0.10204395621E+01 0.  0.
     999903    2    3    3    0    0  0.11189373869E+00 -0.67691035758E-01  0.85010742265E-02  0.13252184706E+00  0.19684679453E-01 0.  0.
         14    1    1    2    0    0 -0.58641284262E-03  0.22130349619E-01 -0.70255026926E-02  0.23226147816E-01  0.00000000000E+00 0.  1.
     999901    1    3    3    0    0 -0.11130732585E+00  0.45560686139E-01 -0.14755715339E-02  0.88818200512E+00  0.88000000000E+00 0.  1.
        -11    1    4    4    0    0  0.38741147000E-01 -0.12882680408E-01  0.18637111115E-02  0.40872661590E-01  0.51100000000E-03 0. -1.
         11    1    4    4    0    0  0.73152591693E-01 -0.54808355350E-01  0.66373631150E-02  0.91649185472E-01  0.51100000000E-03 0.  1.
</event>
<event>
 8    1  0.1081309E+005  0.1043930E+01  0.7957747E-01            NaN
         13   -1    0    0    0    0  0.00000000000E+00  0.00000000000E+00  0.74505805969E-08  0.10566000000E+00  0.10566000000E+00 0. -1.
     999900   -1    0    0    0    0 -0.00000000000E+00 -0.00000000000E+00 -0.74505805969E-08  0.93827000000E+00  0.93827000000E+00 0. -1.
     999902    2    1    2    0    0  0.17767910103E-01 -0.17852518417E-01 -0.11327065571E-01  0.10163127326E+01  0.10159374277E+01 0.  0.
     999903    2    3    3    0    0 -0.29655537647E-01 -0.98713329159E-01 -0.75014310665E-01  0.12904528742E+00  0.20044129690E-01 0.  0.
         14    1    1    2    0    0 -0.17767910103E-01  0.17852518417E-01  0.11327065571E-01  0.27617267383E-01  0.00000000000E+00 0. -1.
     999901    1    3    3    0    0  0.47423447750E-01  0.80860810742E-01  0.63687245094E-01  0.88726744519E+00  0.88000000000E+00 0.  1.
        -11    1    4    4    0    0 -0.22647917281E-01 -0.69100017510E-01 -0.41311864540E-01  0.83634154804E-01  0.51100000000E-03 0.  1.
         11    1    4    4    0    0 -0.70076203660E-02 -0.29613311650E-01 -0.33702446125E-01  0.45411132621E-01  0.51100000000E-03 0. -1.
</event>
<event>
 8    1  0.1081309E+005  0.1043930E+01  0.7957747E-01            NaN
         13   -1    0    0    0    0  0.00000000000E+00  0.00000000000E+00  0.74505805969E-08  0.10566000000E+00  0.10566000000E+00 0. -1.
     999900   -1    0    0    0    0 -0.00000000000E+00 -0.00000000000E+00 -0.74505805969E-08  0.93827000000E+00  0.93827000000E+00 0.  1.
     999902    2    1    2    0    0 -0.83415845674E-02  0.22982472422E-02 -0.21913724343E-01  0.10203699642E+01  0.10200979308E+01 0.  0.
     999903    2    3    3    0    0 -0.33645808681E-02 -0.94592227917E-01  0.84685351557E-01  0.12864360608E+00  0.20458705471E-01 0.  0.
         14    1    1    2    0    0  0.83415845674E-02 -0.22982472422E-02  0.21913724343E-01  0.23560035825E-01  0.00000000000E+00 0. -1.
     999901    1    3    3    0    0 -0.49770036994E-02  0.96890475160E-01 -0.10659907590E+00  0.89172635810E+00  0.88000000000E+00 0.  1.
        -11    1    4    4    0    0 -0.11413779164E-01 -0.70451268706E-01  0.61471440427E-01  0.94194770164E-01  0.51100000000E-03 0.  1.
         11    1    4    4    0    0  0.80491982961E-02 -0.24140959212E-01  0.23213911130E-01  0.34448835914E-01  0.51100000000E-03 0. -1.
</event>
<event>
 8    1  0.1081309E+005  0.1043930E+01  0.7957747E-01            NaN
         13   -1    0    0    0    0  0.00000000000E+00  0.00000000000E+00  0.74505805969E-08  0.10566000000E+00  0.10566000000E+00 0.  1.
     999900   -1    0    0    0    0 -0.00000000000E+00 -0.00000000000E+00 -0.74505805969E-08  0.93827000000E+00  0.93827000000E+00 0.  1.
     999902    2    1    2    0    0  0.13505284320E-01  0.54328564136E-02  0.16987351266E-01  0.10215586179E+01  0.10213136301E+01 0.  0.
     999903    2    3    3    0    0 -0.10268452986E+00  0.73344163637E-01  0.30193569029E-01  0.13122922788E+00  0.19646364226E-01 0.  0.
         14    1    1    2    0    0 -0.13505284320E-01 -0.54328564136E-02 -0.16987351266E-01  0.22371382085E-01  0.00000000000E+00 0. -1.
     999901    1    3    3    0    0  0.11618981418E+00 -0.67911307223E-01 -0.13206217763E-01  0.89032939003E+00  0.88000000000E+00 0.  1.
        -11    1    4    4    0    0 -0.98175559971E-01  0.65146121228E-01  0.24762624345E-01  0.12039894672E+00  0.51100000000E-03 0. -1.
         11    1    4    4    0    0 -0.45089698904E-02  0.81980424091E-02  0.54309446835E-02  0.10830281158E-01  0.51100000000E-03 0.  1.
</event>
<event>
 8    1  0.1081309E+005  0.1043930E+01  0.7957747E-01            NaN
         13   -1    0    0    0    0  0.00000000000E+00  0.00000000000E+00  0.74505805969E-08  0.10566000000E+00  0.10566000000E+00 0.  1.
     999900   -1    0    0    0    0 -0.00000000000E+00 -0.00000000000E+00 -0.74505805969E-08  0.93827000000E+00  0.93827000000E+00 0. -1.
     999902    2    1    2    0    0  0.14756638032E-01 -0.19729310337E-01 -0.12185358523E-01  0.10164438760E+01  0.10160721756E+01 0.  0.
     999903    2    3    3    0    0 -0.56586369318E-01 -0.82437196751E-01 -0.79346829584E-01  0.12878810546E+00  0.17104038729E-01 0.  0.
         14    1    1    2    0    0 -0.14756638032E-01  0.19729310337E-01  0.12185358523E-01  0.27486124040E-01  0.00000000000E+00 0. -1.
     999901    1    3    3    0    0  0.71343007350E-01  0.62707886414E-01  0.67161471061E-01  0.88765577051E+00  0.88000000000E+00 0.  1.
        -11    1    4    4    0    0 -0.23200213078E-01 -0.26637000193E-01 -0.19193253355E-01  0.40204747997E-01  0.51100000000E-03 0.  1.
         11    1    4    4    0    0 -0.33386156240E-01 -0.55800196559E-01 -0.60153576229E-01  0.88583357458E-01  0.51100000000E-03 0. -1.
</event>
<event>
 8    1  0.1081309E+005  0.1043930E+01  0.7957747E-01            NaN
         13   -1    0    0    0    0  0.00000000000E+00  0.00000000000E+00  0.74505805969E-08  0.10566000000E+00  0.10566000000E+00 0.  1.
     999900   -1    0    0    0    0 -0.00000000000E+00 -0.00000000000E+00 -0.74505805969E-08  0.93827000000E+00  0.93827000000E+00 0.  1.
     999902    2    1    2    0    0 -0.22456314144E-01  0.68957655444E-02 -0.97969846245E-02  0.10184777204E+01  0.10181596380E+01 0.  0.
     999903    2    3    3    0    0  0.10313049002E+00 -0.43726511180E-01 -0.56059106687E-01  0.12692018207E+00  0.20450022517E-01 0.  0.
         14    1    1    2    0    0  0.22456314144E-01 -0.68957655444E-02  0.97969846245E-02  0.25452279566E-01  0.00000000000E+00 0.  1.
     999901    1    3    3    0    0 -0.12558680417E+00  0.50622276724E-01  0.46262122063E-01  0.89155753837E+00  0.88000000000E+00 0. -1.
        -11    1    4    4    0    0  0.83907857560E-01 -0.29041586312E-01 -0.37321735488E-01  0.96317783180E-01  0.51100000000E-03 0.  1.
         11    1    4    4    0    0  0.19222632463E-01 -0.14684924868E-01 -0.18737371199E-01  0.30602398887E-01  0.51100000000E-03 0. -1.
</event>
<event>
 8    1  0.1081309E+005  0.1043930E+01  0.7957747E-01            NaN
         13   -1    0    0    0    0  0.00000000000E+00  0.00000000000E+00  0.74505805969E-08  0.10566000000E+00  0.10566000000E+00 0. -1.
     999900   -1    0    0    0    0 -0.00000000000E+00 -0.00000000000E+00 -0.74505805969E-08  0.93827000000E+00  0.93827000000E+00 0. -1.
     999902    2    1    2    0    0  0.21616059044E-01  0.93962408303E-02  0.80455643186E-02  0.10190246902E+01  0.10187202976E+01 0.  0.
     999903    2    3    3    0    0 -0.12340026333E+00 -0.18966206449E-01  0.59620144055E-02  0.12670271730E+00  0.20753095633E-01 0.  0.
         14    1    1    2    0    0 -0.21616059044E-01 -0.93962408303E-02 -0.80455643186E-02  0.24905309786E-01  0.00000000000E+00 0.  1.
     999901    1    3    3    0    0  0.14501632237E+00  0.28362447279E-01  0.20835499131E-02  0.89232197292E+00  0.88000000000E+00 0. -1.
        -11    1    4    4    0    0 -0.59857518479E-01 -0.16668526389E-01  0.10228692639E-01  0.62973403628E-01  0.51100000000E-03 0. -1.
         11    1    4    4    0    0 -0.63542744849E-01 -0.22976800597E-02 -0.42666782331E-02  0.63729313669E-01  0.51100000000E-03 0.  1.
</event>
<event>
 8    1  0.1081309E+005  0.1043930E+01  0.7957747E-01            NaN
         13   -1    0    0    0    0  0.00000000000E+00  0.00000000000E+00  0.74505805969E-08  0.10566000000E+00  0.10566000000E+00 0.  1.
     999900   -1    0    0    0    0 -0.00000000000E+00 -0.00000000000E+00 -0.74505805969E-08  0.93827000000E+00  0.93827000000E+00 0.  1.
     999902    2    1    2    0    0 -0.16376838872E-01  0.45206641529E-03 -0.17091119893E-01  0.10202548739E+01  0.10199801450E+01 0.  0.
     999903    2    3    3    0    0 -0.11082721112E+00 -0.56683196152E-01 -0.42442777165E-01  0.13299616443E+00  0.19772075507E-01 0.  0.
         14    1    1    2    0    0  0.16376838872E-01 -0.45206641529E-03  0.17091119893E-01  0.23675126076E-01  0.00000000000E+00 0.  1.
     999901    1    3    3    0    0  0.94450372245E-01  0.57135262567E-01  0.25351657272E-01  0.88725870949E+00  0.88000000000E+00 0. -1.
        -11    1    4    4    0    0 -0.85434765811E-01 -0.52075590952E-01 -0.30883886001E-01  0.10471409608E+00  0.51100000000E-03 0. -1.
         11    1    4    4    0    0 -0.25392445306E-01 -0.46076051999E-02 -0.11558891164E-01  0.28282068352E-01  0.51100000000E-03 0.  1.
</event>
<event>
 8    1  0.1081309E+005  0.1043930E+01  0.7957747E-01            NaN
         13   -1    0    0    0    0  0.00000000000E+00  0.00000000000E+00  0.74505805969E-08  0.10566000000E+00  0.10566000000E+00 0.  1.
     999900   -1    0    0    0    0 -0.00000000000E+00 -0.00000000000E+00 -0.74505805969E-08  0.93827000000E+00  0.93827000000E+00 0.  1.
     999902    2    1    2    0    0 -0.15213408457E-01  0.60816357314E-02 -0.16974018881E-01  0.10203386582E+01  0.10200658930E+01 0.  0.
     999903    2    3    3    0    0 -0.32173365241E-01 -0.57454165319E-01  0.10896172257E+00  0.12894410522E+00  0.20440615005E-01 0.  0.
         14    1    1    2    0    0  0.15213408457E-01 -0.60816357314E-02  0.16974018881E-01  0.23591341781E-01  0.00000000000E+00 0. -1.
     999901    1    3    3    0    0  0.16959956784E-01  0.63535801051E-01 -0.12593574145E+00  0.89139455300E+00  0.88000000000E+00 0.  1.
        -11    1    4    4    0    0 -0.22999346227E-01 -0.27543748862E-01  0.43531147832E-01  0.56416752661E-01  0.51100000000E-03 0.  1.
         11    1    4    4    0    0 -0.91740190139E-02 -0.29910416457E-01  0.65430574735E-01  0.72527352555E-01  0.51100000000E-03 0. -1.
</event>
<event>
 8    1  0.1081309E+005  0.1043930E+01  0.7957747E-01            NaN
         13   -1    0    0    0    0  0.00000000000E+00  0.00000000000E+00  0.74505805969E-08  0.10566000000E+00  0.10566000000E+00 0. -1.
     999900   -1    0    0    0    0 -0.00000000000E+00 -0.00000000000E+00 -0.74505805969E-08  0.93827000000E+00  0.93827000000E+00 0.  1.
     999902    2    1    2    0    0  0.12654622495E-01  0.16976479578E-01 -0.10462167644E-01  0.10203122677E+01  0.10200388847E+01 0.  0.
     999903    2    3    3    0    0  0.29136483832E-01  0.59929776002E-01 -0.11370436952E+00  0.13308310353E+00  0.18490972249E-01 0.  0.
         14    1    1    2    0    0 -0.12654622495E-01 -0.16976479578E-01  0.10462167644E-01  0.23617732346E-01  0.00000000000E+00 0.  1.
     999901    1    3    3    0    0 -0.16481861337E-01 -0.42953296424E-01  0.10324220188E+00  0.88722916413E+00  0.88000000000E+00 0. -1.
        -11    1    4    4    0    0  0.99346754541E-02  0.40646321001E-01 -0.65524346386E-01  0.77746525824E-01  0.51100000000E-03 0.  1.
         11    1    4    4    0    0  0.19201808378E-01  0.19283455001E-01 -0.48180023135E-01  0.55336577705E-01  0.51100000000E-03 0. -1.
</event>
<event>
 8    1  0.1081309E+005  0.1043930E+01  0.7957747E-01            NaN
         13   -1    0    0    0    0  0.00000000000E+00  0.00000000000E+00  0.74505805969E-08  0.10566000000E+00  0.10566000000E+00 0. -1.
     999900   -1    0    0    0    0 -0.00000000000E+00 -0.00000000000E+00 -0.74505805969E-08  0.93827000000E+00  0.93827000000E+00 0.  1.
     999902    2    1    2    0    0  0.93950593936E-02 -0.71044788070E-03  0.21153924798E-01  0.10207727028E+01  0.10205099953E+01 0.  0.
     999903    2    3    3    0    0  0.36365692287E-01  0.37289676295E-01 -0.11497114042E+00  0.12908808491E+00  0.27062649597E-01 0.  0.
         14    1    1    2    0    0 -0.93950593936E-02  0.71044788070E-03 -0.21153924798E-01  0.23157297155E-01  0.00000000000E+00 0.  1.
     999901    1    3    3    0    0 -0.26970632893E-01 -0.38000124176E-01  0.13612506522E+00  0.89168461793E+00  0.88000000000E+00 0. -1.
        -11    1    4    4    0    0  0.12599506648E-01 -0.48856734901E-03 -0.14980412611E-01  0.19587244544E-01  0.51100000000E-03 0. -1.
         11    1    4    4    0    0  0.23766185639E-01  0.37778243644E-01 -0.99990727809E-01  0.10950084037E+00  0.51100000000E-03 0.  1.
</event>
<event>
 8    1  0.1081309E+005  0.1043930E+01  0.7957747E-01            NaN
         13   -1    0    0    0    0  0.00000000000E+00  0.00000000000E+00  0.74505805969E-08  0.10566000000E+00  0.10566000000E+00 0. -1.
     999900   -1    0    0    0    0 -0.00000000000E+00 -0.00000000000E+00 -0.74505805969E-08  0.93827000000E+00  0.93827000000E+00 0.  1.
     999902    2    1    2    0    0 -0.10222871768E-01  0.84512383441E-02 -0.19795451907E-01  0.10201016460E+01  0.10198233071E+01 0.  0.
     999903    2    3    3    0    0 -0.12218379679E+00  0.36817077228E-01 -0.29643367757E-01  0.13249990482E+00  0.19827207379E-01 0.  0.
         14    1    1    2    0    0  0.10222871768E-01 -0.84512383441E-02  0.19795451907E-01  0.23828353970E-01  0.00000000000E+00 0. -1.
     999901    1    3    3    0    0  0.11196092502E+00 -0.28365838884E-01  0.98479158505E-02  0.88760174121E+00  0.88000000000E+00 0. -1.
        -11    1    4    4    0    0 -0.95712159583E-01  0.21621236670E-01 -0.27457172199E-01  0.10189432169E+00  0.51100000000E-03 0. -1.
         11    1    4    4    0    0 -0.26471637207E-01  0.15195840558E-01 -0.21861955586E-02  0.30605583129E-01  0.51100000000E-03 0.  1.
</event>
<event>
 8    1  0.1081309E+005  0.1043930E+01  0.7957747E-01            NaN
         13   -1    0    0    0    0  0.00000000000E+00  0.00000000000E+00  0.74505805969E-08  0.10566000000E+00  0.10566000000E+00 0.  1.
     999900   -1    0    0    0    0 -0.00000000000E+00 -0.00000000000E+00 -0.74505805969E-08  0.93827000000E+00  0.93827000000E+00 0. -1.
     999902    2    1    2    0    0 -0.19158051018E-01  0.19116811155E-01  0.12122364747E-01  0.10142747287E+01  0.10138411070E+01 0.  0.
     999903    2    3    3    0    0 -0.16473062390E-01 -0.94812606246E-01  0.75977552766E-01  0.12463176306E+00  0.22353875538E-01 0.  0.
         14    1    1    2    0    0  0.19158051018E-01 -0.19116811155E-01 -0.12122364747E-01  0.29655271278E-01  0.00000000000E+00 0. -1.
     999901    1    3    3    0    0 -0.26849886275E-02  0.11392941740E+00 -0.63855188018E-01  0.88964296566E+00  0.88000000000E+00 0.  1.
        -11    1    4    4    0    0 -0.21057139579E-01 -0.86409627567E-01  0.71159841827E-01  0.11390351651E+00  0.51100000000E-03 0. -1.
         11    1    4    4    0    0  0.45840771888E-02 -0.84029786790E-02  0.48177109385E-02  0.10728246550E-01  0.51100000000E-03 0.  1.
</event>
<event>
 8    1  0.1081309E+005  0.1043930E+01  0.7957747E-01            NaN
         13   -1    0    0    0    0  0.00000000000E+00  0.00000000000E+00  0.74505805969E-08  0.10566000000E+00  0.10566000000E+00 0. -1.
     999900   -1    0    0    0    0 -0.00000000000E+00 -0.00000000000E+00 -0.74505805969E-08  0.93827000000E+00  0.93827000000E+00 0. -1.
     999902    2    1    2    0    0  0.41875770478E-02 -0.74237886893E-02  0.22660522588E-01  0.10197195121E+01  0.10194320652E+01 0.  0.
     999903    2    3    3    0    0 -0.54062936675E-01  0.25088924786E-01 -0.11058749639E+00  0.12719207082E+00  0.19899076688E-01 0.  0.
         14    1    1    2    0    0 -0.41875770478E-02  0.74237886893E-02 -0.22660522588E-01  0.24210487893E-01  0.00000000000E+00 0.  1.
     999901    1    3    3    0    0  0.58250513723E-01 -0.32512713475E-01  0.13324801898E+00  0.89252744129E+00  0.88000000000E+00 0.  1.
        -11    1    4    4    0    0 -0.40498554918E-01  0.85056223511E-02 -0.74344090013E-01  0.85086916755E-01  0.51100000000E-03 0.  1.
         11    1    4    4    0    0 -0.13564381757E-01  0.16583302435E-01 -0.36243406378E-01  0.42105154067E-01  0.51100000000E-03 0. -1.
</event>
<event>
 8    1  0.1081309E+005  0.1043930E+01  0.7957747E-01            NaN
         13   -1    0    0    0    0  0.00000000000E+00  0.00000000000E+00  0.74505805969E-08  0.10566000000E+00  0.10566000000E+00 0. -1.
     999900   -1    0    0    0    0 -0.00000000000E+00 -0.00000000000E+00 -0.74505805969E-08  0.93827000000E+00  0.93827000000E+00 0. -1.
     999902    2    1    2    0    0  0.12366519448E-01  0.14261720621E-01  0.14566757687E-01  0.10200863864E+01  0.10198076867E+01 0.  0.
     999903    2    3    3    0    0 -0.91398464030E-01 -0.68570675600E-01  0.56731922644E-01  0.12912831851E+00  0.19999870397E-01 0.  0.
         14    1    1    2    0    0 -0.12366519448E-01 -0.14261720621E-01 -0.14566757687E-01  0.23843613565E-01  0.00000000000E+00 0.  1.
     999901    1    3    3    0    0  0.10376498348E+00  0.82832396221E-01 -0.42165164957E-01  0.89095806792E+00  0.88000000000E+00 0. -1.
        -11    1    4    4    0    0 -0.73088141406E-01 -0.62789436626E-01  0.42997735802E-01  0.10551519403E+00  0.51100000000E-03 0.  1.
         11    1    4    4    0    0 -0.18310322624E-01 -0.57812389739E-02  0.13734186842E-01  0.23613124483E-01  0.51100000000E-03 0. -1.
</event>
<event>
 8    1  0.1081309E+005  0.1043930E+01  0.7957747E-01            NaN
         13   -1    0    0    0    0  0.00000000000E+00  0.00000000000E+00  0.74505805969E-08  0.10566000000E+00  0.10566000000E+00 0. -1.
     999900   -1    0    0    0    0 -0.00000000000E+00 -0.00000000000E+00 -0.74505805969E-08  0.93827000000E+00  0.93827000000E+00 0.  1.
     999902    2    1    2    0    0  0.41825110163E-02 -0.14930421843E-01  0.17552158762E-01  0.10205101543E+01  0.10202413861E+01 0.  0.
     999903    2    3    3    0    0  0.61941520386E-01 -0.70595584015E-01  0.92966144668E-01  0.13364940836E+00  0.19974280210E-01 0.  0.
         14    1    1    2    0    0 -0.41825110163E-02  0.14930421843E-01 -0.17552158762E-01  0.23419845688E-01  0.00000000000E+00 0.  1.
     999901    1    3    3    0    0 -0.57759009370E-01  0.55665162172E-01 -0.75413985906E-01  0.88686074595E+00  0.88000000000E+00 0.  1.
        -11    1    4    4    0    0  0.18729657089E-01 -0.31243621082E-01  0.25960271853E-01  0.44734335232E-01  0.51100000000E-03 0.  1.
         11    1    4    4    0    0  0.43211863298E-01 -0.39351962933E-01  0.67005872816E-01  0.88915073127E-01  0.51100000000E-03 0. -1.
</event>
<event>
 7    1  0.1081309E+005  0.1043930E+01  0.7957747E-01            NaN
         13   -1    0    0    0    0  0.00000000000E+00  0.00000000000E+00  0.74505805969E-08  0.10566000000E+00  0.10566000000E+00 0. -1.
     999900   -1    0    0    0    0 -0.00000000000E+00 -0.00000000000E+00 -0.74505805969E-08  0.93827000000E+00  0.93827000000E+00 0. -1.
     999903    2    1    2    0    0 -0.60363535004E-01  0.21906911113E-01 -0.96767823807E-01  0.11783430084E+00  0.19930921135E-01 0.  0.
         14    1    1    2    0    0  0.36689926904E-01 -0.93323417248E-02  0.18723327793E-01  0.42235131608E-01  0.00000000000E+00 0. -1.
     999901    1    1    2    0    0  0.23673608100E-01 -0.12574569388E-01  0.78044496014E-01  0.88386056755E+00  0.88000000000E+00 0.  1.
        -11    1    3    3    0    0 -0.25290017698E-01 -0.10483218667E-02 -0.36426429142E-01  0.44360228076E-01  0.51100000000E-03 0. -1.
         11    1    3    3    0    0 -0.35073517306E-01  0.22955232979E-01 -0.60341394665E-01  0.73474072763E-01  0.51100000000E-03 0.  1.
</event>
<event>
 7    1  0.1081309E+005  0.1043930E+01  0.7957747E-01            NaN
         13   -1    0    0    0    0  0.00000000000E+00  0.00000000000E+00  0.74505805969E-08  0.10566000000E+00  0.10566000000E+00 0. -1.
     999900   -1    0    0    0    0 -0.00000000000E+00 -0.00000000000E+00 -0.74505805969E-08  0.93827000000E+00  0.93827000000E+00 0.  1.
     999902    2    1    2    0    0 -0.23030041725E-01  0.82543219334E-02 -0.63212882107E-02  0.10186619305E+01  0.10183484930E+01 0.  0.
         14    1    1    2    0    0  0.23030041725E-01 -0.82543219334E-02  0.63212882107E-02  0.25268069517E-01  0.00000000000E+00 0. -1.
     999901    1    3    3    0    0 -0.87265752663E-01 -0.18118700881E-01 -0.10553626038E+00  0.89077578613E+00  0.88000000000E+00 0.  1.
        -11    1    3    3    0    0 -0.24368118363E-02  0.10491565992E-01  0.22894985430E-01  0.25307162775E-01  0.51100000000E-03 0.  1.
         11    1    3    3    0    0  0.66672522774E-01  0.15881456822E-01  0.76319986739E-01  0.10257898157E+00  0.51100000000E-03 0. -1.
</event>
<event>
 8    1  0.1081309E+005  0.1043930E+01  0.7957747E-01            NaN
         13   -1    0    0    0    0  0.00000000000E+00  0.00000000000E+00  0.74505805969E-08  0.10566000000E+00  0.10566000000E+00 0. -1.
     999900   -1    0    0    0    0 -0.00000000000E+00 -0.00000000000E+00 -0.74505805969E-08  0.93827000000E+00  0.93827000000E+00 0. -1.
     999902    2    1    2    0    0 -0.46516413493E-02  0.43931688713E-02  0.11951993345E-01  0.10303731624E+01  0.10302839735E+01 0.  0.
     999903    2    3    3    0    0 -0.11503254151E+00  0.29850754326E-01  0.73206176856E-01  0.14100028969E+00  0.19959564683E-01 0.  0.
         14    1    1    2    0    0  0.46516413493E-02 -0.43931688713E-02 -0.11951993345E-01  0.13556837569E-01  0.00000000000E+00 0.  1.
     999901    1    3    3    0    0  0.11038090016E+00 -0.25457585454E-01 -0.61254183512E-01  0.88937287274E+00  0.88000000000E+00 0. -1.
        -11    1    4    4    0    0 -0.62166498693E-01  0.25156150403E-01  0.46285671972E-01  0.81486992912E-01  0.51100000000E-03 0. -1.
         11    1    4    4    0    0 -0.52866042813E-01  0.46946039229E-02  0.26920504884E-01  0.59513296774E-01  0.51100000000E-03 0.  1.
</event>
<event>
 8    1  0.1081309E+005  0.1043930E+01  0.7957747E-01            NaN
         13   -1    0    0    0    0  0.00000000000E+00  0.00000000000E+00  0.74505805969E-08  0.10566000000E+00  0.10566000000E+00 0.  1.
     999900   -1    0    0    0    0 -0.00000000000E+00 -0.00000000000E+00 -0.74505805969E-08  0.93827000000E+00  0.93827000000E+00 0. -1.
     999902    2    1    2    0    0 -0.14395779826E-01 -0.17093195687E-01 -0.43260180527E-02  0.10211675254E+01  0.10209137989E+01 0.  0.
     999903    2    3    3    0    0 -0.53597154137E-01 -0.76811016875E-01  0.92263502655E-01  0.13300509581E+00  0.20129936495E-01 0.  0.
         14    1    1    2    0    0  0.14395779826E-01  0.17093195687E-01  0.43260180527E-02  0.22762474553E-01  0.00000000000E+00 0.  1.
     999901    1    3    3    0    0  0.39201374311E-01  0.59717821188E-01 -0.96589520708E-01  0.88816242964E+00  0.88000000000E+00 0. -1.
        -11    1    4    4    0    0 -0.34814518025E-02 -0.15906858618E-01  0.10407292051E-01  0.19331877989E-01  0.51100000000E-03 0. -1.
         11    1    4    4    0    0 -0.50115702334E-01 -0.60904158257E-01  0.81856210604E-01  0.11367321782E+00  0.51100000000E-03 0.  1.
</event>
<event>
 8    1  0.1081309E+005  0.1043930E+01  0.7957747E-01            NaN
         13   -1    0    0    0    0  0.00000000000E+00  0.00000000000E+00  0.74505805969E-08  0.10566000000E+00  0.10566000000E+00 0. -1.
     999900   -1    0    0    0    0 -0.00000000000E+00 -0.00000000000E+00 -0.74505805969E-08  0.93827000000E+00  0.93827000000E+00 0.  1.
     999902    2    1    2    0    0 -0.24075174397E-01 -0.31241502157E-02 -0.12318690813E-02  0.10196217331E+01  0.10193319316E+01 0.  0.
     999903    2    3    3    0    0  0.57518416639E-01 -0.72584457243E-01  0.86888500599E-01  0.12875280455E+00  0.21232085580E-01 0.  0.
         14    1    1    2    0    0  0.24075174397E-01  0.31241502157E-02  0.12318690813E-02  0.24308266870E-01  0.00000000000E+00 0. -1.
     999901    1    3    3    0    0 -0.81593591036E-01  0.69460307028E-01 -0.88120369680E-01  0.89086892858E+00  0.88000000000E+00 0.  1.
        -11    1    4    4    0    0  0.19487189022E-01 -0.15257222480E-01  0.13647196817E-01  0.28267304006E-01  0.51100000000E-03 0. -1.
         11    1    4    4    0    0  0.38031227617E-01 -0.57327234763E-01  0.73241303782E-01  0.10048550055E+00  0.51100000000E-03 0.  1.
</event>
<event>
 8    1  0.1081309E+005  0.1043930E+01  0.7957747E-01            NaN
         13   -1    0    0    0    0  0.00000000000E+00  0.00000000000E+00  0.74505805969E-08  0.10566000000E+00  0.10566000000E+00 0. -1.
     999900   -1    0    0    0    0 -0.00000000000E+00 -0.00000000000E+00 -0.74505805969E-08  0.93827000000E+00  0.93827000000E+00 0.  1.
     999902    2    1    2    0    0  0.23089037501E-01 -0.48981375573E-02  0.16165541054E-03  0.10203265779E+01  0.10200535299E+01 0.  0.
     999903    2    3    3    0    0  0.74670723132E-01 -0.89409176873E-02 -0.10692842111E+00  0.13232584652E+00  0.20513057216E-01 0.  0.
         14    1    1    2    0    0 -0.23089037501E-01  0.48981375573E-02 -0.16165541054E-03  0.23603422140E-01  0.00000000000E+00 0.  1.
     999901    1    3    3    0    0 -0.51581685631E-01  0.40427801300E-02  0.10709007652E+00  0.88800073134E+00  0.88000000000E+00 0. -1.
        -11    1    4    4    0    0  0.33935172947E-01  0.84740776022E-03 -0.63347520677E-01  0.71871298582E-01  0.51100000000E-03 0.  1.
         11    1    4    4    0    0  0.40735550184E-01 -0.97883254475E-02 -0.43580900428E-01  0.60454547943E-01  0.51100000000E-03 0. -1.
</event>
<event>
 8    1  0.1081309E+005  0.1043930E+01  0.7957747E-01            NaN
         13   -1    0    0    0    0  0.00000000000E+00  0.00000000000E+00  0.74505805969E-08  0.10566000000E+00  0.10566000000E+00 0. -1.
     999900   -1    0    0    0    0 -0.00000000000E+00 -0.00000000000E+00 -0.74505805969E-08  0.93827000000E+00  0.93827000000E+00 0.  1.
     999902    2    1    2    0    0 -0.13585065443E-01 -0.16581149723E-01 -0.96667738767E-02  0.10204154291E+01  0.10201444568E+01 0.  0.
     999903    2    3    3    0    0 -0.56751976377E-01  0.87664763224E-01  0.75673090219E-01  0.12911666604E+00  0.62289109499E-02 0.  0.
         14    1    1    2    0    0  0.13585065443E-01  0.16581149723E-01  0.96667738767E-02  0.23514570938E-01  0.00000000000E+00 0. -1.
     999901    1    3    3    0    0  0.43166910934E-01 -0.10424591295E+00 -0.85339864095E-01  0.89129876302E+00  0.88000000000E+00 0.  1.
        -11    1    4    4    0    0 -0.31300196186E-01  0.53451891835E-01  0.43344575529E-01  0.75603044719E-01  0.51100000000E-03 0. -1.
         11    1    4    4    0    0 -0.25451780192E-01  0.34212871388E-01  0.32328514689E-01  0.53513621318E-01  0.51100000000E-03 0.  1.
</event>
<event>
 8    1  0.1081309E+005  0.1043930E+01  0.7957747E-01            NaN
         13   -1    0    0    0    0  0.00000000000E+00  0.00000000000E+00  0.74505805969E-08  0.10566000000E+00  0.10566000000E+00 0. -1.
     999900   -1    0    0    0    0 -0.00000000000E+00 -0.00000000000E+00 -0.74505805969E-08  0.93827000000E+00  0.93827000000E+00 0. -1.
     999902    2    1    2    0    0 -0.11349318813E-01  0.10978198858E-01  0.17238370719E-01  0.10205528891E+01  0.10202851122E+01 0.  0.
     999903    2    3    3    0    0 -0.60814284642E-01  0.85872132918E-01  0.80114459668E-01  0.13375568189E+00  0.19996383715E-01 0.  0.
         14    1    1    2    0    0  0.11349318813E-01 -0.10978198858E-01 -0.17238370719E-01  0.23377110872E-01  0.00000000000E+00 0.  1.
     999901    1    3    3    0    0  0.49464965829E-01 -0.74893934059E-01 -0.62876088949E-01  0.88679720724E+00  0.88000000000E+00 0.  1.
        -11    1    4    4    0    0  0.41242796131E-03  0.76372940741E-02  0.72719759572E-02  0.10566035819E-01  0.51100000000E-03 0. -1.
         11    1    4    4    0    0 -0.61226712603E-01  0.78234838844E-01  0.72842483711E-01  0.12318964607E+00  0.51100000000E-03 0.  1.
</event>
<event>
 8    1  0.1081309E+005  0.1043930E+01  0.7957747E-01            NaN
         13   -1    0    0    0    0  0.00000000000E+00  0.00000000000E+00  0.74505805969E-08  0.10566000000E+00  0.10566000000E+00 0.  1.
     999900   -1    0    0    0    0 -0.00000000000E+00 -0.00000000000E+00 -0.74505805969E-08  0.93827000000E+00  0.93827000000E+00 0. -1.
     999902    2    1    2    0    0 -0.10955633193E-01  0.21405480777E-01 -0.79184288883E-03  0.10198707498E+01  0.10195869255E+01 0.  0.
     999903    2    3    3    0    0 -0.24992480322E-01  0.85016424368E-01 -0.96176632913E-01  0.13232264213E+00  0.20172268527E-01 0.  0.
         14    1    1    2    0    0  0.10955633193E-01 -0.21405480777E-01  0.79184288883E-03  0.24059250219E-01  0.00000000000E+00 0.  1.
     999901    1    3    3    0    0  0.14036847129E-01 -0.63610943591E-01  0.95384790024E-01  0.88754810765E+00  0.88000000000E+00 0.  1.
        -11    1    4    4    0    0 -0.78006926631E-02  0.48643918980E-01 -0.64220103927E-01  0.80941735398E-01  0.51100000000E-03 0. -1.
         11    1    4    4    0    0 -0.17191787659E-01  0.36372505388E-01 -0.31956528986E-01  0.51380906735E-01  0.51100000000E-03 0.  1.
</event>
<event>
 8    1  0.1081309E+005  0.1043930E+01  0.7957747E-01            NaN
         13   -1    0    0    0    0  0.00000000000E+00  0.00000000000E+00  0.74505805969E-08  0.10566000000E+00  0.10566000000E+00 0.  1.
     999900   -1    0    0    0    0 -0.00000000000E+00 -0.00000000000E+00 -0.74505805969E-08  0.93827000000E+00  0.93827000000E+00 0.  1.
     999902    2    1    2    0    0 -0.21710398744E-01  0.67670916273E-02  0.96837201619E-02  0.10192134189E+01  0.10189136784E+01 0.  0.
     999903    2    3    3    0    0 -0.67842982315E-01  0.85176161909E-01 -0.69926197780E-01  0.13094885442E+00  0.20007012017E-01 0.  0.
         14    1    1    2    0    0  0.21710398744E-01 -0.67670916273E-02 -0.96837201619E-02  0.24716581052E-01  0.00000000000E+00 0. -1.
     999901    1    3    3    0    0  0.46132583571E-01 -0.78409070282E-01  0.79609917941E-01  0.88826456453E+00  0.88000000000E+00 0.  1.
        -11    1    4    4    0    0 -0.24992524118E-01  0.18122874103E-01 -0.23663781071E-01  0.38901163004E-01  0.51100000000E-03 0.  1.
         11    1    4    4    0    0 -0.42850458197E-01  0.67053287807E-01 -0.46262416709E-01  0.92047691411E-01  0.51100000000E-03 0. -1.
</event>
<event>
 8    1  0.1081309E+005  0.1043930E+01  0.7957747E-01            NaN
         13   -1    0    0    0    0  0.00000000000E+00  0.00000000000E+00  0.74505805969E-08  0.10566000000E+00  0.10566000000E+00 0. -1.
     999900   -1    0    0    0    0 -0.00000000000E+00 -0.00000000000E+00 -0.74505805969E-08  0.93827000000E+00  0.93827000000E+00 0. -1.
     999902    2    1    2    0    0  0.17779159710E-01  0.12009383090E-01 -0.68505219168E-02  0.10214077121E+01  0.10211593709E+01 0.  0.
     999903    2    3    3    0    0  0.50406310447E-01  0.28402253319E-01  0.11684257089E+00  0.13200721829E+00  0.20645463963E-01 0.  0.
         14    1    1    2    0    0 -0.17779159710E-01 -0.12009383090E-01  0.68505219168E-02  0.22522287910E-01  0.00000000000E+00 0.  1.
     999901    1    3    3    0    0 -0.32627150738E-01 -0.16392870229E-01 -0.12369309281E+00  0.88940049380E+00  0.88000000000E+00 0. -1.
        -11    1    4    4    0    0  0.29241286110E-01  0.19867878486E-01  0.90439419873E-01  0.97104764027E-01  0.51100000000E-03 0.  1.
         11    1    4    4    0    0  0.21165024338E-01  0.85343748324E-02  0.26403151018E-01  0.34902454264E-01  0.51100000000E-03 0. -1.
</event>
<event>
 8    1  0.1081309E+005  0.1043930E+01  0.7957747E-01            NaN
         13   -1    0    0    0    0  0.00000000000E+00  0.00000000000E+00  0.74505805969E-08  0.10566000000E+00  0.10566000000E+00 0. -1.
     999900   -1    0    0    0    0 -0.00000000000E+00 -0.00000000000E+00 -0.74505805969E-08  0.93827000000E+00  0.93827000000E+00 0. -1.
     999902    2    1    2    0    0  0.12860145874E-01 -0.34924136304E-02  0.11337942669E-01  0.10264334504E+01  0.10262843167E+01 0.  0.
     999903    2    3    3    0    0 -0.51985788128E-01  0.40847946270E-01 -0.11429531162E+00  0.13404632740E+00  0.23106768459E-01 0.  0.
         14    1    1    2    0    0 -0.12860145874E-01  0.34924136304E-02 -0.11337942669E-01  0.17496549626E-01  0.00000000000E+00 0. -1.
     999901    1    3    3    0    0  0.64845934002E-01 -0.44340359901E-01  0.12563325429E+00  0.89238712298E+00  0.88000000000E+00 0.  1.
        -11    1    4    4    0    0 -0.23213763974E-01  0.32017972834E-01 -0.57873862946E-01  0.70097607345E-01  0.51100000000E-03 0.  1.
         11    1    4    4    0    0 -0.28772024154E-01  0.88299734359E-02 -0.56421448673E-01  0.63948720051E-01  0.51100000000E-03 0. -1.
</event>
<event>
 8    1  0.1081309E+005  0.1043930E+01  0.7957747E-01            NaN
         13   -1    0    0    0    0  0.00000000000E+00  0.00000000000E+00  0.74505805969E-08  0.10566000000E+00  0.10566000000E+00 0. -1.
     999900   -1    0    0    0    0 -0.00000000000E+00 -0.00000000000E+00 -0.74505805969E-08  0.93827000000E+00  0.93827000000E+00 0. -1.
     999902    2    1    2    0    0 -0.68280220758E-02 -0.20002497780E-01  0.44348381557E-02  0.10223339450E+01  0.10221058191E+01 0.  0.
     999903    2    3    3    0    0  0.86509950761E-01 -0.97452467107E-01 -0.21954311454E-01  0.13362315843E+00  0.19804084184E-01 0.  0.
         14    1    1    2    0    0  0.68280220758E-02  0.20002497780E-01 -0.44348381557E-02  0.21596055019E-01  0.00000000000E+00 0.  1.
     999901    1    3    3    0    0 -0.93337972837E-01  0.77449969327E-01  0.26389149610E-01  0.88871078656E+00  0.88000000000E+00 0.  1.
        -11    1    4    4    0    0  0.72392457147E-01 -0.74556948634E-01 -0.10734662364E-01  0.10447440135E+00  0.51100000000E-03 0.  1.
         11    1    4    4    0    0  0.14117493615E-01 -0.22895518473E-01 -0.11219649090E-01  0.29148757071E-01  0.51100000000E-03 0. -1.
</event>
<event>
 8    1  0.1081309E+005  0.1043930E+01  0.7957747E-01            NaN
         13   -1    0    0    0    0  0.00000000000E+00  0.00000000000E+00  0.74505805969E-08  0.10566000000E+00  0.10566000000E+00 0. -1.
     999900   -1    0    0    0    0 -0.00000000000E+00 -0.00000000000E+00 -0.74505805969E-08  0.93827000000E+00  0.93827000000E+00 0. -1.
     999902    2    1    2    0    0  0.13865127843E-01  0.17549818753E-01  0.93887046104E-02  0.10196733374E+01  0.10193847798E+01 0.  0.
     999903    2    3    3    0    0  0.49472700428E-01  0.10714137864E+00  0.58125042324E-01  0.13306757523E+00  0.20040856446E-01 0.  0.
         14    1    1    2    0    0 -0.13865127843E-01 -0.17549818753E-01 -0.93887046104E-02  0.24256662644E-01  0.00000000000E+00 0.  1.
     999901    1    3    3    0    0 -0.35607572585E-01 -0.89591559886E-01 -0.48736337714E-01  0.88660576213E+00  0.88000000000E+00 0.  1.
        -11    1    4    4    0    0  0.48367085071E-01  0.97686061896E-01  0.47833185553E-01  0.11903871794E+00  0.51100000000E-03 0.  1.
         11    1    4    4    0    0  0.11056153565E-02  0.94553167426E-02  0.10291856771E-01  0.14028857288E-01  0.51100000000E-03 0. -1.
</event>
<event>
 8    1  0.1081309E+005  0.1043930E+01  0.7957747E-01            NaN
         13   -1    0    0    0    0  0.00000000000E+00  0.00000000000E+00  0.74505805969E-08  0.10566000000E+00  0.10566000000E+00 0.  1.
     999900   -1    0    0    0    0 -0.00000000000E+00 -0.00000000000E+00 -0.74505805969E-08  0.93827000000E+00  0.93827000000E+00 0. -1.
     999902    2    1    2    0    0  0.32575179430E-02 -0.23798425963E-01 -0.71387322564E-02  0.10188713089E+01  0.10185631085E+01 0.  0.
     999903    2    3    3    0    0 -0.74214736241E-01  0.95038968974E-01 -0.35000873086E-01  0.12707504545E+00  0.19564594584E-01 0.  0.
         14    1    1    2    0    0 -0.32575179430E-02  0.23798425963E-01  0.71387322564E-02  0.25058691101E-01  0.00000000000E+00 0. -1.
     999901    1    3    3    0    0  0.77472254184E-01 -0.11883739494E+00  0.27862140830E-01  0.89179626345E+00  0.88000000000E+00 0.  1.
        -11    1    4    4    0    0 -0.17165631037E-01  0.24258430237E-01 -0.17577894548E-03  0.29722421599E-01  0.51100000000E-03 0. -1.
         11    1    4    4    0    0 -0.57049105203E-01  0.70780538737E-01 -0.34825094141E-01  0.97352623854E-01  0.51100000000E-03 0.  1.
</event>
<event>
 8    1  0.1081309E+005  0.1043930E+01  0.7957747E-01            NaN
         13   -1    0    0    0    0  0.00000000000E+00  0.00000000000E+00  0.74505805969E-08  0.10566000000E+00  0.10566000000E+00 0.  1.
     999900   -1    0    0    0    0 -0.00000000000E+00 -0.00000000000E+00 -0.74505805969E-08  0.93827000000E+00  0.93827000000E+00 0.  1.
     999902    2    1    2    0    0 -0.12138041647E-01 -0.38712650465E-02 -0.20270774699E-01  0.10199879229E+01  0.10197068892E+01 0.  0.
     999903    2    3    3    0    0 -0.71747671292E-01  0.81641976628E-01  0.67547240315E-01  0.12949489868E+00  0.19828223005E-01 0.  0.
         14    1    1    2    0    0  0.12138041647E-01  0.38712650465E-02  0.20270774699E-01  0.23942077082E-01  0.00000000000E+00 0.  1.
     999901    1    3    3    0    0  0.59609629644E-01 -0.85513241675E-01 -0.87818015014E-01  0.89049302423E+00  0.88000000000E+00 0.  1.
        -11    1    4    4    0    0 -0.62783197029E-01  0.59475248017E-01  0.50817915022E-01  0.10030830755E+00  0.51100000000E-03 0. -1.
         11    1    4    4    0    0 -0.89644742626E-02  0.22166728612E-01  0.16729325292E-01  0.29186591132E-01  0.51100000000E-03 0.  1.
</event>
<event>
 8    1  0.1081309E+005  0.1043930E+01  0.7957747E-01            NaN
         13   -1    0    0    0    0  0.00000000000E+00  0.00000000000E+00  0.74505805969E-08  0.10566000000E+00  0.10566000000E+00 0. -1.
     999900   -1    0    0    0    0 -0.00000000000E+00 -0.00000000000E+00 -0.74505805969E-08  0.93827000000E+00  0.93827000000E+00 0. -1.
     999902    2    1    2    0    0  0.12697013284E-01  0.19108185888E-01  0.77666549793E-02  0.10197089793E+01  0.10194212793E+01 0.  0.
     999903    2    3    3    0    0  0.12163259518E+00 -0.44845760835E-02  0.46155611857E-01  0.13184790265E+00  0.20950639460E-01 0.  0.
         14    1    1    2    0    0 -0.12697013284E-01 -0.19108185888E-01 -0.77666549793E-02  0.24221020702E-01  0.00000000000E+00 0.  1.
     999901    1    3    3    0    0 -0.10893558190E+00  0.23592761971E-01 -0.38388956877E-01  0.88786107665E+00  0.88000000000E+00 0.  1.
        -11    1    4    4    0    0  0.51613419372E-01 -0.10937305777E-01  0.25220213361E-01  0.58479825580E-01  0.51100000000E-03 0. -1.
         11    1    4    4    0    0  0.70019175809E-01  0.64527296937E-02  0.20935398495E-01  0.73368077068E-01  0.51100000000E-03 0.  1.
</event>
<event>
 8    1  0.1081309E+005  0.1043930E+01  0.7957747E-01            NaN
         13   -1    0    0    0    0  0.00000000000E+00  0.00000000000E+00  0.74505805969E-08  0.10566000000E+00  0.10566000000E+00 0.  1.
     999900   -1    0    0    0    0 -0.00000000000E+00 -0.00000000000E+00 -0.74505805969E-08  0.93827000000E+00  0.93827000000E+00 0.  1.
     999902    2    1    2    0    0  0.91866595965E-02  0.18099394390E-01  0.10131561273E-01  0.10212445129E+01  0.10209925190E+01 0.  0.
     999903    2    3    3    0    0  0.12433602743E+00  0.23193455970E-01  0.38144394144E-01  0.13328615509E+00  0.17686724303E-01 0.  0.
         14    1    1    2    0    0 -0.91866595965E-02 -0.18099394390E-01 -0.10131561273E-01  0.22685487115E-01  0.00000000000E+00 0.  1.
     999901    1    3    3    0    0 -0.11514936783E+00 -0.50940615798E-02 -0.28012832871E-01  0.88795835780E+00  0.88000000000E+00 0. -1.
        -11    1    4    4    0    0  0.85026254987E-01  0.78358276279E-02  0.22831269981E-01  0.88387738073E-01  0.51100000000E-03 0.  1.
         11    1    4    4    0    0  0.39309772444E-01  0.15357628342E-01  0.15313124163E-01  0.44898417015E-01  0.51100000000E-03 0. -1.
</event>
<event>
 8    1  0.1081309E+005  0.1043930E+01  0.7957747E-01            NaN
         13   -1    0    0    0    0  0.00000000000E+00  0.00000000000E+00  0.74505805969E-08  0.10566000000E+00  0.10566000000E+00 0.  1.
     999900   -1    0    0    0    0 -0.00000000000E+00 -0.00000000000E+00 -0.74505805969E-08  0.93827000000E+00  0.93827000000E+00 0. -1.
     999902    2    1    2    0    0 -0.20915467095E-01 -0.10906905873E-01  0.12047072739E-02  0.10203107562E+01  0.10200373378E+01 0.  0.
     999903    2    3    3    0    0  0.23455716510E-01  0.10115744137E+00 -0.73739133844E-01  0.12893889259E+00  0.20119134677E-01 0.  0.
         14    1    1    2    0    0  0.20915467095E-01  0.10906905873E-01 -0.12047072739E-02  0.23619243831E-01  0.00000000000E+00 0. -1.
     999901    1    3    3    0    0 -0.44371183605E-01 -0.11206434725E+00  0.74943841118E-01  0.89137186358E+00  0.88000000000E+00 0.  1.
        -11    1    4    4    0    0  0.15347763446E-01  0.62043576955E-01 -0.33200482882E-01  0.72024249172E-01  0.51100000000E-03 0.  1.
         11    1    4    4    0    0  0.81079530642E-02  0.39113864418E-01 -0.40538650962E-01  0.56914643419E-01  0.51100000000E-03 0. -1.
</event>
<event>
 8    1  0.1338093E+005  0.1043930E+01  0.7957747E-01            NaN
         13   -1    0    0    0    0  0.00000000000E+00  0.00000000000E+00  0.74505805969E-08  0.10566000000E+00  0.10566000000E+00 0.  1.
     999900   -1    0    0    0    0 -0.00000000000E+00 -0.00000000000E+00 -0.74505805969E-08  0.93827000000E+00  0.93827000000E+00 0.  1.
     999902    2    1    2    0    0  0.91571676880E-02  0.14006412925E-01  0.16339394872E-01  0.10205417733E+01  0.10202737387E+01 0.  0.
     999903    2    3    3    0    0  0.67752018954E-01 -0.10761838656E+00 -0.14668639884E-01  0.12970652105E+00  0.20894004134E-01 0.  0.
         14    1    1    2    0    0 -0.91571676880E-02 -0.14006412925E-01 -0.16339394872E-01  0.23388226694E-01  0.00000000000E+00 0. -1.
     999901    1    3    3    0    0 -0.58594851266E-01  0.12162479948E+00  0.31008034757E-01  0.89083525226E+00  0.88000000000E+00 0.  1.
        -11    1    4    4    0    0  0.22257362908E-01 -0.54720227777E-01 -0.80186704742E-02  0.59617562251E-01  0.51100000000E-03 0.  1.
         11    1    4    4    0    0  0.45494656046E-01 -0.52898158782E-01 -0.66499694100E-02  0.70088958798E-01  0.51100000000E-03 0. -1.
</event>
<event>
 8    1  0.1081309E+005  0.1043930E+01  0.7957747E-01            NaN
         13   -1    0    0    0    0  0.00000000000E+00  0.00000000000E+00  0.74505805969E-08  0.10566000000E+00  0.10566000000E+00 0. -1.
     999900   -1    0    0    0    0 -0.00000000000E+00 -0.00000000000E+00 -0.74505805969E-08  0.93827000000E+00  0.93827000000E+00 0.  1.
     999902    2    1    2    0    0  0.11661080034E-01  0.20546989706E-01 -0.59900626413E-02  0.10195570555E+01  0.10192656911E+01 0.  0.
     999903    2    3    3    0    0 -0.11263505703E+00  0.16729307128E-01  0.56370855342E-01  0.12862889426E+00  0.20029810698E-01 0.  0.
         14    1    1    2    0    0 -0.11661080034E-01 -0.20546989706E-01  0.59900626413E-02  0.24372944508E-01  0.00000000000E+00 0.  1.
     999901    1    3    3    0    0  0.12429613706E+00  0.38176825783E-02 -0.62360917984E-01  0.89092816123E+00  0.88000000000E+00 0.  1.
        -11    1    4    4    0    0 -0.67268587882E-01  0.52613667560E-02  0.23538524557E-01  0.71463754135E-01  0.51100000000E-03 0.  1.
         11    1    4    4    0    0 -0.45366469149E-01  0.11467940372E-01  0.32832330786E-01  0.57165140122E-01  0.51100000000E-03 0. -1.
</event>
<event>
 8    1  0.1081309E+005  0.1043930E+01  0.7957747E-01            NaN
         13   -1    0    0    0    0  0.00000000000E+00  0.00000000000E+00  0.74505805969E-08  0.10566000000E+00  0.10566000000E+00 0.  1.
     999900   -1    0    0    0    0 -0.00000000000E+00 -0.00000000000E+00 -0.74505805969E-08  0.93827000000E+00  0.93827000000E+00 0.  1.
     999902    2    1    2    0    0 -0.26508722403E-02  0.18932471960E-01  0.14971348525E-01  0.10196481777E+01  0.10193590140E+01 0.  0.
     999903    2    3    3    0    0  0.21003981549E-01  0.12883193876E+00 -0.61971826713E-02  0.13224435100E+00  0.20281213306E-01 0.  0.
         14    1    1    2    0    0  0.26508722403E-02 -0.18932471960E-01 -0.14971348525E-01  0.24281822312E-01  0.00000000000E+00 0.  1.
     999901    1    3    3    0    0 -0.23654853789E-01 -0.10989946680E+00  0.21168531196E-01  0.88740382669E+00  0.88000000000E+00 0.  1.
        -11    1    4    4    0    0  0.11895850370E-01  0.97484529042E-01 -0.12475974027E-01  0.98998261134E-01  0.51100000000E-03 0. -1.
         11    1    4    4    0    0  0.91081311788E-02  0.31347409715E-01  0.62787913558E-02  0.33246089865E-01  0.51100000000E-03 0.  1.
</event>
<event>
 8    1  0.1081309E+005  0.1043930E+01  0.7957747E-01            NaN
         13   -1    0    0    0    0  0.00000000000E+00  0.00000000000E+00  0.74505805969E-08  0.10566000000E+00  0.10566000000E+00 0. -1.
     999900   -1    0    0    0    0 -0.00000000000E+00 -0.00000000000E+00 -0.74505805969E-08  0.93827000000E+00  0.93827000000E+00 0. -1.
     999902    2    1    2    0    0  0.16095650580E-02  0.22819943639E-01 -0.60744824364E-02  0.10202606134E+01  0.10199860192E+01 0.  0.
     999903    2    3    3    0    0  0.71728173340E-01 -0.18012318378E-01  0.10464223986E+00  0.12961922343E+00  0.19538942015E-01 0.  0.
         14    1    1    2    0    0 -0.16095650580E-02 -0.22819943639E-01  0.60744824364E-02  0.23669386646E-01  0.00000000000E+00 0. -1.
     999901    1    3    3    0    0 -0.70118608282E-01  0.40832262017E-01 -0.11071672230E+00  0.89064138992E+00  0.88000000000E+00 0. -1.
        -11    1    4    4    0    0  0.11396169374E-01 -0.10830754635E-01  0.21097618219E-01  0.26316316951E-01  0.51100000000E-03 0. -1.
         11    1    4    4    0    0  0.60332003966E-01 -0.71815637434E-02  0.83544621643E-01  0.10330290648E+00  0.51100000000E-03 0.  1.
</event>
<event>
 8    1  0.1081309E+005  0.1043930E+01  0.7957747E-01            NaN
         13   -1    0    0    0    0  0.00000000000E+00  0.00000000000E+00  0.74505805969E-08  0.10566000000E+00  0.10566000000E+00 0. -1.
     999900   -1    0    0    0    0 -0.00000000000E+00 -0.00000000000E+00 -0.74505805969E-08  0.93827000000E+00  0.93827000000E+00 0.  1.
     999902    2    1    2    0    0 -0.11505147759E-01 -0.45565429705E-02 -0.20711847650E-01  0.10198030205E+01  0.10195175768E+01 0.  0.
     999903    2    3    3    0    0 -0.13300526637E-02 -0.37637402777E-01 -0.12573075226E+00  0.13288315589E+00  0.20769398788E-01 0.  0.
         14    1    1    2    0    0  0.11505147759E-01  0.45565429705E-02  0.20711847650E-01  0.24126979543E-01  0.00000000000E+00 0. -1.
     999901    1    3    3    0    0 -0.10175095095E-01  0.33080859806E-01  0.10501890461E+00  0.88691986457E+00  0.88000000000E+00 0. -1.
        -11    1    4    4    0    0  0.89673734817E-02 -0.24942562446E-01 -0.82933954615E-01  0.87068060491E-01  0.51100000000E-03 0. -1.
         11    1    4    4    0    0 -0.10297426145E-01 -0.12694840330E-01 -0.42796797646E-01  0.45815095394E-01  0.51100000000E-03 0.  1.
</event>
<event>
 8    1  0.1081309E+005  0.1043930E+01  0.7957747E-01            NaN
         13   -1    0    0    0    0  0.00000000000E+00  0.00000000000E+00  0.74505805969E-08  0.10566000000E+00  0.10566000000E+00 0. -1.
     999900   -1    0    0    0    0 -0.00000000000E+00 -0.00000000000E+00 -0.74505805969E-08  0.93827000000E+00  0.93827000000E+00 0. -1.
     999902    2    1    2    0    0 -0.50087080402E-02  0.38577204643E-02  0.23074515122E-01  0.10200050672E+01  0.10197244405E+01 0.  0.
     999903    2    3    3    0    0  0.73226421334E-01  0.93070148819E-01  0.53516573684E-01  0.13151966392E+00  0.20229605918E-01 0.  0.
         14    1    1    2    0    0  0.50087080402E-02 -0.38577204643E-02 -0.23074515122E-01  0.23924932843E-01  0.00000000000E+00 0. -1.
     999901    1    3    3    0    0 -0.78235129374E-01 -0.89212428354E-01 -0.30442058562E-01  0.88848540324E+00  0.88000000000E+00 0. -1.
        -11    1    4    4    0    0  0.48343947416E-01  0.49149801196E-01  0.37922811190E-01  0.78684438988E-01  0.51100000000E-03 0. -1.
         11    1    4    4    0    0  0.24882473918E-01  0.43920347623E-01  0.15593762494E-01  0.52835224929E-01  0.51100000000E-03 0.  1.
</event>
<event>
 8    1  0.1081309E+005  0.1043930E+01  0.7957747E-01            NaN
         13   -1    0    0    0    0  0.00000000000E+00  0.00000000000E+00  0.74505805969E-08  0.10566000000E+00  0.10566000000E+00 0.  1.
     999900   -1    0    0    0    0 -0.00000000000E+00 -0.00000000000E+00 -0.74505805969E-08  0.93827000000E+00  0.93827000000E+00 0. -1.
     999902    2    1    2    0    0  0.16228646373E-01 -0.74141807360E-02 -0.14098819608E-01  0.10211898207E+01  0.10209365966E+01 0.  0.
     999903    2    3    3    0    0  0.51754367471E-01  0.28583138844E-01  0.11447491906E+00  0.13040977484E+00  0.20166603610E-01 0.  0.
         14    1    1    2    0    0 -0.16228646373E-01  0.74141807360E-02  0.14098819608E-01  0.22740179274E-01  0.00000000000E+00 0.  1.
     999901    1    3    3    0    0 -0.35525721098E-01 -0.35997319580E-01 -0.12857373867E+00  0.89078004589E+00  0.88000000000E+00 0. -1.
        -11    1    4    4    0    0  0.43564563224E-01  0.31439290428E-01  0.10031858588E+00  0.11379973614E+00  0.51100000000E-03 0.  1.
         11    1    4    4    0    0  0.81898042474E-02 -0.28561515840E-02  0.14156333180E-01  0.16610038699E-01  0.51100000000E-03 0. -1.
</event>
<event>
 8    1  0.1081309E+005  0.1043930E+01  0.7957747E-01            NaN
         13   -1    0    0    0    0  0.00000000000E+00  0.00000000000E+00  0.74505805969E-08  0.10566000000E+00  0.10566000000E+00 0.  1.
     999900   -1    0    0    0    0 -0.00000000000E+00 -0.00000000000E+00 -0.74505805969E-08  0.93827000000E+00  0.93827000000E+00 0.  1.
     999902    2    1    2    0    0  0.67927686848E-02 -0.18145821260E-01 -0.14607857144E-01  0.10196647568E+01  0.10193759926E+01 0.  0.
     999903    2    3    3    0    0  0.95637465649E-01 -0.85392252529E-01 -0.27134863403E-01  0.13255011453E+00  0.19871346788E-01 0.  0.
         14    1    1    2    0    0 -0.67927686848E-02  0.18145821260E-01  0.14607857144E-01  0.24265243167E-01  0.00000000000E+00 0.  1.
     999901    1    3    3    0    0 -0.88844696964E-01  0.67246431269E-01  0.12527006259E-01  0.88711464230E+00  0.88000000000E+00 0.  1.
        -11    1    4    4    0    0  0.17227305054E-01 -0.25969522794E-01 -0.96189249782E-02  0.32618721500E-01  0.51100000000E-03 0. -1.
         11    1    4    4    0    0  0.78410160594E-01 -0.59422729735E-01 -0.17515938425E-01  0.99931393033E-01  0.51100000000E-03 0.  1.
</event>
<event>
 8    1  0.1081309E+005  0.1043930E+01  0.7957747E-01            NaN
         13   -1    0    0    0    0  0.00000000000E+00  0.00000000000E+00  0.74505805969E-08  0.10566000000E+00  0.10566000000E+00 0.  1.
     999900   -1    0    0    0    0 -0.00000000000E+00 -0.00000000000E+00 -0.74505805969E-08  0.93827000000E+00  0.93827000000E+00 0. -1.
     999902    2    1    2    0    0  0.22074431179E-01  0.67858653184E-03 -0.83994716546E-02  0.10203017941E+01  0.10200281657E+01 0.  0.
     999903    2    3    3    0    0 -0.12082810411E+00  0.34948795327E-01 -0.14173503007E-01  0.12809726525E+00  0.19676690219E-01 0.  0.
         14    1    1    2    0    0 -0.22074431179E-01 -0.67858653184E-03  0.83994716546E-02  0.23628205934E-01  0.00000000000E+00 0.  1.
     999901    1    3    3    0    0  0.14290253529E+00 -0.34270208795E-01  0.57740313522E-02  0.89220452882E+00  0.88000000000E+00 0. -1.
        -11    1    4    4    0    0 -0.11746939391E+00  0.29939873265E-01 -0.12880014039E-01  0.12190820480E+00  0.51100000000E-03 0. -1.
         11    1    4    4    0    0 -0.33587102083E-02  0.50089220613E-02 -0.12934889678E-02  0.61890604448E-02  0.51100000000E-03 0.  1.
</event>
<event>
 8    1  0.1081309E+005  0.1043930E+01  0.7957747E-01            NaN
         13   -1    0    0    0    0  0.00000000000E+00  0.00000000000E+00  0.74505805969E-08  0.10566000000E+00  0.10566000000E+00 0.  1.
     999900   -1    0    0    0    0 -0.00000000000E+00 -0.00000000000E+00 -0.74505805969E-08  0.93827000000E+00  0.93827000000E+00 0. -1.
     999902    2    1    2    0    0  0.72645438635E-02 -0.19177497837E-02 -0.22659065486E-01  0.10200577439E+01  0.10197783663E+01 0.  0.
     999903    2    3    3    0    0  0.83694543245E-01 -0.73565974405E-01  0.63380393613E-01  0.12967703803E+00  0.19553279469E-01 0.  0.
         14    1    1    2    0    0 -0.72645438635E-02  0.19177497837E-02  0.22659065486E-01  0.23872256083E-01  0.00000000000E+00 0.  1.
     999901    1    3    3    0    0 -0.76429999382E-01  0.71648224622E-01 -0.86039459100E-01  0.89038070589E+00  0.88000000000E+00 0. -1.
        -11    1    4    4    0    0  0.66669659651E-01 -0.60787569084E-01  0.42062096637E-01  0.99546236331E-01  0.51100000000E-03 0.  1.
         11    1    4    4    0    0  0.17024883594E-01 -0.12778405321E-01  0.21318296977E-01  0.30130801697E-01  0.51100000000E-03 0. -1.
</event>
<event>
 8    1  0.1081309E+005  0.1043930E+01  0.7957747E-01            NaN
         13   -1    0    0    0    0  0.00000000000E+00  0.00000000000E+00  0.74505805969E-08  0.10566000000E+00  0.10566000000E+00 0.  1.
     999900   -1    0    0    0    0 -0.00000000000E+00 -0.00000000000E+00 -0.74505805969E-08  0.93827000000E+00  0.93827000000E+00 0.  1.
     999902    2    1    2    0    0 -0.80633702273E-02  0.17055676685E-01  0.10536967255E-01  0.10223211656E+01  0.10220927667E+01 0.  0.
     999903    2    3    3    0    0  0.98951787704E-01  0.83270572178E-01  0.24801901534E-01  0.13325415754E+00  0.20398325945E-01 0.  0.
         14    1    1    2    0    0  0.80633702273E-02 -0.17055676685E-01 -0.10536967255E-01  0.21608834433E-01  0.00000000000E+00 0. -1.
     999901    1    3    3    0    0 -0.10701515793E+00 -0.66214895493E-01 -0.14264934279E-01  0.88906700803E+00  0.88000000000E+00 0.  1.
        -11    1    4    4    0    0  0.60003440698E-01  0.38031392081E-01  0.99438163705E-02  0.71735209516E-01  0.51100000000E-03 0. -1.
         11    1    4    4    0    0  0.38948347006E-01  0.45239180097E-01  0.14858085163E-01  0.61518948025E-01  0.51100000000E-03 0.  1.
</event>
<event>
 8    1  0.1081309E+005  0.1043930E+01  0.7957747E-01            NaN
         13   -1    0    0    0    0  0.00000000000E+00  0.00000000000E+00  0.74505805969E-08  0.10566000000E+00  0.10566000000E+00 0.  1.
     999900   -1    0    0    0    0 -0.00000000000E+00 -0.00000000000E+00 -0.74505805969E-08  0.93827000000E+00  0.93827000000E+00 0. -1.
     999902    2    1    2    0    0  0.10311444116E-01  0.21265710007E-01 -0.26312523742E-02  0.10201501810E+01  0.10198729882E+01 0.  0.
     999903    2    3    3    0    0 -0.10296743265E+00  0.56474203076E-02 -0.76295650179E-01  0.12969946458E+00  0.19150439498E-01 0.  0.
         14    1    1    2    0    0 -0.10311444116E-01 -0.21265710007E-01  0.26312523742E-02  0.23779818984E-01  0.00000000000E+00 0. -1.
     999901    1    3    3    0    0  0.11327887677E+00  0.15618289699E-01  0.73664397805E-01  0.89045071643E+00  0.88000000000E+00 0.  1.
        -11    1    4    4    0    0 -0.76060685571E-01  0.18252847121E-02 -0.65701683633E-01  0.10052627471E+00  0.51100000000E-03 0.  1.
         11    1    4    4    0    0 -0.26906747083E-01  0.38221355955E-02 -0.10593966546E-01  0.29173189871E-01  0.51100000000E-03 0. -1.
</event>
<event>
 8    1  0.1081309E+005  0.1043930E+01  0.7957747E-01            NaN
         13   -1    0    0    0    0  0.00000000000E+00  0.00000000000E+00  0.74505805969E-08  0.10566000000E+00  0.10566000000E+00 0.  1.
     999900   -1    0    0    0    0 -0.00000000000E+00 -0.00000000000E+00 -0.74505805969E-08  0.93827000000E+00  0.93827000000E+00 0.  1.
     999902    2    1    2    0    0  0.12285839366E-01  0.21688656772E-01  0.56939989259E-02  0.10183612436E+01  0.10180402060E+01 0.  0.
     999903    2    3    3    0    0  0.11916394346E+00 -0.25668056010E-01  0.40349074300E-01  0.12995448897E+00  0.20030648661E-01 0.  0.
         14    1    1    2    0    0 -0.12285839366E-01 -0.21688656772E-01 -0.56939989259E-02  0.25568756428E-01  0.00000000000E+00 0. -1.
     999901    1    3    3    0    0 -0.10687810409E+00  0.47356712782E-01 -0.34655075374E-01  0.88840675461E+00  0.88000000000E+00 0.  1.
        -11    1    4    4    0    0  0.53440508526E-01 -0.14680209713E-01  0.28323706857E-01  0.62240581615E-01  0.51100000000E-03 0. -1.
         11    1    4    4    0    0  0.65723434933E-01 -0.10987846297E-01  0.12025367443E-01  0.67713907351E-01  0.51100000000E-03 0.  1.
</event>
<event>
 8    1  0.1081309E+005  0.1043930E+01  0.7957747E-01            NaN
         13   -1    0    0    0    0  0.00000000000E+00  0.00000000000E+00  0.74505805969E-08  0.10566000000E+00  0.10566000000E+00 0.  1.
     999900   -1    0    0    0    0 -0.00000000000E+00 -0.00000000000E+00 -0.74505805969E-08  0.93827000000E+00  0.93827000000E+00 0. -1.
     999902    2    1    2    0    0  0.11008873012E-02  0.23413660299E-01 -0.20834134654E-02  0.10203980631E+01  0.10201266858E+01 0.  0.
     999903    2    3    3    0    0 -0.37959214102E-01  0.11573324625E+00 -0.50096169276E-01  0.13340661886E+00  0.21274716417E-01 0.  0.
         14    1    1    2    0    0 -0.11008873012E-02 -0.23413660299E-01  0.20834134654E-02  0.23531936875E-01  0.00000000000E+00 0.  1.
     999901    1    3    3    0    0  0.39060101403E-01 -0.92319585947E-01  0.48012755811E-01  0.88699144426E+00  0.88000000000E+00 0.  1.
        -11    1    4    4    0    0  0.81413061945E-03  0.24078767531E-01 -0.86931617707E-02  0.25618002207E-01  0.51100000000E-03 0.  1.
         11    1    4    4    0    0 -0.38773344721E-01  0.91654478715E-01 -0.41403007505E-01  0.10778861666E+00  0.51100000000E-03 0. -1.
</event>
<event>
 8    1  0.1081309E+005  0.1043930E+01  0.7957747E-01            NaN
         13   -1    0    0    0    0  0.00000000000E+00  0.00000000000E+00  0.74505805969E-08  0.10566000000E+00  0.10566000000E+00 0.  1.
     999900   -1    0    0    0    0 -0.00000000000E+00 -0.00000000000E+00 -0.74505805969E-08  0.93827000000E+00  0.93827000000E+00 0.  1.
     999902    2    1    2    0    0 -0.23330690760E-01 -0.71806738196E-02 -0.30937549670E-03  0.10195173205E+01  0.10192249937E+01 0.  0.
     999903    2    3    3    0    0  0.87669922534E-01  0.46420436928E-02  0.90585743379E-01  0.12782071545E+00  0.20610543596E-01 0.  0.
         14    1    1    2    0    0  0.23330690760E-01  0.71806738196E-02  0.30937549670E-03  0.24412679514E-01  0.00000000000E+00 0. -1.
     999901    1    3    3    0    0 -0.11100061329E+00 -0.11822717512E-01 -0.90895118876E-01  0.89169660504E+00  0.88000000000E+00 0. -1.
        -11    1    4    4    0    0  0.37149134581E-01  0.25786381762E-02  0.53179351099E-01  0.64923124380E-01  0.51100000000E-03 0. -1.
         11    1    4    4    0    0  0.50520787953E-01  0.20634055167E-02  0.37406392280E-01  0.62897591068E-01  0.51100000000E-03 0.  1.
</event>
<event>
 8    1  0.1081309E+005  0.1043930E+01  0.7957747E-01            NaN
         13   -1    0    0    0    0  0.00000000000E+00  0.00000000000E+00  0.74505805969E-08  0.10566000000E+00  0.10566000000E+00 0. -1.
     999900   -1    0    0    0    0 -0.00000000000E+00 -0.00000000000E+00 -0.74505805969E-08  0.93827000000E+00  0.93827000000E+00 0.  1.
     999902    2    1    2    0    0  0.42849861321E-02 -0.22132368860E-01  0.80520028809E-02  0.10199917961E+01  0.10197108543E+01 0.  0.
     999903    2    3    3    0    0 -0.12163986725E+00 -0.28656806409E-01 -0.29868300569E-01  0.13019542250E+00  0.21006256292E-01 0.  0.
         14    1    1    2    0    0 -0.42849861321E-02  0.22132368860E-01 -0.80520028809E-02  0.23938203940E-01  0.00000000000E+00 0.  1.
     999901    1    3    3    0    0  0.12592485338E+00  0.65244375490E-02  0.37920303450E-01  0.88979637356E+00  0.88000000000E+00 0. -1.
        -11    1    4    4    0    0 -0.99770050015E-01 -0.19979414155E-01 -0.16356419934E-01  0.10305839832E+00  0.51100000000E-03 0. -1.
         11    1    4    4    0    0 -0.21869817235E-01 -0.86773922537E-02 -0.13511880635E-01  0.27137024183E-01  0.51100000000E-03 0.  1.
</event>
<event>
 8    1  0.1081309E+005  0.1043930E+01  0.7957747E-01            NaN
         13   -1    0    0    0    0  0.00000000000E+00  0.00000000000E+00  0.74505805969E-08  0.10566000000E+00  0.10566000000E+00 0. -1.
     999900   -1    0    0    0    0 -0.00000000000E+00 -0.00000000000E+00 -0.74505805969E-08  0.93827000000E+00  0.93827000000E+00 0. -1.
     999902    2    1    2    0    0  0.53409143708E-02 -0.18611205529E-01 -0.10590590910E-01  0.10218604972E+01  0.10216221478E+01 0.  0.
     999903    2    3    3    0    0 -0.12250202886E+00 -0.84285241141E-02 -0.44071906036E-01  0.13193437466E+00  0.19661109339E-01 0.  0.
         14    1    1    2    0    0 -0.53409143708E-02  0.18611205529E-01  0.10590590910E-01  0.22069502790E-01  0.00000000000E+00 0. -1.
     999901    1    3    3    0    0  0.12784294324E+00 -0.10182681415E-01  0.33481315125E-01  0.88992612255E+00  0.88000000000E+00 0. -1.
        -11    1    4    4    0    0 -0.59453993434E-01  0.54249387564E-02 -0.23799272288E-01  0.64271873928E-01  0.51100000000E-03 0. -1.
         11    1    4    4    0    0 -0.63048035431E-01 -0.13853462871E-01 -0.20272633748E-01  0.67662500732E-01  0.51100000000E-03 0.  1.
</event>
<event>
 8    1  0.1081309E+005  0.1043930E+01  0.7957747E-01            NaN
         13   -1    0    0    0    0  0.00000000000E+00  0.00000000000E+00  0.74505805969E-08  0.10566000000E+00  0.10566000000E+00 0. -1.
     999900   -1    0    0    0    0 -0.00000000000E+00 -0.00000000000E+00 -0.74505805969E-08  0.93827000000E+00  0.93827000000E+00 0. -1.
     999902    2    1    2    0    0  0.23181010186E-01  0.69104387095E-02  0.33548774528E-02  0.10195093407E+01  0.10192168205E+01 0.  0.
     999903    2    3    3    0    0  0.92637729879E-03  0.10697354813E-01 -0.12751759272E+00  0.12954461510E+00  0.20143963706E-01 0.  0.
         14    1    1    2    0    0 -0.23181010186E-01 -0.69104387095E-02 -0.33548774528E-02  0.24420659269E-01  0.00000000000E+00 0.  1.
     999901    1    3    3    0    0  0.22254632887E-01 -0.37869161037E-02  0.13087247017E+00  0.88996472563E+00  0.88000000000E+00 0.  1.
        -11    1    4    4    0    0 -0.23653260417E-02 -0.54208176651E-02 -0.23797644431E-01  0.24526904267E-01  0.51100000000E-03 0.  1.
         11    1    4    4    0    0  0.32917033405E-02  0.16118172478E-01 -0.10371994829E+00  0.10501771083E+00  0.51100000000E-03 0. -1.
</event>
<event>
 8    1  0.1081309E+005  0.1043930E+01  0.7957747E-01            NaN
         13   -1    0    0    0    0  0.00000000000E+00  0.00000000000E+00  0.74505805969E-08  0.10566000000E+00  0.10566000000E+00 0.  1.
     999900   -1    0    0    0    0 -0.00000000000E+00 -0.00000000000E+00 -0.74505805969E-08  0.93827000000E+00  0.93827000000E+00 0.  1.
     999902    2    1    2    0    0 -0.10028775259E-01  0.78652608724E-02 -0.20767160440E-01  0.10195637608E+01  0.10192725586E+01 0.  0.
     999903    2    3    3    0    0  0.11154730087E+00 -0.49524852417E-01  0.32429341009E-01  0.12776544547E+00  0.19412252835E-01 0.  0.
         14    1    1    2    0    0  0.10028775259E-01 -0.78652608724E-02  0.20767160440E-01  0.24366239236E-01  0.00000000000E+00 0.  1.
     999901    1    3    3    0    0 -0.12157607613E+00  0.57390113290E-01 -0.53196501449E-01  0.89179831529E+00  0.88000000000E+00 0.  1.
        -11    1    4    4    0    0  0.22132487036E-01 -0.17001269564E-01  0.25158310862E-02  0.28026428174E-01  0.51100000000E-03 0.  1.
         11    1    4    4    0    0  0.89414813834E-01 -0.32523582854E-01  0.29913509923E-01  0.99739017298E-01  0.51100000000E-03 0. -1.
</event>
<event>
 8    1  0.1081309E+005  0.1043930E+01  0.7957747E-01            NaN
         13   -1    0    0    0    0  0.00000000000E+00  0.00000000000E+00  0.74505805969E-08  0.10566000000E+00  0.10566000000E+00 0.  1.
     999900   -1    0    0    0    0 -0.00000000000E+00 -0.00000000000E+00 -0.74505805969E-08  0.93827000000E+00  0.93827000000E+00 0. -1.
     999902    2    1    2    0    0  0.11842515761E-01  0.20189980584E-01 -0.22723282745E-02  0.10204131131E+01  0.10201420868E+01 0.  0.
     999903    2    3    3    0    0 -0.12034363989E+00 -0.10659469266E-01 -0.41288012092E-01  0.12915159595E+00  0.19473542183E-01 0.  0.
         14    1    1    2    0    0 -0.11842515761E-01 -0.20189980584E-01  0.22723282745E-02  0.23516886939E-01  0.00000000000E+00 0.  1.
     999901    1    3    3    0    0  0.13218615566E+00  0.30849449850E-01  0.39015683817E-01  0.89126151711E+00  0.88000000000E+00 0.  1.
        -11    1    4    4    0    0 -0.45487123332E-01  0.18779631980E-02 -0.23317008179E-01  0.51152215262E-01  0.51100000000E-03 0. -1.
         11    1    4    4    0    0 -0.74856516563E-01 -0.12537432464E-01 -0.17971003913E-01  0.77999380686E-01  0.51100000000E-03 0.  1.
</event>
<event>
 8    1  0.1081309E+005  0.1043930E+01  0.7957747E-01            NaN
         13   -1    0    0    0    0  0.00000000000E+00  0.00000000000E+00  0.74505805969E-08  0.10566000000E+00  0.10566000000E+00 0. -1.
     999900   -1    0    0    0    0 -0.00000000000E+00 -0.00000000000E+00 -0.74505805969E-08  0.93827000000E+00  0.93827000000E+00 0.  1.
     999902    2    1    2    0    0  0.18496997920E-01 -0.54519565139E-02 -0.25327637825E-01  0.10120968098E+01  0.10115960658E+01 0.  0.
     999903    2    3    3    0    0  0.12297653507E+00 -0.85761992153E-02 -0.15616950431E-01  0.12585754636E+00  0.19986331958E-01 0.  0.
         14    1    1    2    0    0 -0.18496997920E-01  0.54519565139E-02  0.25327637825E-01  0.31833190222E-01  0.00000000000E+00 0. -1.
     999901    1    3    3    0    0 -0.10447953715E+00  0.31242427014E-02 -0.97106873945E-02  0.88623926342E+00  0.88000000000E+00 0. -1.
        -11    1    4    4    0    0  0.22826471504E-01  0.55396835532E-02  0.14756626106E-03  0.23495080166E-01  0.51100000000E-03 0.  1.
         11    1    4    4    0    0  0.10015006356E+00 -0.14115882769E-01 -0.15764516692E-01  0.10236246619E+00  0.51100000000E-03 0. -1.
</event>
<event>
 8    1  0.1081309E+005  0.1043930E+01  0.7957747E-01            NaN
         13   -1    0    0    0    0  0.00000000000E+00  0.00000000000E+00  0.74505805969E-08  0.10566000000E+00  0.10566000000E+00 0.  1.
     999900   -1    0    0    0    0 -0.00000000000E+00 -0.00000000000E+00 -0.74505805969E-08  0.93827000000E+00  0.93827000000E+00 0.  1.
     999902    2    1    2    0    0  0.14685440629E-01  0.14836975236E-01  0.40539006414E-02  0.10226642503E+01  0.10224431215E+01 0.  0.
     999903    2    3    3    0    0 -0.83157908390E-01  0.27794104186E-01  0.96952535106E-01  0.13228715915E+00  0.20306364912E-01 0.  0.
         14    1    1    2    0    0 -0.14685440629E-01 -0.14836975236E-01 -0.40539006414E-02  0.21265749717E-01  0.00000000000E+00 0.  1.
     999901    1    3    3    0    0  0.97843349019E-01 -0.12957128950E-01 -0.92898634464E-01  0.89037709114E+00  0.88000000000E+00 0.  1.
        -11    1    4    4    0    0 -0.58535802325E-01  0.25190484069E-01  0.79979616405E-01  0.10226436722E+00  0.51100000000E-03 0. -1.
         11    1    4    4    0    0 -0.24622106066E-01  0.26036201174E-02  0.16972918700E-01  0.30022791926E-01  0.51100000000E-03 0.  1.
</event>
<event>
 8    1  0.1081309E+005  0.1043930E+01  0.7957747E-01            NaN
         13   -1    0    0    0    0  0.00000000000E+00  0.00000000000E+00  0.74505805969E-08  0.10566000000E+00  0.10566000000E+00 0.  1.
     999900   -1    0    0    0    0 -0.00000000000E+00 -0.00000000000E+00 -0.74505805969E-08  0.93827000000E+00  0.93827000000E+00 0.  1.
     999902    2    1    2    0    0  0.11730503758E-01  0.83583374650E-02 -0.21241720072E-01  0.10182652928E+01  0.10179418104E+01 0.  0.
     999903    2    3    3    0    0 -0.24081264949E-01 -0.12217969175E+00  0.16457274157E-01  0.12711778874E+00  0.19501434376E-01 0.  0.
         14    1    1    2    0    0 -0.11730503758E-01 -0.83583374650E-02  0.21241720072E-01  0.25664707191E-01  0.00000000000E+00 0. -1.
     999901    1    3    3    0    0  0.35811768707E-01  0.13053802922E+00 -0.37698994229E-01  0.89114750407E+00  0.88000000000E+00 0.  1.
        -11    1    4    4    0    0 -0.93206546051E-02 -0.19134135133E-01  0.77469933841E-02  0.22655391346E-01  0.51100000000E-03 0. -1.
         11    1    4    4    0    0 -0.14760610344E-01 -0.10304555662E+00  0.87102807732E-02  0.10446239739E+00  0.51100000000E-03 0.  1.
</event>
<event>
 8    1  0.1081309E+005  0.1043930E+01  0.7957747E-01            NaN
         13   -1    0    0    0    0  0.00000000000E+00  0.00000000000E+00  0.74505805969E-08  0.10566000000E+00  0.10566000000E+00 0.  1.
     999900   -1    0    0    0    0 -0.00000000000E+00 -0.00000000000E+00 -0.74505805969E-08  0.93827000000E+00  0.93827000000E+00 0.  1.
     999902    2    1    2    0    0 -0.20926968945E-01 -0.29696069475E-02  0.11389135879E-01  0.10199202309E+01  0.10196375868E+01 0.  0.
     999903    2    3    3    0    0 -0.33044694462E-01  0.39024264373E-02  0.12646644632E+00  0.13231848944E+00  0.20180184326E-01 0.  0.
         14    1    1    2    0    0  0.20926968945E-01  0.29696069475E-02 -0.11389135879E-01  0.24009769068E-01  0.00000000000E+00 0. -1.
     999901    1    3    3    0    0  0.12117725517E-01 -0.68720333849E-02 -0.11507731044E+00  0.88760174149E+00  0.88000000000E+00 0.  1.
        -11    1    4    4    0    0 -0.23511477228E-01  0.48561602888E-02  0.11444801220E+00  0.11694007214E+00  0.51100000000E-03 0.  1.
         11    1    4    4    0    0 -0.95332172336E-02 -0.95373385147E-03  0.12018434119E-01  0.15378417303E-01  0.51100000000E-03 0. -1.
</event>
<event>
 8    1  0.1081309E+005  0.1043930E+01  0.7957747E-01            NaN
         13   -1    0    0    0    0  0.00000000000E+00  0.00000000000E+00  0.74505805969E-08  0.10566000000E+00  0.10566000000E+00 0. -1.
     999900   -1    0    0    0    0 -0.00000000000E+00 -0.00000000000E+00 -0.74505805969E-08  0.93827000000E+00  0.93827000000E+00 0. -1.
     999902    2    1    2    0    0 -0.16318593959E-01 -0.31948558526E-02 -0.17491463157E-01  0.10197958977E+01  0.10195102834E+01 0.  0.
     999903    2    3    3    0    0  0.12080054433E+00 -0.27426369881E-01  0.25402606893E-01  0.12781567052E+00  0.18616549578E-01 0.  0.
         14    1    1    2    0    0  0.16318593959E-01  0.31948558526E-02  0.17491463157E-01  0.24134102346E-01  0.00000000000E+00 0. -1.
     999901    1    3    3    0    0 -0.13711913829E+00  0.24231514028E-01 -0.42894070049E-01  0.89198022714E+00  0.88000000000E+00 0.  1.
        -11    1    4    4    0    0  0.47665281623E-01 -0.19609550909E-01  0.13734068718E-01  0.53342284575E-01  0.51100000000E-03 0. -1.
         11    1    4    4    0    0  0.73135262704E-01 -0.78168189717E-02  0.11668538175E-01  0.74473385943E-01  0.51100000000E-03 0.  1.
</event>
<event>
 8    1  0.1081309E+005  0.1043930E+01  0.7957747E-01            NaN
         13   -1    0    0    0    0  0.00000000000E+00  0.00000000000E+00  0.74505805969E-08  0.10566000000E+00  0.10566000000E+00 0. -1.
     999900   -1    0    0    0    0 -0.00000000000E+00 -0.00000000000E+00 -0.74505805969E-08  0.93827000000E+00  0.93827000000E+00 0. -1.
     999902    2    1    2    0    0 -0.62042221045E-02 -0.14934590910E-01  0.15878370219E-01  0.10212659973E+01  0.10210144858E+01 0.  0.
     999903    2    3    3    0    0  0.37386089529E-01 -0.11965183581E+00  0.41815930647E-01  0.13360695595E+00  0.19696830162E-01 0.  0.
         14    1    1    2    0    0  0.62042221045E-02  0.14934590910E-01 -0.15878370219E-01  0.22664002700E-01  0.00000000000E+00 0.  1.
     999901    1    3    3    0    0 -0.43590311634E-01  0.10471724490E+00 -0.25937560428E-01  0.88765904135E+00  0.88000000000E+00 0. -1.
        -11    1    4    4    0    0  0.29602873054E-01 -0.61876378137E-01  0.22624531815E-01  0.72229819501E-01  0.51100000000E-03 0.  1.
         11    1    4    4    0    0  0.77832164758E-02 -0.57775457678E-01  0.19191398832E-01  0.61377136449E-01  0.51100000000E-03 0. -1.
</event>
<event>
 8    1  0.1081309E+005  0.1043930E+01  0.7957747E-01            NaN
         13   -1    0    0    0    0  0.00000000000E+00  0.00000000000E+00  0.74505805969E-08  0.10566000000E+00  0.10566000000E+00 0.  1.
     999900   -1    0    0    0    0 -0.00000000000E+00 -0.00000000000E+00 -0.74505805969E-08  0.93827000000E+00  0.93827000000E+00 0. -1.
     999902    2    1    2    0    0 -0.21790227182E-01 -0.85109983339E-02 -0.52682603854E-02  0.10199507243E+01  0.10196688062E+01 0.  0.
     999903    2    3    3    0    0 -0.71471602117E-02 -0.12639370979E+00  0.28699861865E-01  0.13131998754E+00  0.19869707705E-01 0.  0.
         14    1    1    2    0    0  0.21790227182E-01  0.85109983339E-02  0.52682603854E-02  0.23979275651E-01  0.00000000000E+00 0.  1.
     999901    1    3    3    0    0 -0.14643066970E-01  0.11788271145E+00 -0.33968122250E-01  0.88863073681E+00  0.88000000000E+00 0.  1.
        -11    1    4    4    0    0 -0.72539901414E-04 -0.46965043217E-02  0.54605577710E-02  0.72208882453E-02  0.51100000000E-03 0.  1.
         11    1    4    4    0    0 -0.70746203103E-02 -0.12169720546E+00  0.23239304094E-01  0.12409909930E+00  0.51100000000E-03 0. -1.
</event>
<event>
 8    1  0.1081309E+005  0.1043930E+01  0.7957747E-01            NaN
         13   -1    0    0    0    0  0.00000000000E+00  0.00000000000E+00  0.74505805969E-08  0.10566000000E+00  0.10566000000E+00 0. -1.
     999900   -1    0    0    0    0 -0.00000000000E+00 -0.00000000000E+00 -0.74505805969E-08  0.93827000000E+00  0.93827000000E+00 0.  1.
     999902    2    1    2    0    0  0.45052856820E-02 -0.22302679582E-01 -0.47443708905E-02  0.10206874491E+01  0.10204227813E+01 0.  0.
     999903    2    3    3    0    0  0.11469633489E+00  0.18377678577E-01 -0.57945398607E-01  0.13129028913E+00  0.19659158011E-01 0.  0.
         14    1    1    2    0    0 -0.45052856820E-02  0.22302679582E-01  0.47443708905E-02  0.23242550866E-01  0.00000000000E+00 0.  1.
     999901    1    3    3    0    0 -0.11019104921E+00 -0.40680358159E-01  0.53201027716E-01  0.88939716000E+00  0.88000000000E+00 0. -1.
        -11    1    4    4    0    0  0.64283153446E-01  0.15609895015E-01 -0.41918121761E-01  0.78315915958E-01  0.51100000000E-03 0. -1.
         11    1    4    4    0    0  0.50413181446E-01  0.27677835619E-02 -0.16027276846E-01  0.52974373176E-01  0.51100000000E-03 0.  1.
</event>
<event>
 8    1  0.1081309E+005  0.1043930E+01  0.7957747E-01            NaN
         13   -1    0    0    0    0  0.00000000000E+00  0.00000000000E+00  0.74505805969E-08  0.10566000000E+00  0.10566000000E+00 0.  1.
     999900   -1    0    0    0    0 -0.00000000000E+00 -0.00000000000E+00 -0.74505805969E-08  0.93827000000E+00  0.93827000000E+00 0.  1.
     999902    2    1    2    0    0 -0.99310370523E-02  0.19880740385E-01  0.85198060387E-02  0.10201296548E+01  0.10198519776E+01 0.  0.
     999903    2    3    3    0    0  0.11302346963E+00 -0.20649475170E-01 -0.54063957557E-01  0.12845861877E+00  0.19442214812E-01 0.  0.
         14    1    1    2    0    0  0.99310370523E-02 -0.19880740385E-01 -0.85198060387E-02  0.23800345168E-01  0.00000000000E+00 0. -1.
     999901    1    3    3    0    0 -0.12295450669E+00  0.40530215555E-01  0.62583763595E-01  0.89167103606E+00  0.88000000000E+00 0.  1.
        -11    1    4    4    0    0  0.39222692730E-01 -0.16659220496E-01 -0.19923101401E-01  0.47044025582E-01  0.51100000000E-03 0.  1.
         11    1    4    4    0    0  0.73800776903E-01 -0.39902546742E-02 -0.34140856155E-01  0.81414593187E-01  0.51100000000E-03 0. -1.
</event>
<event>
 8    1  0.1081309E+005  0.1043930E+01  0.7957747E-01            NaN
         13   -1    0    0    0    0  0.00000000000E+00  0.00000000000E+00  0.74505805969E-08  0.10566000000E+00  0.10566000000E+00 0. -1.
     999900   -1    0    0    0    0 -0.00000000000E+00 -0.00000000000E+00 -0.74505805969E-08  0.93827000000E+00  0.93827000000E+00 0. -1.
     999902    2    1    2    0    0 -0.12321751275E-01 -0.21116471587E-01  0.59410531797E-03  0.10194742463E+01  0.10191808745E+01 0.  0.
     999903    2    3    3    0    0  0.73670587892E-01 -0.37543881516E-01 -0.97929905320E-01  0.12965880317E+00  0.19602049005E-01 0.  0.
         14    1    1    2    0    0  0.12321751275E-01  0.21116471587E-01 -0.59410531797E-03  0.24455753677E-01  0.00000000000E+00 0.  1.
     999901    1    3    3    0    0 -0.85992339167E-01  0.16427409928E-01  0.98524010638E-01  0.88981544315E+00  0.88000000000E+00 0.  1.
        -11    1    4    4    0    0  0.42736231255E-01 -0.13041125324E-01 -0.60945145005E-01  0.75571345313E-01  0.51100000000E-03 0. -1.
         11    1    4    4    0    0  0.30934356636E-01 -0.24502756191E-01 -0.36984760315E-01  0.54087457862E-01  0.51100000000E-03 0.  1.
</event>
<event>
 8    1  0.1081309E+005  0.1043930E+01  0.7957747E-01            NaN
         13   -1    0    0    0    0  0.00000000000E+00  0.00000000000E+00  0.74505805969E-08  0.10566000000E+00  0.10566000000E+00 0.  1.
     999900   -1    0    0    0    0 -0.00000000000E+00 -0.00000000000E+00 -0.74505805969E-08  0.93827000000E+00  0.93827000000E+00 0. -1.
     999902    2    1    2    0    0 -0.13645124800E-02  0.12731254334E-01  0.19862662059E-01  0.10202979862E+01  0.10200242686E+01 0.  0.
     999903    2    3    3    0    0 -0.93135223769E-01  0.35993401956E-03  0.92152232294E-01  0.13249130964E+00  0.19687908826E-01 0.  0.
         14    1    1    2    0    0  0.13645124800E-02 -0.12731254334E-01 -0.19862662059E-01  0.23632013780E-01  0.00000000000E+00 0. -1.
     999901    1    3    3    0    0  0.91770711289E-01  0.12371320314E-01 -0.72289570235E-01  0.88780667658E+00  0.88000000000E+00 0.  1.
        -11    1    4    4    0    0 -0.52506739027E-01  0.22939293563E-02  0.64968071038E-01  0.83566327732E-01  0.51100000000E-03 0. -1.
         11    1    4    4    0    0 -0.40628484742E-01 -0.19339953367E-02  0.27184161256E-01  0.48924981907E-01  0.51100000000E-03 0.  1.
</event>
<event>
 8    1  0.1081309E+005  0.1043930E+01  0.7957747E-01            NaN
         13   -1    0    0    0    0  0.00000000000E+00  0.00000000000E+00  0.74505805969E-08  0.10566000000E+00  0.10566000000E+00 0. -1.
     999900   -1    0    0    0    0 -0.00000000000E+00 -0.00000000000E+00 -0.74505805969E-08  0.93827000000E+00  0.93827000000E+00 0.  1.
     999902    2    1    2    0    0  0.18962203111E-01 -0.31561207959E-02  0.18387299022E-02  0.10246191954E+01  0.10244372057E+01 0.  0.
     999903    2    3    3    0    0 -0.99064993414E-02 -0.90663581625E-02  0.13210743438E+00  0.13454152003E+00  0.21649683961E-01 0.  0.
         14    1    1    2    0    0 -0.18962203111E-01  0.31561207959E-02 -0.18387299022E-02  0.19310804565E-01  0.00000000000E+00 0. -1.
     999901    1    3    3    0    0  0.28868702452E-01  0.59102373666E-02 -0.13026870447E+00  0.89007767540E+00  0.88000000000E+00 0.  1.
        -11    1    4    4    0    0 -0.19198101842E-02  0.45606020460E-02  0.79203027915E-02  0.93529182331E-02  0.51100000000E-03 0.  1.
         11    1    4    4    0    0 -0.79866891572E-02 -0.13626960208E-01  0.12418713158E+00  0.12518860180E+00  0.51100000000E-03 0. -1.
</event>
<event>
 8    1  0.1081309E+005  0.1043930E+01  0.7957747E-01            NaN
         13   -1    0    0    0    0  0.00000000000E+00  0.00000000000E+00  0.74505805969E-08  0.10566000000E+00  0.10566000000E+00 0.  1.
     999900   -1    0    0    0    0 -0.00000000000E+00 -0.00000000000E+00 -0.74505805969E-08  0.93827000000E+00  0.93827000000E+00 0. -1.
     999902    2    1    2    0    0 -0.17622864243E-01  0.10562742403E-01 -0.12680051842E-01  0.10197862516E+01  0.10195004063E+01 0.  0.
     999903    2    3    3    0    0  0.65474415728E-01 -0.58901827523E-01 -0.92554676373E-01  0.12955569718E+00  0.21493863139E-01 0.  0.
         14    1    1    2    0    0  0.17622864243E-01 -0.10562742403E-01  0.12680051842E-01  0.24143748381E-01  0.00000000000E+00 0. -1.
     999901    1    3    3    0    0 -0.83097279971E-01  0.69464569925E-01  0.79874624532E-01  0.89023055444E+00  0.88000000000E+00 0. -1.
        -11    1    4    4    0    0  0.18658560458E-01 -0.23294024649E-01 -0.19040302393E-01  0.35405475550E-01  0.51100000000E-03 0. -1.
         11    1    4    4    0    0  0.46815855270E-01 -0.35607802874E-01 -0.73514373980E-01  0.94150221629E-01  0.51100000000E-03 0.  1.
</event>
<event>
 8    1  0.1081309E+005  0.1043930E+01  0.7957747E-01            NaN
         13   -1    0    0    0    0  0.00000000000E+00  0.00000000000E+00  0.74505805969E-08  0.10566000000E+00  0.10566000000E+00 0.  1.
     999900   -1    0    0    0    0 -0.00000000000E+00 -0.00000000000E+00 -0.74505805969E-08  0.93827000000E+00  0.93827000000E+00 0.  1.
     999902    2    1    2    0    0  0.21756127156E-01  0.17191369628E-02  0.12481814942E-01  0.10187887947E+01  0.10184785358E+01 0.  0.
     999903    2    3    3    0    0  0.11575876128E+00  0.42720528548E-01  0.43306182448E-01  0.13229697240E+00  0.20048169365E-01 0.  0.
         14    1    1    2    0    0 -0.21756127156E-01 -0.17191369628E-02 -0.12481814942E-01  0.25141205320E-01  0.00000000000E+00 0. -1.
     999901    1    3    3    0    0 -0.94002634128E-01 -0.41001391585E-01 -0.30824367506E-01  0.88649182228E+00  0.88000000000E+00 0.  1.
        -11    1    4    4    0    0  0.35138106053E-01  0.13896466566E-01  0.23216765524E-01  0.44351748584E-01  0.51100000000E-03 0. -1.
         11    1    4    4    0    0  0.80620655231E-01  0.28824061982E-01  0.20089416924E-01  0.87945223817E-01  0.51100000000E-03 0.  1.
</event>
<event>
 8    1  0.1081309E+005  0.1043930E+01  0.7957747E-01            NaN
         13   -1    0    0    0    0  0.00000000000E+00  0.00000000000E+00  0.74505805969E-08  0.10566000000E+00  0.10566000000E+00 0. -1.
     999900   -1    0    0    0    0 -0.00000000000E+00 -0.00000000000E+00 -0.74505805969E-08  0.93827000000E+00  0.93827000000E+00 0.  1.
     999902    2    1    2    0    0 -0.64455796284E-02 -0.22580825660E-01  0.17932352295E-02  0.10203788880E+01  0.10201070631E+01 0.  0.
     999903    2    3    3    0    0 -0.50822950282E-01 -0.89281810241E-01  0.82394030741E-01  0.13307124089E+00  0.19104055453E-01 0.  0.
         14    1    1    2    0    0  0.64455796284E-02  0.22580825660E-01 -0.17932352295E-02  0.23551112008E-01  0.00000000000E+00 0.  1.
     999901    1    3    3    0    0  0.44377370654E-01  0.66700984581E-01 -0.80600795511E-01  0.88730764710E+00  0.88000000000E+00 0. -1.
        -11    1    4    4    0    0 -0.30474137531E-02 -0.16619076374E-01  0.83397852360E-02  0.18849232581E-01  0.51100000000E-03 0. -1.
         11    1    4    4    0    0 -0.47775536529E-01 -0.72662733867E-01  0.74054245505E-01  0.11422200831E+00  0.51100000000E-03 0.  1.
</event>
<event>
 8    1  0.1081309E+005  0.1043930E+01  0.7957747E-01            NaN
         13   -1    0    0    0    0  0.00000000000E+00  0.00000000000E+00  0.74505805969E-08  0.10566000000E+00  0.10566000000E+00 0.  1.
     999900   -1    0    0    0    0 -0.00000000000E+00 -0.00000000000E+00 -0.74505805969E-08  0.93827000000E+00  0.93827000000E+00 0. -1.
     999902    2    1    2    0    0  0.12296931743E-02  0.21037290756E-01  0.28954972121E-02  0.10226588070E+01  0.10224375638E+01 0.  0.
     999903    2    3    3    0    0 -0.10488732277E+00  0.27517693984E-01 -0.74357137436E-01  0.13289997099E+00  0.19360899770E-01 0.  0.
         14    1    1    2    0    0 -0.12296931743E-02 -0.21037290756E-01 -0.28954972121E-02  0.21271193002E-01  0.00000000000E+00 0.  1.
     999901    1    3    3    0    0  0.10611701595E+00 -0.64804032284E-02  0.77252634648E-01  0.88975883601E+00  0.88000000000E+00 0. -1.
        -11    1    4    4    0    0 -0.32378003454E-01  0.11791158881E-01 -0.13779936597E-01  0.37114879887E-01  0.51100000000E-03 0. -1.
         11    1    4    4    0    0 -0.72509319319E-01  0.15726535103E-01 -0.60577200838E-01  0.95785091099E-01  0.51100000000E-03 0.  1.
</event>
<event>
 8    1  0.1081309E+005  0.1043930E+01  0.7957747E-01            NaN
         13   -1    0    0    0    0  0.00000000000E+00  0.00000000000E+00  0.74505805969E-08  0.10566000000E+00  0.10566000000E+00 0. -1.
     999900   -1    0    0    0    0 -0.00000000000E+00 -0.00000000000E+00 -0.74505805969E-08  0.93827000000E+00  0.93827000000E+00 0.  1.
     999902    2    1    2    0    0  0.66937210851E-02 -0.56418907892E-02 -0.21952309420E-01  0.10202965338E+01  0.10200227822E+01 0.  0.
     999903    2    3    3    0    0  0.11177027628E+00  0.63931423220E-01  0.10683654164E-01  0.13071987352E+00  0.19842462832E-01 0.  0.
         14    1    1    2    0    0 -0.66937210851E-02  0.56418907892E-02  0.21952309420E-01  0.23633466155E-01  0.00000000000E+00 0. -1.
     999901    1    3    3    0    0 -0.10507655520E+00 -0.69573314009E-01 -0.32635963584E-01  0.88957666032E+00  0.88000000000E+00 0. -1.
        -11    1    4    4    0    0  0.50697303874E-01  0.20944334670E-01  0.11410960929E-01  0.56029928834E-01  0.51100000000E-03 0. -1.
         11    1    4    4    0    0  0.61072972411E-01  0.42987088550E-01 -0.72730676550E-03  0.74689944686E-01  0.51100000000E-03 0.  1.
</event>
<event>
 8    1  0.1081309E+005  0.1043930E+01  0.7957747E-01            NaN
         13   -1    0    0    0    0  0.00000000000E+00  0.00000000000E+00  0.74505805969E-08  0.10566000000E+00  0.10566000000E+00 0.  1.
     999900   -1    0    0    0    0 -0.00000000000E+00 -0.00000000000E+00 -0.74505805969E-08  0.93827000000E+00  0.93827000000E+00 0. -1.
     999902    2    1    2    0    0 -0.44576187251E-04 -0.23482953395E-01 -0.66036535766E-02  0.10195361621E+01  0.10192442919E+01 0.  0.
     999903    2    3    3    0    0 -0.41057884166E-01  0.59943059459E-01 -0.10525553556E+00  0.12915748711E+00  0.18000235570E-01 0.  0.
         14    1    1    2    0    0  0.44576187251E-04  0.23482953395E-01  0.66036535766E-02  0.24393837905E-01  0.00000000000E+00 0. -1.
     999901    1    3    3    0    0  0.41013307979E-01 -0.83426012855E-01  0.98651881983E-01  0.89037867499E+00  0.88000000000E+00 0.  1.
        -11    1    4    4    0    0 -0.17773373450E-01  0.41307155668E-01 -0.65645330954E-01  0.79572259678E-01  0.51100000000E-03 0. -1.
         11    1    4    4    0    0 -0.23284510716E-01  0.18635903791E-01 -0.39610204606E-01  0.49585227430E-01  0.51100000000E-03 0.  1.
</event>
<event>
 8    1  0.1081309E+005  0.1043930E+01  0.7957747E-01            NaN
         13   -1    0    0    0    0  0.00000000000E+00  0.00000000000E+00  0.74505805969E-08  0.10566000000E+00  0.10566000000E+00 0.  1.
     999900   -1    0    0    0    0 -0.00000000000E+00 -0.00000000000E+00 -0.74505805969E-08  0.93827000000E+00  0.93827000000E+00 0. -1.
     999902    2    1    2    0    0 -0.18093168579E-01  0.13856887951E-01 -0.26165103845E-02  0.10209904660E+01  0.10207327317E+01 0.  0.
     999903    2    3    3    0    0  0.11592344918E+00 -0.13046197694E-01  0.50661506884E-01  0.12884542345E+00  0.20642323521E-01 0.  0.
         14    1    1    2    0    0  0.18093168579E-01 -0.13856887951E-01  0.26165103845E-02  0.22939533986E-01  0.00000000000E+00 0.  1.
     999901    1    3    3    0    0 -0.13401661776E+00  0.26903085645E-01 -0.53278017268E-01  0.89214504257E+00  0.88000000000E+00 0.  1.
        -11    1    4    4    0    0  0.36489644540E-01 -0.12754975936E-01  0.21438314476E-01  0.44204592729E-01  0.51100000000E-03 0.  1.
         11    1    4    4    0    0  0.79433804637E-01 -0.29122175725E-03  0.29223192408E-01  0.84640830718E-01  0.51100000000E-03 0. -1.
</event>
<event>
 8    1  0.1081309E+005  0.1043930E+01  0.7957747E-01            NaN
         13   -1    0    0    0    0  0.00000000000E+00  0.00000000000E+00  0.74505805969E-08  0.10566000000E+00  0.10566000000E+00 0.  1.
     999900   -1    0    0    0    0 -0.00000000000E+00 -0.00000000000E+00 -0.74505805969E-08  0.93827000000E+00  0.93827000000E+00 0. -1.
     999902    2    1    2    0    0  0.17873513490E-01 -0.13810137077E-01  0.66791922571E-02  0.10203759350E+01  0.10201040411E+01 0.  0.
     999903    2    3    3    0    0 -0.75207505138E-01 -0.10458678451E+00  0.10000250086E-01  0.13081677157E+00  0.20456255771E-01 0.  0.
         14    1    1    2    0    0 -0.17873513490E-01  0.13810137077E-01 -0.66791922571E-02  0.23554065037E-01  0.00000000000E+00 0. -1.
     999901    1    3    3    0    0  0.93081018628E-01  0.90776647430E-01 -0.33210578294E-02  0.88955916339E+00  0.88000000000E+00 0. -1.
        -11    1    4    4    0    0 -0.61364740422E-01 -0.69619997323E-01  0.61317225199E-02  0.93007712241E-01  0.51100000000E-03 0.  1.
         11    1    4    4    0    0 -0.13842764716E-01 -0.34966787184E-01  0.38685275665E-02  0.37809059331E-01  0.51100000000E-03 0. -1.
</event>
<event>
 8    1  0.1081309E+005  0.1043930E+01  0.7957747E-01            NaN
         13   -1    0    0    0    0  0.00000000000E+00  0.00000000000E+00  0.74505805969E-08  0.10566000000E+00  0.10566000000E+00 0.  1.
     999900   -1    0    0    0    0 -0.00000000000E+00 -0.00000000000E+00 -0.74505805969E-08  0.93827000000E+00  0.93827000000E+00 0.  1.
     999902    2    1    2    0    0  0.14640150242E-01 -0.16922432272E-01  0.97428341456E-02  0.10195245594E+01  0.10192324081E+01 0.  0.
     999903    2    3    3    0    0 -0.58469239758E-01 -0.95685086188E-01  0.65512624219E-01  0.13123473731E+00  0.18877622443E-01 0.  0.
         14    1    1    2    0    0 -0.14640150242E-01  0.16922432272E-01 -0.97428341456E-02  0.24405440588E-01  0.00000000000E+00 0.  1.
     999901    1    3    3    0    0  0.73109390000E-01  0.78762653916E-01 -0.55769790073E-01  0.88828982210E+00  0.88000000000E+00 0.  1.
        -11    1    4    4    0    0 -0.41052345182E-02 -0.16205973460E-01  0.48083964713E-02  0.17403112476E-01  0.51100000000E-03 0.  1.
         11    1    4    4    0    0 -0.54364005240E-01 -0.79479112728E-01  0.60704227748E-01  0.11383162484E+00  0.51100000000E-03 0. -1.
</event>
<event>
 8    1  0.1081309E+005  0.1043930E+01  0.7957747E-01            NaN
         13   -1    0    0    0    0  0.00000000000E+00  0.00000000000E+00  0.74505805969E-08  0.10566000000E+00  0.10566000000E+00 0.  1.
     999900   -1    0    0    0    0 -0.00000000000E+00 -0.00000000000E+00 -0.74505805969E-08  0.93827000000E+00  0.93827000000E+00 0.  1.
     999902    2    1    2    0    0 -0.71323027340E-03 -0.16627267859E-01  0.17909813451E-01  0.10194813569E+01  0.10191881577E+01 0.  0.
     999903    2    3    3    0    0 -0.92276576441E-01  0.74826104603E-01  0.47412552960E-01  0.12952743820E+00  0.20383684100E-01 0.  0.
         14    1    1    2    0    0  0.71323027340E-03  0.16627267859E-01 -0.17909813451E-01  0.24448643147E-01  0.00000000000E+00 0. -1.
     999901    1    3    3    0    0  0.91563346168E-01 -0.91453372462E-01 -0.29502739509E-01  0.88995391866E+00  0.88000000000E+00 0. -1.
        -11    1    4    4    0    0 -0.42219647381E-01  0.22048839944E-01  0.15482591615E-01  0.50086143113E-01  0.51100000000E-03 0. -1.
         11    1    4    4    0    0 -0.50056929060E-01  0.52777264658E-01  0.31929961346E-01  0.79441295082E-01  0.51100000000E-03 0.  1.
</event>
<event>
 8    1  0.1081309E+005  0.1043930E+01  0.7957747E-01            NaN
         13   -1    0    0    0    0  0.00000000000E+00  0.00000000000E+00  0.74505805969E-08  0.10566000000E+00  0.10566000000E+00 0. -1.
     999900   -1    0    0    0    0 -0.00000000000E+00 -0.00000000000E+00 -0.74505805969E-08  0.93827000000E+00  0.93827000000E+00 0. -1.
     999902    2    1    2    0    0  0.21025065519E-02  0.52533586463E-02 -0.23737772750E-01  0.10195271279E+01  0.10192350388E+01 0.  0.
     999903    2    3    3    0    0  0.18032002935E-01  0.86252734464E-01  0.91420442464E-01  0.12819326102E+00  0.17638807754E-01 0.  0.
         14    1    1    2    0    0 -0.21025065519E-02 -0.52533586463E-02  0.23737772750E-01  0.24402872085E-01  0.00000000000E+00 0. -1.
     999901    1    3    3    0    0 -0.15929496383E-01 -0.80999375818E-01 -0.11515821521E+00  0.89133386689E+00  0.88000000000E+00 0. -1.
        -11    1    4    4    0    0  0.12420179955E-01  0.80219556374E-01  0.86296296966E-01  0.11847679134E+00  0.51100000000E-03 0.  1.
         11    1    4    4    0    0  0.56118229805E-02  0.60331780904E-02  0.51241454977E-02  0.97164696838E-02  0.51100000000E-03 0. -1.
</event>
<event>
 8    1  0.1081309E+005  0.1043930E+01  0.7957747E-01            NaN
         13   -1    0    0    0    0  0.00000000000E+00  0.00000000000E+00  0.74505805969E-08  0.10566000000E+00  0.10566000000E+00 0.  1.
     999900   -1    0    0    0    0 -0.00000000000E+00 -0.00000000000E+00 -0.74505805969E-08  0.93827000000E+00  0.93827000000E+00 0. -1.
     999902    2    1    2    0    0  0.19597905968E-01 -0.79381466824E-02 -0.11536048661E-01  0.10198432296E+01  0.10195587479E+01 0.  0.
     999903    2    3    3    0    0  0.53999981975E-01  0.56071458060E-01  0.10222670130E+00  0.12954962878E+00  0.16516700488E-01 0.  0.
         14    1    1    2    0    0 -0.19597905968E-01  0.79381466824E-02  0.11536048661E-01  0.24086770431E-01  0.00000000000E+00 0.  1.
     999901    1    3    3    0    0 -0.34402076007E-01 -0.64009604742E-01 -0.11376274996E+00  0.89029360079E+00  0.88000000000E+00 0. -1.
        -11    1    4    4    0    0  0.36580081510E-01  0.35172870059E-01  0.78338733361E-01  0.93340513268E-01  0.51100000000E-03 0. -1.
         11    1    4    4    0    0  0.17419900465E-01  0.20898588001E-01  0.23887967940E-01  0.36209115509E-01  0.51100000000E-03 0.  1.
</event>
<event>
 8    1  0.1081309E+005  0.1043930E+01  0.7957747E-01            NaN
         13   -1    0    0    0    0  0.00000000000E+00  0.00000000000E+00  0.74505805969E-08  0.10566000000E+00  0.10566000000E+00 0.  1.
     999900   -1    0    0    0    0 -0.00000000000E+00 -0.00000000000E+00 -0.74505805969E-08  0.93827000000E+00  0.93827000000E+00 0. -1.
     999902    2    1    2    0    0  0.28358465741E-03  0.16562582712E-01  0.15896463417E-01  0.10209714043E+01  0.10207132366E+01 0.  0.
     999903    2    3    3    0    0  0.10359671790E+00  0.18605906953E-01  0.78303422658E-01  0.13273021679E+00  0.20184764430E-01 0.  0.
         14    1    1    2    0    0 -0.28358465741E-03 -0.16562582712E-01 -0.15896463417E-01  0.22958595678E-01  0.00000000000E+00 0. -1.
     999901    1    3    3    0    0 -0.10331313324E+00 -0.20433242407E-02 -0.62406959241E-01  0.88824118754E+00  0.88000000000E+00 0. -1.
        -11    1    4    4    0    0  0.29809185187E-01 -0.37975567393E-02  0.22360915615E-01  0.37460387436E-01  0.51100000000E-03 0.  1.
         11    1    4    4    0    0  0.73787532712E-01  0.22403463692E-01  0.55942507043E-01  0.95269829350E-01  0.51100000000E-03 0. -1.
</event>
<event>
 8    1  0.1081309E+005  0.1043930E+01  0.7957747E-01            NaN
         13   -1    0    0    0    0  0.00000000000E+00  0.00000000000E+00  0.74505805969E-08  0.10566000000E+00  0.10566000000E+00 0. -1.
     999900   -1    0    0    0    0 -0.00000000000E+00 -0.00000000000E+00 -0.74505805969E-08  0.93827000000E+00  0.93827000000E+00 0.  1.
     999902    2    1    2    0    0  0.20491874208E-01  0.43297152553E-02 -0.10036114642E-01  0.10207052946E+01  0.10204410378E+01 0.  0.
     999903    2    3    3    0    0 -0.65944288527E-01 -0.42812049638E-01 -0.10203986376E+00  0.13044789023E+00  0.20566902690E-01 0.  0.
         14    1    1    2    0    0 -0.20491874208E-01 -0.43297152553E-02  0.10036114642E-01  0.23224705377E-01  0.00000000000E+00 0. -1.
     999901    1    3    3    0    0  0.86436162734E-01  0.47141764893E-01  0.92003749115E-01  0.89025740439E+00  0.88000000000E+00 0.  1.
        -11    1    4    4    0    0 -0.58212117109E-02 -0.12670412955E-01 -0.19434521876E-01  0.23924623963E-01  0.51100000000E-03 0. -1.
         11    1    4    4    0    0 -0.60123076816E-01 -0.30141636683E-01 -0.82605341881E-01  0.10652326627E+00  0.51100000000E-03 0.  1.
</event>
<event>
 8    1  0.1081309E+005  0.1043930E+01  0.7957747E-01            NaN
         13   -1    0    0    0    0  0.00000000000E+00  0.00000000000E+00  0.74505805969E-08  0.10566000000E+00  0.10566000000E+00 0.  1.
     999900   -1    0    0    0    0 -0.00000000000E+00 -0.00000000000E+00 -0.74505805969E-08  0.93827000000E+00  0.93827000000E+00 0. -1.
     999902    2    1    2    0    0 -0.12360456574E-02 -0.18514943474E-01 -0.13490206825E-01  0.10209884085E+01  0.10207306274E+01 0.  0.
     999903    2    3    3    0    0  0.33083804048E-01  0.53578293080E-01 -0.11395986720E+00  0.13168000333E+00  0.19687568777E-01 0.  0.
         14    1    1    2    0    0  0.12360456574E-02  0.18514943474E-01  0.13490206825E-01  0.22941591507E-01  0.00000000000E+00 0.  1.
     999901    1    3    3    0    0 -0.34319849705E-01 -0.72093236553E-01  0.10046966038E+00  0.88930840516E+00  0.88000000000E+00 0.  1.
        -11    1    4    4    0    0  0.33908836545E-01  0.47397117722E-01 -0.92520140056E-01  0.10934593454E+00  0.51100000000E-03 0. -1.
         11    1    4    4    0    0 -0.82503249684E-03  0.61811753577E-02 -0.21439727145E-01  0.22334068785E-01  0.51100000000E-03 0.  1.
</event>
<event>
 8    1  0.1081309E+005  0.1043930E+01  0.7957747E-01            NaN
         13   -1    0    0    0    0  0.00000000000E+00  0.00000000000E+00  0.74505805969E-08  0.10566000000E+00  0.10566000000E+00 0.  1.
     999900   -1    0    0    0    0 -0.00000000000E+00 -0.00000000000E+00 -0.74505805969E-08  0.93827000000E+00  0.93827000000E+00 0.  1.
     999902    2    1    2    0    0 -0.12413916680E-01 -0.17799442874E-01 -0.11279375898E-01  0.10194728985E+01  0.10191794940E+01 0.  0.
     999903    2    3    3    0    0 -0.59962590443E-01 -0.11626978471E+00 -0.82259528244E-02  0.13269975501E+00  0.20673257852E-01 0.  0.
         14    1    1    2    0    0  0.12413916680E-01  0.17799442874E-01  0.11279375898E-01  0.24457101517E-01  0.00000000000E+00 0.  1.
     999901    1    3    3    0    0  0.47548673763E-01  0.98470341835E-01 -0.30534230738E-02  0.88677314348E+00  0.88000000000E+00 0.  1.
        -11    1    4    4    0    0 -0.25955252588E-01 -0.31455593565E-01  0.14427480354E-02  0.40810196598E-01  0.51100000000E-03 0.  1.
         11    1    4    4    0    0 -0.34007337855E-01 -0.84814191144E-01 -0.96687008598E-02  0.91889558409E-01  0.51100000000E-03 0. -1.
</event>
<event>
 8    1  0.1081309E+005  0.1043930E+01  0.7957747E-01            NaN
         13   -1    0    0    0    0  0.00000000000E+00  0.00000000000E+00  0.74505805969E-08  0.10566000000E+00  0.10566000000E+00 0. -1.
     999900   -1    0    0    0    0 -0.00000000000E+00 -0.00000000000E+00 -0.74505805969E-08  0.93827000000E+00  0.93827000000E+00 0. -1.
     999902    2    1    2    0    0 -0.11708060840E-02 -0.22194478134E-01 -0.87072404834E-02  0.10200598998E+01  0.10197805732E+01 0.  0.
     999903    2    3    3    0    0  0.11265406655E+00 -0.57787507390E-01  0.29054160425E-01  0.13121295642E+00  0.18502999043E-01 0.  0.
         14    1    1    2    0    0  0.11708060840E-02  0.22194478134E-01  0.87072404834E-02  0.23870100196E-01  0.00000000000E+00 0. -1.
     999901    1    3    3    0    0 -0.11382487264E+00  0.35593029256E-01 -0.37761400908E-01  0.88884694338E+00  0.88000000000E+00 0.  1.
        -11    1    4    4    0    0  0.91457854513E-01 -0.54050992848E-01  0.26806352989E-01  0.10956683194E+00  0.51100000000E-03 0.  1.
         11    1    4    4    0    0  0.21196212040E-01 -0.37365145425E-02  0.22478074355E-02  0.21646124481E-01  0.51100000000E-03 0. -1.
</event>
<event>
 8    1  0.1081309E+005  0.1043930E+01  0.7957747E-01            NaN
         13   -1    0    0    0    0  0.00000000000E+00  0.00000000000E+00  0.74505805969E-08  0.10566000000E+00  0.10566000000E+00 0. -1.
     999900   -1    0    0    0    0 -0.00000000000E+00 -0.00000000000E+00 -0.74505805969E-08  0.93827000000E+00  0.93827000000E+00 0. -1.
     999902    2    1    2    0    0  0.22100114677E-01 -0.21570112429E-02  0.61164214522E-02  0.10208978838E+01  0.10206380410E+01 0.  0.
     999903    2    3    3    0    0  0.12893727131E+00 -0.23602397517E-01  0.19687311398E-01  0.13407306924E+00  0.20152036211E-01 0.  0.
         14    1    1    2    0    0 -0.22100114677E-01  0.21570112429E-02 -0.61164214522E-02  0.23032116221E-01  0.00000000000E+00 0. -1.
     999901    1    3    3    0    0 -0.10683715663E+00  0.21445386274E-01 -0.13570889945E-01  0.88682481454E+00  0.88000000000E+00 0.  1.
        -11    1    4    4    0    0  0.28279711270E-01 -0.11690609063E-01 -0.10036416244E-02  0.30621574540E-01  0.51100000000E-03 0. -1.
         11    1    4    4    0    0  0.10065756004E+00 -0.11911788453E-01  0.20690953022E-01  0.10345149470E+00  0.51100000000E-03 0.  1.
</event>
<event>
 8    1  0.1081309E+005  0.1043930E+01  0.7957747E-01            NaN
         13   -1    0    0    0    0  0.00000000000E+00  0.00000000000E+00  0.74505805969E-08  0.10566000000E+00  0.10566000000E+00 0. -1.
     999900   -1    0    0    0    0 -0.00000000000E+00 -0.00000000000E+00 -0.74505805969E-08  0.93827000000E+00  0.93827000000E+00 0.  1.
     999902    2    1    2    0    0  0.57336813616E-02  0.22785984405E-01  0.41720963833E-02  0.10200661660E+01  0.10197869877E+01 0.  0.
     999903    2    3    3    0    0 -0.88795142215E-01  0.29571566046E-01  0.89407684121E-01  0.13088291823E+00  0.19430633189E-01 0.  0.
         14    1    1    2    0    0 -0.57336813616E-02 -0.22785984405E-01 -0.41720963833E-02  0.23863834048E-01  0.00000000000E+00 0. -1.
     999901    1    3    3    0    0  0.94528823577E-01 -0.67855816409E-02 -0.85235587738E-01  0.88918324772E+00  0.88000000000E+00 0.  1.
        -11    1    4    4    0    0 -0.37472341880E-01  0.25266926995E-02  0.36058317343E-01  0.52067494203E-01  0.51100000000E-03 0. -1.
         11    1    4    4    0    0 -0.51322800335E-01  0.27044873346E-01  0.53349366779E-01  0.78815424031E-01  0.51100000000E-03 0.  1.
</event>
<event>
 8    1  0.1081309E+005  0.1043930E+01  0.7957747E-01            NaN
         13   -1    0    0    0    0  0.00000000000E+00  0.00000000000E+00  0.74505805969E-08  0.10566000000E+00  0.10566000000E+00 0. -1.
     999900   -1    0    0    0    0 -0.00000000000E+00 -0.00000000000E+00 -0.74505805969E-08  0.93827000000E+00  0.93827000000E+00 0.  1.
     999902    2    1    2    0    0  0.42873934370E-02  0.44952568004E-03 -0.24057653755E-01  0.10194891629E+01  0.10191961532E+01 0.  0.
     999903    2    3    3    0    0  0.17988706206E-01  0.12732154785E+00 -0.10165806191E-01  0.13017638357E+00  0.17554974425E-01 0.  0.
         14    1    1    2    0    0 -0.42873934370E-02 -0.44952568004E-03  0.24057653755E-01  0.24440837139E-01  0.00000000000E+00 0. -1.
     999901    1    3    3    0    0 -0.13701312769E-01 -0.12687202217E+00 -0.13891847564E-01  0.88931277929E+00  0.88000000000E+00 0.  1.
        -11    1    4    4    0    0  0.12355078227E-01  0.11493127875E+00 -0.53109220240E-02  0.11571652349E+00  0.51100000000E-03 0. -1.
         11    1    4    4    0    0  0.56336279789E-02  0.12390269093E-01 -0.48548841672E-02  0.14459860085E-01  0.51100000000E-03 0.  1.
</event>
<event>
 8    1  0.1081309E+005  0.1043930E+01  0.7957747E-01            NaN
         13   -1    0    0    0    0  0.00000000000E+00  0.00000000000E+00  0.74505805969E-08  0.10566000000E+00  0.10566000000E+00 0. -1.
     999900   -1    0    0    0    0 -0.00000000000E+00 -0.00000000000E+00 -0.74505805969E-08  0.93827000000E+00  0.93827000000E+00 0.  1.
     999902    2    1    2    0    0 -0.91362023530E-02  0.97027022943E-03 -0.23372215783E-01  0.10188168145E+01  0.10185072554E+01 0.  0.
     999903    2    3    3    0    0  0.12634702800E+00 -0.31952743023E-02 -0.10168525705E-01  0.12834087716E+00  0.19854484962E-01 0.  0.
         14    1    1    2    0    0  0.91362023530E-02 -0.97027022943E-03  0.23372215783E-01  0.25113185547E-01  0.00000000000E+00 0. -1.
     999901    1    3    3    0    0 -0.13548323035E+00  0.41655445318E-02 -0.13203690078E-01  0.89047593729E+00  0.88000000000E+00 0.  1.
        -11    1    4    4    0    0  0.64308181937E-01 -0.10866124570E-01 -0.87981583480E-02  0.65812488470E-01  0.51100000000E-03 0. -1.
         11    1    4    4    0    0  0.62038846061E-01  0.76708502680E-02 -0.13703673569E-02  0.62528388689E-01  0.51100000000E-03 0.  1.
</event>
<event>
 8    1  0.1081309E+005  0.1043930E+01  0.7957747E-01            NaN
         13   -1    0    0    0    0  0.00000000000E+00  0.00000000000E+00  0.74505805969E-08  0.10566000000E+00  0.10566000000E+00 0. -1.
     999900   -1    0    0    0    0 -0.00000000000E+00 -0.00000000000E+00 -0.74505805969E-08  0.93827000000E+00  0.93827000000E+00 0.  1.
     999902    2    1    2    0    0 -0.74939806531E-02 -0.14913611509E-02 -0.22292403578E-01  0.10203644497E+01  0.10200922875E+01 0.  0.
     999903    2    3    3    0    0  0.11679978905E+00 -0.52577228587E-01 -0.60094275635E-02  0.13001404544E+00  0.21470517108E-01 0.  0.
         14    1    1    2    0    0  0.74939806531E-02  0.14913611509E-02  0.22292403578E-01  0.23565550310E-01  0.00000000000E+00 0. -1.
     999901    1    3    3    0    0 -0.12429376970E+00  0.51085867437E-01 -0.16282976015E-01  0.89035040425E+00  0.88000000000E+00 0. -1.
        -11    1    4    4    0    0  0.65375413237E-01 -0.28066258002E-01  0.72692318929E-02  0.71517566705E-01  0.51100000000E-03 0.  1.
         11    1    4    4    0    0  0.51424375811E-01 -0.24510970586E-01 -0.13278659456E-01  0.58496478736E-01  0.51100000000E-03 0. -1.
</event>
<event>
 8    1  0.1081309E+005  0.1043930E+01  0.7957747E-01            NaN
         13   -1    0    0    0    0  0.00000000000E+00  0.00000000000E+00  0.74505805969E-08  0.10566000000E+00  0.10566000000E+00 0. -1.
     999900   -1    0    0    0    0 -0.00000000000E+00 -0.00000000000E+00 -0.74505805969E-08  0.93827000000E+00  0.93827000000E+00 0. -1.
     999902    2    1    2    0    0  0.16929708009E-01  0.56306570077E-02  0.97908966052E-02  0.10235785635E+01  0.10233762234E+01 0.  0.
     999903    2    3    3    0    0 -0.59916393203E-01  0.14306165112E-01  0.11649207724E+00  0.13376637563E+00  0.22986923575E-01 0.  0.
         14    1    1    2    0    0 -0.16929708009E-01 -0.56306570077E-02 -0.97908966052E-02  0.20351436508E-01  0.00000000000E+00 0. -1.
     999901    1    3    3    0    0  0.76846101212E-01 -0.86755081039E-02 -0.10670118064E+00  0.88981218786E+00  0.88000000000E+00 0. -1.
        -11    1    4    4    0    0 -0.76122028196E-02  0.10936125091E-01  0.23460593027E-01  0.26985273946E-01  0.51100000000E-03 0. -1.
         11    1    4    4    0    0 -0.52304190384E-01  0.33700400204E-02  0.93031484215E-01  0.10678110169E+00  0.51100000000E-03 0.  1.
</event>
<event>
 8    1  0.1081309E+005  0.1043930E+01  0.7957747E-01            NaN
         13   -1    0    0    0    0  0.00000000000E+00  0.00000000000E+00  0.74505805969E-08  0.10566000000E+00  0.10566000000E+00 0.  1.
     999900   -1    0    0    0    0 -0.00000000000E+00 -0.00000000000E+00 -0.74505805969E-08  0.93827000000E+00  0.93827000000E+00 0.  1.
     999902    2    1    2    0    0 -0.87685263932E-02 -0.14112534529E-01 -0.16917611424E-01  0.10202180565E+01  0.10199424624E+01 0.  0.
     999903    2    3    3    0    0  0.56455456044E-01 -0.20123222233E-01 -0.11605025031E+00  0.13223293486E+00  0.20633125679E-01 0.  0.
         14    1    1    2    0    0  0.87685263932E-02  0.14112534529E-01  0.16917611424E-01  0.23711943451E-01  0.00000000000E+00 0.  1.
     999901    1    3    3    0    0 -0.65223982437E-01  0.60106877042E-02  0.99132638881E-01  0.88798512169E+00  0.88000000000E+00 0. -1.
        -11    1    4    4    0    0  0.20433050353E-01 -0.48930991041E-02 -0.62360521892E-01  0.65806897642E-01  0.51100000000E-03 0.  1.
         11    1    4    4    0    0  0.36022405691E-01 -0.15230123129E-01 -0.53689728413E-01  0.66426037217E-01  0.51100000000E-03 0. -1.
</event>
<event>
 8    1  0.1081309E+005  0.1043930E+01  0.7957747E-01            NaN
         13   -1    0    0    0    0  0.00000000000E+00  0.00000000000E+00  0.74505805969E-08  0.10566000000E+00  0.10566000000E+00 0. -1.
     999900   -1    0    0    0    0 -0.00000000000E+00 -0.00000000000E+00 -0.74505805969E-08  0.93827000000E+00  0.93827000000E+00 0.  1.
     999902    2    1    2    0    0  0.99507949588E-02  0.15179148764E-01  0.12571618013E-01  0.10218512669E+01  0.10216127158E+01 0.  0.
     999903    2    3    3    0    0 -0.93076966566E-01  0.64348359025E-01 -0.63448875976E-01  0.13122707766E+00  0.19767474158E-01 0.  0.
         14    1    1    2    0    0 -0.99507949588E-02 -0.15179148764E-01 -0.12571618013E-01  0.22078733138E-01  0.00000000000E+00 0.  1.
     999901    1    3    3    0    0  0.10302776153E+00 -0.49169210261E-01  0.76020493989E-01  0.89062418920E+00  0.88000000000E+00 0. -1.
        -11    1    4    4    0    0 -0.49341777158E-01  0.22140901440E-01 -0.30267446982E-01  0.61977495573E-01  0.51100000000E-03 0. -1.
         11    1    4    4    0    0 -0.43735189408E-01  0.42207457585E-01 -0.33181428993E-01  0.69249582088E-01  0.51100000000E-03 0.  1.
</event>
<event>
 8    1  0.1081309E+005  0.1043930E+01  0.7957747E-01            NaN
         13   -1    0    0    0    0  0.00000000000E+00  0.00000000000E+00  0.74505805969E-08  0.10566000000E+00  0.10566000000E+00 0. -1.
     999900   -1    0    0    0    0 -0.00000000000E+00 -0.00000000000E+00 -0.74505805969E-08  0.93827000000E+00  0.93827000000E+00 0.  1.
     999902    2    1    2    0    0 -0.77016352170E-02 -0.14499205150E-01 -0.16509685799E-01  0.10206467043E+01  0.10203810970E+01 0.  0.
     999903    2    3    3    0    0 -0.67560996670E-01 -0.10383814489E+00 -0.45601656520E-01  0.13362306757E+00  0.20706629447E-01 0.  0.
         14    1    1    2    0    0  0.77016352170E-02  0.14499205150E-01  0.16509685799E-01  0.23283295733E-01  0.00000000000E+00 0. -1.
     999901    1    3    3    0    0  0.59859361454E-01  0.89338939739E-01  0.29091970722E-01  0.88702363670E+00  0.88000000000E+00 0. -1.
        -11    1    4    4    0    0 -0.39374575086E-01 -0.69977511152E-01 -0.38298199757E-01  0.88961915761E-01  0.51100000000E-03 0. -1.
         11    1    4    4    0    0 -0.28186421584E-01 -0.33860633737E-01 -0.73034567636E-02  0.44661151805E-01  0.51100000000E-03 0.  1.
</event>
<event>
 8    1  0.1081309E+005  0.1043930E+01  0.7957747E-01            NaN
         13   -1    0    0    0    0  0.00000000000E+00  0.00000000000E+00  0.74505805969E-08  0.10566000000E+00  0.10566000000E+00 0. -1.
     999900   -1    0    0    0    0 -0.00000000000E+00 -0.00000000000E+00 -0.74505805969E-08  0.93827000000E+00  0.93827000000E+00 0. -1.
     999902    2    1    2    0    0  0.21732601205E-01 -0.12185987056E-02 -0.81938860177E-02  0.10206720829E+01  0.10204070610E+01 0.  0.
     999903    2    3    3    0    0  0.11579256504E+00  0.18187341624E-01  0.59272114721E-01  0.13287957983E+00  0.20127136904E-01 0.  0.
         14    1    1    2    0    0 -0.21732601205E-01  0.12185987056E-02  0.81938860177E-02  0.23257917061E-01  0.00000000000E+00 0.  1.
     999901    1    3    3    0    0 -0.94059963831E-01 -0.19405940329E-01 -0.67466000739E-01  0.88779250311E+00  0.88000000000E+00 0. -1.
        -11    1    4    4    0    0  0.50116087165E-01  0.15069120084E-01  0.18483030250E-01  0.55503009838E-01  0.51100000000E-03 0.  1.
         11    1    4    4    0    0  0.65676477872E-01  0.31182215396E-02  0.40789084471E-01  0.77376569995E-01  0.51100000000E-03 0. -1.
</event>
<event>
 7    1  0.1081309E+005  0.1043930E+01  0.7957747E-01            NaN
         13   -1    0    0    0    0  0.00000000000E+00  0.00000000000E+00  0.74505805969E-08  0.10566000000E+00  0.10566000000E+00 0.  1.
     999900   -1    0    0    0    0 -0.00000000000E+00 -0.00000000000E+00 -0.74505805969E-08  0.93827000000E+00  0.93827000000E+00 0. -1.
     999903    2    1    2    0    0  0.84728724503E-01  0.59427102558E-01  0.42956512821E-01  0.11349991361E+00  0.18067404950E-01 0.  0.
         14    1    1    2    0    0 -0.42326789001E-01  0.13170265451E-01  0.76149933894E-02  0.44977784333E-01  0.00000000000E+00 0.  1.
     999901    1    1    2    0    0 -0.42401935502E-01 -0.72597368009E-01 -0.50571506210E-01  0.88545230206E+00  0.88000000000E+00 0. -1.
        -11    1    3    3    0    0  0.20725106235E-01  0.57333350457E-02  0.84783983657E-02  0.23120240462E-01  0.51100000000E-03 0. -1.
         11    1    3    3    0    0  0.64003618268E-01  0.53693767512E-01  0.34478114455E-01  0.90379673148E-01  0.51100000000E-03 0.  1.
</event>
<event>
 8    1  0.1081309E+005  0.1043930E+01  0.7957747E-01            NaN
         13   -1    0    0    0    0  0.00000000000E+00  0.00000000000E+00  0.74505805969E-08  0.10566000000E+00  0.10566000000E+00 0.  1.
     999900   -1    0    0    0    0 -0.00000000000E+00 -0.00000000000E+00 -0.74505805969E-08  0.93827000000E+00  0.93827000000E+00 0.  1.
     999902    2    1    2    0    0  0.12007821714E-01  0.25971024116E-01  0.48756787785E-02  0.10149049398E+01  0.10144898140E+01 0.  0.
     999903    2    3    3    0    0 -0.87180382454E-01  0.82488249641E-01 -0.34837680852E-01  0.12664278956E+00  0.20493943627E-01 0.  0.
         14    1    1    2    0    0 -0.12007821714E-01 -0.25971024116E-01 -0.48756787785E-02  0.29025060198E-01  0.00000000000E+00 0. -1.
     999901    1    3    3    0    0  0.99188204168E-01 -0.56517225525E-01  0.39713359631E-01  0.88826215025E+00  0.88000000000E+00 0. -1.
        -11    1    4    4    0    0 -0.60209745728E-01  0.62345350856E-01 -0.16244053467E-01  0.88183256053E-01  0.51100000000E-03 0.  1.
         11    1    4    4    0    0 -0.26970636726E-01  0.20142898785E-01 -0.18593627385E-01  0.38459533502E-01  0.51100000000E-03 0. -1.
</event>
<event>
 8    1  0.1081309E+005  0.1043930E+01  0.7957747E-01            NaN
         13   -1    0    0    0    0  0.00000000000E+00  0.00000000000E+00  0.74505805969E-08  0.10566000000E+00  0.10566000000E+00 0.  1.
     999900   -1    0    0    0    0 -0.00000000000E+00 -0.00000000000E+00 -0.74505805969E-08  0.93827000000E+00  0.93827000000E+00 0. -1.
     999902    2    1    2    0    0 -0.16808320295E-01  0.18900578397E-01 -0.11051140414E-02  0.10186125599E+01  0.10182978810E+01 0.  0.
     999903    2    3    3    0    0  0.73853063618E-01 -0.96696601727E-01  0.26514455737E-01  0.12600680416E+00  0.19240336307E-01 0.  0.
         14    1    1    2    0    0  0.16808320295E-01 -0.18900578397E-01  0.11051140414E-02  0.25317440074E-01  0.00000000000E+00 0.  1.
     999901    1    3    3    0    0 -0.90661383912E-01  0.11559718012E+00 -0.27619569779E-01  0.89260575576E+00  0.88000000000E+00 0.  1.
        -11    1    4    4    0    0  0.71778004234E-02 -0.20764743740E-01  0.71992555359E-02  0.23125436272E-01  0.51100000000E-03 0. -1.
         11    1    4    4    0    0  0.66675263194E-01 -0.75931857986E-01  0.19315200201E-01  0.10288136789E+00  0.51100000000E-03 0.  1.
</event>
<event>
 8    1  0.1081309E+005  0.1043930E+01  0.7957747E-01            NaN
         13   -1    0    0    0    0  0.00000000000E+00  0.00000000000E+00  0.74505805969E-08  0.10566000000E+00  0.10566000000E+00 0. -1.
     999900   -1    0    0    0    0 -0.00000000000E+00 -0.00000000000E+00 -0.74505805969E-08  0.93827000000E+00  0.93827000000E+00 0. -1.
     999902    2    1    2    0    0  0.12827298843E-01  0.17840064743E-01 -0.68265910414E-02  0.10209210919E+01  0.10206617785E+01 0.  0.
     999903    2    3    3    0    0 -0.28990009061E-01 -0.66976385070E-02 -0.12644869733E+00  0.13150542170E+00  0.20472515541E-01 0.  0.
         14    1    1    2    0    0 -0.12827298843E-01 -0.17840064743E-01  0.68265910414E-02  0.23008908076E-01  0.00000000000E+00 0. -1.
     999901    1    3    3    0    0  0.41817307904E-01  0.24537703250E-01  0.11962210629E+00  0.88941567022E+00  0.88000000000E+00 0.  1.
        -11    1    4    4    0    0 -0.17530200958E-01  0.64000894823E-02 -0.62463919147E-01  0.65194105617E-01  0.51100000000E-03 0.  1.
         11    1    4    4    0    0 -0.11459808103E-01 -0.13097727989E-01 -0.63984778187E-01  0.66311316085E-01  0.51100000000E-03 0. -1.
</event>
<event>
 8    1  0.1081309E+005  0.1043930E+01  0.7957747E-01            NaN
         13   -1    0    0    0    0  0.00000000000E+00  0.00000000000E+00  0.74505805969E-08  0.10566000000E+00  0.10566000000E+00 0.  1.
     999900   -1    0    0    0    0 -0.00000000000E+00 -0.00000000000E+00 -0.74505805969E-08  0.93827000000E+00  0.93827000000E+00 0.  1.
     999902    2    1    2    0    0 -0.18685593256E-01 -0.16102608386E-01  0.43813266227E-02  0.10188772274E+01  0.10185691744E+01 0.  0.
     999903    2    3    3    0    0 -0.11877493056E+00  0.79229104811E-02 -0.50970977642E-01  0.13115036705E+00  0.20787534134E-01 0.  0.
         14    1    1    2    0    0  0.18685593256E-01  0.16102608386E-01 -0.43813266227E-02  0.25052772604E-01  0.00000000000E+00 0. -1.
     999901    1    3    3    0    0  0.10008933730E+00 -0.24025518867E-01  0.55352304265E-01  0.88772686035E+00  0.88000000000E+00 0. -1.
        -11    1    4    4    0    0 -0.90657444992E-01 -0.28580874115E-02 -0.39255091646E-01  0.98834024188E-01  0.51100000000E-03 0. -1.
         11    1    4    4    0    0 -0.28117485565E-01  0.10780997893E-01 -0.11715885995E-01  0.32316342858E-01  0.51100000000E-03 0.  1.
</event>
<event>
 8    1  0.1081309E+005  0.1043930E+01  0.7957747E-01            NaN
         13   -1    0    0    0    0  0.00000000000E+00  0.00000000000E+00  0.74505805969E-08  0.10566000000E+00  0.10566000000E+00 0.  1.
     999900   -1    0    0    0    0 -0.00000000000E+00 -0.00000000000E+00 -0.74505805969E-08  0.93827000000E+00  0.93827000000E+00 0. -1.
     999902    2    1    2    0    0 -0.18992709977E-01 -0.27550292293E-02 -0.14106593234E-01  0.10201117467E+01  0.10198336465E+01 0.  0.
     999903    2    3    3    0    0 -0.56966280236E-01  0.51037651958E-01  0.10301944051E+00  0.12991280691E+00  0.20355178126E-01 0.  0.
         14    1    1    2    0    0  0.18992709977E-01  0.27550292293E-02  0.14106593234E-01  0.23818253315E-01  0.00000000000E+00 0. -1.
     999901    1    3    3    0    0  0.37973570259E-01 -0.53792681188E-01 -0.11712603374E+00  0.89019893977E+00  0.88000000000E+00 0. -1.
        -11    1    4    4    0    0 -0.15684932721E-01  0.24452296439E-01  0.28723794227E-01  0.40856448590E-01  0.51100000000E-03 0.  1.
         11    1    4    4    0    0 -0.41281347515E-01  0.26585355520E-01  0.74295646281E-01  0.89056358325E-01  0.51100000000E-03 0. -1.
</event>
<event>
 8    1  0.1081309E+005  0.1043930E+01  0.7957747E-01            NaN
         13   -1    0    0    0    0  0.00000000000E+00  0.00000000000E+00  0.74505805969E-08  0.10566000000E+00  0.10566000000E+00 0. -1.
     999900   -1    0    0    0    0 -0.00000000000E+00 -0.00000000000E+00 -0.74505805969E-08  0.93827000000E+00  0.93827000000E+00 0.  1.
     999902    2    1    2    0    0  0.25043574693E-02 -0.47968517924E-02 -0.22568061279E-01  0.10207222646E+01  0.10204583982E+01 0.  0.
     999903    2    3    3    0    0  0.89631112506E-01 -0.58730869174E-01  0.70649874672E-01  0.12988584118E+00  0.19896623447E-01 0.  0.
         14    1    1    2    0    0 -0.25043574693E-02  0.47968517924E-02  0.22568061279E-01  0.23207735421E-01  0.00000000000E+00 0. -1.
     999901    1    3    3    0    0 -0.87126755036E-01  0.53934017381E-01 -0.93217935951E-01  0.89083642340E+00  0.88000000000E+00 0.  1.
        -11    1    4    4    0    0  0.39938998753E-01 -0.15571679079E-01  0.32615318390E-01  0.53866695883E-01  0.51100000000E-03 0. -1.
         11    1    4    4    0    0  0.49692113753E-01 -0.43159190095E-01  0.38034556282E-01  0.76019145295E-01  0.51100000000E-03 0.  1.
</event>
<event>
 8    1  0.1081309E+005  0.1043930E+01  0.7957747E-01            NaN
         13   -1    0    0    0    0  0.00000000000E+00  0.00000000000E+00  0.74505805969E-08  0.10566000000E+00  0.10566000000E+00 0. -1.
     999900   -1    0    0    0    0 -0.00000000000E+00 -0.00000000000E+00 -0.74505805969E-08  0.93827000000E+00  0.93827000000E+00 0.  1.
     999902    2    1    2    0    0 -0.20322914198E-01  0.76765237262E-02 -0.83103390485E-02  0.10206703441E+01  0.10204052821E+01 0.  0.
     999903    2    3    3    0    0 -0.80816264109E-01 -0.20749644300E-01 -0.10194378090E+00  0.13318247722E+00  0.19576043758E-01 0.  0.
         14    1    1    2    0    0  0.20322914198E-01 -0.76765237262E-02  0.83103390485E-02  0.23259655911E-01  0.00000000000E+00 0. -1.
     999901    1    3    3    0    0  0.60493349911E-01  0.28426168026E-01  0.93633441856E-01  0.88748786687E+00  0.88000000000E+00 0. -1.
        -11    1    4    4    0    0 -0.26857427937E-01 -0.14583864892E-01 -0.28128209472E-01  0.41538751061E-01  0.51100000000E-03 0. -1.
         11    1    4    4    0    0 -0.53958836171E-01 -0.61657794079E-02 -0.73815571433E-01  0.91643726156E-01  0.51100000000E-03 0.  1.
</event>
<event>
 8    1  0.1081309E+005  0.1043930E+01  0.7957747E-01            NaN
         13   -1    0    0    0    0  0.00000000000E+00  0.00000000000E+00  0.74505805969E-08  0.10566000000E+00  0.10566000000E+00 0. -1.
     999900   -1    0    0    0    0 -0.00000000000E+00 -0.00000000000E+00 -0.74505805969E-08  0.93827000000E+00  0.93827000000E+00 0.  1.
     999902    2    1    2    0    0 -0.88896985829E-02  0.19503477165E-01  0.49961305396E-02  0.10219215088E+01  0.10216844897E+01 0.  0.
     999903    2    3    3    0    0 -0.10760192711E+00  0.53934784273E-01 -0.54282534967E-01  0.13375284291E+00  0.21356350623E-01 0.  0.
         14    1    1    2    0    0  0.88896985829E-02 -0.19503477165E-01 -0.49961305396E-02  0.22008491152E-01  0.00000000000E+00 0. -1.
     999901    1    3    3    0    0  0.98712228526E-01 -0.34431307107E-01  0.59278665507E-01  0.88816866594E+00  0.88000000000E+00 0. -1.
        -11    1    4    4    0    0 -0.65924559041E-01  0.44339624395E-01 -0.36487529658E-01  0.87427974458E-01  0.51100000000E-03 0. -1.
         11    1    4    4    0    0 -0.41677368068E-01  0.95951598772E-02 -0.17795005309E-01  0.46324868452E-01  0.51100000000E-03 0.  1.
</event>
<event>
 8    1  0.1081309E+005  0.1043930E+01  0.7957747E-01            NaN
         13   -1    0    0    0    0  0.00000000000E+00  0.00000000000E+00  0.74505805969E-08  0.10566000000E+00  0.10566000000E+00 0. -1.
     999900   -1    0    0    0    0 -0.00000000000E+00 -0.00000000000E+00 -0.74505805969E-08  0.93827000000E+00  0.93827000000E+00 0. -1.
     999902    2    1    2    0    0 -0.21956149013E-01  0.84506525534E-02 -0.24286020042E-02  0.10202786974E+01  0.10200045275E+01 0.  0.
     999903    2    3    3    0    0  0.11918628414E+00 -0.14876661542E-01 -0.39427730538E-01  0.12795908786E+00  0.19806484879E-01 0.  0.
         14    1    1    2    0    0  0.21956149013E-01 -0.84506525534E-02  0.24286020042E-02  0.23651302623E-01  0.00000000000E+00 0. -1.
     999901    1    3    3    0    0 -0.14114243316E+00  0.23327314095E-01  0.36999128534E-01  0.89231960952E+00  0.88000000000E+00 0. -1.
        -11    1    4    4    0    0  0.41831318957E-01 -0.14777821560E-01 -0.13635835074E-01  0.46415949574E-01  0.51100000000E-03 0.  1.
         11    1    4    4    0    0  0.77354965188E-01 -0.98839981895E-04 -0.25791895464E-01  0.81543138284E-01  0.51100000000E-03 0. -1.
</event>
<event>
 8    1  0.1081309E+005  0.1043930E+01  0.7957747E-01            NaN
         13   -1    0    0    0    0  0.00000000000E+00  0.00000000000E+00  0.74505805969E-08  0.10566000000E+00  0.10566000000E+00 0. -1.
     999900   -1    0    0    0    0 -0.00000000000E+00 -0.00000000000E+00 -0.74505805969E-08  0.93827000000E+00  0.93827000000E+00 0. -1.
     999902    2    1    2    0    0  0.12863298821E-01  0.17232027251E-01  0.10760834647E-01  0.10198841525E+01  0.10196006482E+01 0.  0.
     999903    2    3    3    0    0 -0.10020025872E+00  0.29033959571E-01 -0.72573258895E-01  0.12866744215E+00  0.20133805077E-01 0.  0.
         14    1    1    2    0    0 -0.12863298821E-01 -0.17232027251E-01 -0.10760834647E-01  0.24045847502E-01  0.00000000000E+00 0.  1.
     999901    1    3    3    0    0  0.11306355755E+00 -0.11801932319E-01  0.83334093542E-01  0.89121671034E+00  0.88000000000E+00 0. -1.
        -11    1    4    4    0    0 -0.70023710046E-01  0.27767999558E-01 -0.44875272631E-01  0.87683709906E-01  0.51100000000E-03 0.  1.
         11    1    4    4    0    0 -0.30176548678E-01  0.12659600126E-02 -0.27697986264E-01  0.40983732248E-01  0.51100000000E-03 0. -1.
</event>
<event>
 8    1  0.1081309E+005  0.1043930E+01  0.7957747E-01            NaN
         13   -1    0    0    0    0  0.00000000000E+00  0.00000000000E+00  0.74505805969E-08  0.10566000000E+00  0.10566000000E+00 0.  1.
     999900   -1    0    0    0    0 -0.00000000000E+00 -0.00000000000E+00 -0.74505805969E-08  0.93827000000E+00  0.93827000000E+00 0. -1.
     999902    2    1    2    0    0 -0.19275664171E-01 -0.12236657246E-01  0.94712987763E-03  0.10210786529E+01  0.10208229187E+01 0.  0.
     999903    2    3    3    0    0  0.22465328131E-01 -0.10055707458E+00 -0.79930952419E-01  0.13198694179E+00  0.20375952277E-01 0.  0.
         14    1    1    2    0    0  0.19275664171E-01  0.12236657246E-01 -0.94712987763E-03  0.22851347111E-01  0.00000000000E+00 0. -1.
     999901    1    3    3    0    0 -0.41740992301E-01  0.88320417335E-01  0.80878082297E-01  0.88909171110E+00  0.88000000000E+00 0.  1.
        -11    1    4    4    0    0  0.11942141649E-01 -0.31011451711E-01 -0.36290620440E-01  0.49209705722E-01  0.51100000000E-03 0. -1.
         11    1    4    4    0    0  0.10523186482E-01 -0.69545622870E-01 -0.43640331979E-01  0.82777236064E-01  0.51100000000E-03 0.  1.
</event>
<event>
 8    1  0.1081309E+005  0.1043930E+01  0.7957747E-01            NaN
         13   -1    0    0    0    0  0.00000000000E+00  0.00000000000E+00  0.74505805969E-08  0.10566000000E+00  0.10566000000E+00 0.  1.
     999900   -1    0    0    0    0 -0.00000000000E+00 -0.00000000000E+00 -0.74505805969E-08  0.93827000000E+00  0.93827000000E+00 0.  1.
     999902    2    1    2    0    0  0.24977677690E-01 -0.52982625934E-02 -0.12928821518E-01  0.10153098953E+01  0.10149064356E+01 0.  0.
     999903    2    3    3    0    0 -0.11191277325E+00  0.33430154639E-01  0.31839620334E-01  0.12276124155E+00  0.20359689280E-01 0.  0.
         14    1    1    2    0    0 -0.24977677690E-01  0.52982625934E-02  0.12928821518E-01  0.28620104736E-01  0.00000000000E+00 0.  1.
     999901    1    3    3    0    0  0.13689045094E+00 -0.38728417233E-01 -0.44768441852E-01  0.89254865371E+00  0.88000000000E+00 0.  1.
        -11    1    4    4    0    0 -0.87013972423E-01  0.19399482489E-01  0.17785033160E-01  0.90908414589E-01  0.51100000000E-03 0. -1.
         11    1    4    4    0    0 -0.24898800830E-01  0.14030672150E-01  0.14054587174E-01  0.31852826961E-01  0.51100000000E-03 0.  1.
</event>
<event>
 8    1  0.1081309E+005  0.1043930E+01  0.7957747E-01            NaN
         13   -1    0    0    0    0  0.00000000000E+00  0.00000000000E+00  0.74505805969E-08  0.10566000000E+00  0.10566000000E+00 0.  1.
     999900   -1    0    0    0    0 -0.00000000000E+00 -0.00000000000E+00 -0.74505805969E-08  0.93827000000E+00  0.93827000000E+00 0. -1.
     999902    2    1    2    0    0  0.12427330134E-01 -0.19881476385E-01  0.32541461281E-02  0.10202593197E+01  0.10199846952E+01 0.  0.
     999903    2    3    3    0    0 -0.78061642639E-01  0.93901265685E-01 -0.32116724970E-01  0.12763069308E+00  0.18629064526E-01 0.  0.
         14    1    1    2    0    0 -0.12427330134E-01  0.19881476385E-01 -0.32541461281E-02  0.23670680272E-01  0.00000000000E+00 0.  1.
     999901    1    3    3    0    0  0.90488972773E-01 -0.11378274207E+00  0.35370871098E-01  0.89262862665E+00  0.88000000000E+00 0. -1.
        -11    1    4    4    0    0 -0.26409044161E-01  0.29341801814E-01 -0.19360668956E-01  0.43971303945E-01  0.51100000000E-03 0.  1.
         11    1    4    4    0    0 -0.51652598478E-01  0.64559463870E-01 -0.12756056014E-01  0.83659389137E-01  0.51100000000E-03 0. -1.
</event>
<event>
 8    1  0.1081309E+005  0.1043930E+01  0.7957747E-01            NaN
         13   -1    0    0    0    0  0.00000000000E+00  0.00000000000E+00  0.74505805969E-08  0.10566000000E+00  0.10566000000E+00 0.  1.
     999900   -1    0    0    0    0 -0.00000000000E+00 -0.00000000000E+00 -0.74505805969E-08  0.93827000000E+00  0.93827000000E+00 0.  1.
     999902    2    1    2    0    0  0.12669305295E-02  0.13750553170E-01 -0.19755233555E-01  0.10198270525E+01  0.10195421840E+01 0.  0.
     999903    2    3    3    0    0  0.47204528839E-01 -0.62546310889E-01 -0.10359983321E+00  0.13136692886E+00  0.19596836672E-01 0.  0.
         14    1    1    2    0    0 -0.12669305295E-02 -0.13750553170E-01  0.19755233555E-01  0.24102947502E-01  0.00000000000E+00 0.  1.
     999901    1    3    3    0    0 -0.45937598310E-01  0.76296864059E-01  0.83844599658E-01  0.88846012364E+00  0.88000000000E+00 0. -1.
        -11    1    4    4    0    0  0.15920391780E-01 -0.19325695881E-01 -0.48975370013E-01  0.55007175756E-01  0.51100000000E-03 0.  1.
         11    1    4    4    0    0  0.31284137059E-01 -0.43220615009E-01 -0.54624463200E-01  0.76359753104E-01  0.51100000000E-03 0. -1.
</event>
<event>
 8    1  0.1081309E+005  0.1043930E+01  0.7957747E-01            NaN
         13   -1    0    0    0    0  0.00000000000E+00  0.00000000000E+00  0.74505805969E-08  0.10566000000E+00  0.10566000000E+00 0.  1.
     999900   -1    0    0    0    0 -0.00000000000E+00 -0.00000000000E+00 -0.74505805969E-08  0.93827000000E+00  0.93827000000E+00 0. -1.
     999902    2    1    2    0    0 -0.94271774136E-02 -0.22387377631E-01 -0.26181707964E-02  0.10194980298E+01  0.10192052352E+01 0.  0.
     999903    2    3    3    0    0  0.69421598876E-01  0.95455024926E-01  0.42451892527E-01  0.12700978224E+00  0.19957490617E-01 0.  0.
         14    1    1    2    0    0  0.94271774136E-02  0.22387377631E-01  0.26181707964E-02  0.24431970234E-01  0.00000000000E+00 0.  1.
     999901    1    3    3    0    0 -0.78848776290E-01 -0.11784240256E+00 -0.45070063323E-01  0.89248824753E+00  0.88000000000E+00 0. -1.
        -11    1    4    4    0    0  0.62988789461E-01  0.73750172468E-01  0.32675367244E-01  0.10234557285E+00  0.51100000000E-03 0. -1.
         11    1    4    4    0    0  0.64328094146E-02  0.21704852458E-01  0.97765252830E-02  0.24664209389E-01  0.51100000000E-03 0.  1.
</event>
<event>
 8    1  0.1081309E+005  0.1043930E+01  0.7957747E-01            NaN
         13   -1    0    0    0    0  0.00000000000E+00  0.00000000000E+00  0.74505805969E-08  0.10566000000E+00  0.10566000000E+00 0.  1.
     999900   -1    0    0    0    0 -0.00000000000E+00 -0.00000000000E+00 -0.74505805969E-08  0.93827000000E+00  0.93827000000E+00 0.  1.
     999902    2    1    2    0    0  0.22029838056E-01  0.14815715950E-02  0.11214224085E-01  0.10191657588E+01  0.10188648469E+01 0.  0.
     999903    2    3    3    0    0  0.10268313781E-01  0.43986218231E-01  0.12144148721E+00  0.13119333359E+00  0.20577422130E-01 0.  0.
         14    1    1    2    0    0 -0.22029838056E-01 -0.14815715950E-02 -0.11214224085E-01  0.24764241175E-01  0.00000000000E+00 0. -1.
     999901    1    3    3    0    0  0.11761524275E-01 -0.42504646636E-01 -0.11022726312E+00  0.88797242523E+00  0.88000000000E+00 0.  1.
        -11    1    4    4    0    0 -0.10726874089E-02  0.29565894212E-01  0.57455018727E-01  0.64626875653E-01  0.51100000000E-03 0.  1.
         11    1    4    4    0    0  0.11341001190E-01  0.14420324019E-01  0.63986468481E-01  0.66566457938E-01  0.51100000000E-03 0. -1.
</event>
<event>
 8    1  0.1081309E+005  0.1043930E+01  0.7957747E-01            NaN
         13   -1    0    0    0    0  0.00000000000E+00  0.00000000000E+00  0.74505805969E-08  0.10566000000E+00  0.10566000000E+00 0. -1.
     999900   -1    0    0    0    0 -0.00000000000E+00 -0.00000000000E+00 -0.74505805969E-08  0.93827000000E+00  0.93827000000E+00 0.  1.
     999902    2    1    2    0    0 -0.12489959549E-01  0.88987353695E-03 -0.20397203934E-01  0.10199959888E+01  0.10197151466E+01 0.  0.
     999903    2    3    3    0    0  0.11316669719E+00  0.38163743647E-01  0.41875634388E-01  0.12811211565E+00  0.19899063728E-01 0.  0.
         14    1    1    2    0    0  0.12489959549E-01 -0.88987353695E-03  0.20397203934E-01  0.23934011214E-01  0.00000000000E+00 0. -1.
     999901    1    3    3    0    0 -0.12565665674E+00 -0.37273870110E-01 -0.62272838322E-01  0.89188387314E+00  0.88000000000E+00 0.  1.
        -11    1    4    4    0    0  0.53256978231E-01  0.21344151352E-01  0.30051544953E-01  0.64770633795E-01  0.51100000000E-03 0.  1.
         11    1    4    4    0    0  0.59909718961E-01  0.16819592295E-01  0.11824089435E-01  0.63341481850E-01  0.51100000000E-03 0. -1.
</event>
<event>
 8    1  0.1081309E+005  0.1043930E+01  0.7957747E-01            NaN
         13   -1    0    0    0    0  0.00000000000E+00  0.00000000000E+00  0.74505805969E-08  0.10566000000E+00  0.10566000000E+00 0.  1.
     999900   -1    0    0    0    0 -0.00000000000E+00 -0.00000000000E+00 -0.74505805969E-08  0.93827000000E+00  0.93827000000E+00 0. -1.
     999902    2    1    2    0    0  0.10659928305E-01  0.85721079937E-02  0.19323888467E-01  0.10202545323E+01  0.10199797953E+01 0.  0.
     999903    2    3    3    0    0  0.77201201389E-01 -0.94311794165E-01 -0.40346518687E-01  0.12976399563E+00  0.18870955918E-01 0.  0.
         14    1    1    2    0    0 -0.10659928305E-01 -0.85721079937E-02 -0.19323888467E-01  0.23675467734E-01  0.00000000000E+00 0. -1.
     999901    1    3    3    0    0 -0.66541273084E-01  0.10288390216E+00  0.59670407154E-01  0.89049053664E+00  0.88000000000E+00 0. -1.
        -11    1    4    4    0    0  0.42370241484E-01 -0.65796384930E-01 -0.27464700218E-01  0.82939571450E-01  0.51100000000E-03 0. -1.
         11    1    4    4    0    0  0.34830959905E-01 -0.28515409235E-01 -0.12881818469E-01  0.46824424180E-01  0.51100000000E-03 0.  1.
</event>
<event>
 8    1  0.1081309E+005  0.1043930E+01  0.7957747E-01            NaN
         13   -1    0    0    0    0  0.00000000000E+00  0.00000000000E+00  0.74505805969E-08  0.10566000000E+00  0.10566000000E+00 0. -1.
     999900   -1    0    0    0    0 -0.00000000000E+00 -0.00000000000E+00 -0.74505805969E-08  0.93827000000E+00  0.93827000000E+00 0.  1.
     999902    2    1    2    0    0  0.38328705027E-02  0.18847051712E-01 -0.14720740130E-01  0.10197101229E+01  0.10194224504E+01 0.  0.
     999903    2    3    3    0    0 -0.78986870802E-01  0.11901418903E-02  0.98423830094E-01  0.12843431278E+00  0.23828138247E-01 0.  0.
         14    1    1    2    0    0 -0.38328705027E-02 -0.18847051712E-01  0.14720740130E-01  0.24219877054E-01  0.00000000000E+00 0. -1.
     999901    1    3    3    0    0  0.82819741304E-01  0.17656909822E-01 -0.11314457022E+00  0.89127581017E+00  0.88000000000E+00 0.  1.
        -11    1    4    4    0    0 -0.41704335927E-01  0.12350909303E-02  0.33270603633E-01  0.53366387097E-01  0.51100000000E-03 0. -1.
         11    1    4    4    0    0 -0.37282534875E-01 -0.44949040083E-04  0.65153226462E-01  0.75067925684E-01  0.51100000000E-03 0.  1.
</event>
<event>
 8    1  0.1081309E+005  0.1043930E+01  0.7957747E-01            NaN
         13   -1    0    0    0    0  0.00000000000E+00  0.00000000000E+00  0.74505805969E-08  0.10566000000E+00  0.10566000000E+00 0. -1.
     999900   -1    0    0    0    0 -0.00000000000E+00 -0.00000000000E+00 -0.74505805969E-08  0.93827000000E+00  0.93827000000E+00 0.  1.
     999902    2    1    2    0    0 -0.10480697690E-01 -0.20938794096E-01  0.95149483915E-04  0.10205144672E+01  0.10202457991E+01 0.  0.
     999903    2    3    3    0    0  0.98931180896E-01  0.44817477464E-01 -0.64505925291E-01  0.12896068572E+00  0.25958798606E-01 0.  0.
         14    1    1    2    0    0  0.10480697690E-01  0.20938794096E-01 -0.95149483915E-04  0.23415532787E-01  0.00000000000E+00 0.  1.
     999901    1    3    3    0    0 -0.10941187859E+00 -0.65756271560E-01  0.64601074775E-01  0.89155378149E+00  0.88000000000E+00 0. -1.
        -11    1    4    4    0    0  0.90537479450E-01  0.44958568683E-01 -0.51441296353E-01  0.11342299667E+00  0.51100000000E-03 0. -1.
         11    1    4    4    0    0  0.83937014459E-02 -0.14109121948E-03 -0.13064628938E-01  0.15537689049E-01  0.51100000000E-03 0.  1.
</event>
<event>
 8    1  0.1081309E+005  0.1043930E+01  0.7957747E-01            NaN
         13   -1    0    0    0    0  0.00000000000E+00  0.00000000000E+00  0.74505805969E-08  0.10566000000E+00  0.10566000000E+00 0. -1.
     999900   -1    0    0    0    0 -0.00000000000E+00 -0.00000000000E+00 -0.74505805969E-08  0.93827000000E+00  0.93827000000E+00 0.  1.
     999902    2    1    2    0    0  0.16731575907E-01 -0.16247131541E-01 -0.61389664190E-03  0.10205999382E+01  0.10203332505E+01 0.  0.
     999903    2    3    3    0    0  0.77041590002E-01  0.82867187499E-01  0.62368322730E-01  0.13075292548E+00  0.20103295462E-01 0.  0.
         14    1    1    2    0    0 -0.16731575907E-01  0.16247131541E-01  0.61389664190E-03  0.23330061824E-01  0.00000000000E+00 0. -1.
     999901    1    3    3    0    0 -0.60310014095E-01 -0.99114319041E-01 -0.62982219372E-01  0.88984701269E+00  0.88000000000E+00 0. -1.
        -11    1    4    4    0    0  0.59215533410E-01  0.53448086388E-01  0.50249436224E-01  0.94278546326E-01  0.51100000000E-03 0.  1.
         11    1    4    4    0    0  0.17826056592E-01  0.29419101111E-01  0.12118886506E-01  0.36474379158E-01  0.51100000000E-03 0. -1.
</event>
<event>
 8    1  0.1081309E+005  0.1043930E+01  0.7957747E-01            NaN
         13   -1    0    0    0    0  0.00000000000E+00  0.00000000000E+00  0.74505805969E-08  0.10566000000E+00  0.10566000000E+00 0.  1.
     999900   -1    0    0    0    0 -0.00000000000E+00 -0.00000000000E+00 -0.74505805969E-08  0.93827000000E+00  0.93827000000E+00 0.  1.
     999902    2    1    2    0    0  0.13130352497E-01 -0.84515600688E-02  0.17445366839E-01  0.10205168445E+01  0.10202482316E+01 0.  0.
     999903    2    3    3    0    0 -0.85370256367E-01 -0.77832383171E-01  0.59780517251E-01  0.13129902335E+00  0.17881911215E-01 0.  0.
         14    1    1    2    0    0 -0.13130352497E-01  0.84515600688E-02 -0.17445366839E-01  0.23413155457E-01  0.00000000000E+00 0. -1.
     999901    1    3    3    0    0  0.98500608864E-01  0.69380823102E-01 -0.42335150412E-01  0.88921782119E+00  0.88000000000E+00 0. -1.
        -11    1    4    4    0    0 -0.45379819019E-01 -0.52844746048E-01  0.38095919056E-01  0.79394302874E-01  0.51100000000E-03 0. -1.
         11    1    4    4    0    0 -0.39990437348E-01 -0.24987637123E-01  0.21684598195E-01  0.51904720480E-01  0.51100000000E-03 0.  1.
</event>
<event>
 8    1  0.1294520E+005  0.1043930E+01  0.7957747E-01            NaN
         13   -1    0    0    0    0  0.00000000000E+00  0.00000000000E+00  0.74505805969E-08  0.10566000000E+00  0.10566000000E+00 0.  1.
     999900   -1    0    0    0    0 -0.00000000000E+00 -0.00000000000E+00 -0.74505805969E-08  0.93827000000E+00  0.93827000000E+00 0.  1.
     999902    2    1    2    0    0  0.46215799235E-02 -0.20273191649E-01  0.12115000104E-01  0.10198647859E+01  0.10195808193E+01 0.  0.
     999903    2    3    3    0    0 -0.23686162712E-01  0.56883470340E-02  0.12747948745E+00  0.13150433278E+00  0.21189106244E-01 0.  0.
         14    1    1    2    0    0 -0.46215799235E-02  0.20273191649E-01 -0.12115000104E-01  0.24065214068E-01  0.00000000000E+00 0.  1.
     999901    1    3    3    0    0  0.28307742636E-01 -0.25961538683E-01 -0.11536448735E+00  0.88836045315E+00  0.88000000000E+00 0.  1.
        -11    1    4    4    0    0 -0.21543219217E-01  0.29560316463E-02  0.58130979833E-01  0.62067063365E-01  0.51100000000E-03 0.  1.
         11    1    4    4    0    0 -0.21429434949E-02  0.27323153877E-02  0.69348507616E-01  0.69437269415E-01  0.51100000000E-03 0. -1.
</event>
<event>
 8    1  0.1081309E+005  0.1043930E+01  0.7957747E-01            NaN
         13   -1    0    0    0    0  0.00000000000E+00  0.00000000000E+00  0.74505805969E-08  0.10566000000E+00  0.10566000000E+00 0.  1.
     999900   -1    0    0    0    0 -0.00000000000E+00 -0.00000000000E+00 -0.74505805969E-08  0.93827000000E+00  0.93827000000E+00 0. -1.
     999902    2    1    2    0    0 -0.24504221172E-01  0.15407537907E-02 -0.72791924247E-02  0.10183210676E+01  0.10179990075E+01 0.  0.
     999903    2    3    3    0    0  0.35476333189E-01 -0.84129911791E-01  0.85905397673E-01  0.12724278949E+00  0.21784807868E-01 0.  0.
         14    1    1    2    0    0  0.24504221172E-01 -0.15407537907E-02  0.72791924247E-02  0.25608932423E-01  0.00000000000E+00 0.  1.
     999901    1    3    3    0    0 -0.59980554361E-01  0.85670665582E-01 -0.93184590098E-01  0.89107827808E+00  0.88000000000E+00 0. -1.
        -11    1    4    4    0    0  0.15320994696E-01 -0.61841751439E-01  0.55609050014E-01  0.84568094835E-01  0.51100000000E-03 0.  1.
         11    1    4    4    0    0  0.20155338492E-01 -0.22288160353E-01  0.30296347659E-01  0.42674694657E-01  0.51100000000E-03 0. -1.
</event>
<event>
 8    1  0.1081309E+005  0.1043930E+01  0.7957747E-01            NaN
         13   -1    0    0    0    0  0.00000000000E+00  0.00000000000E+00  0.74505805969E-08  0.10566000000E+00  0.10566000000E+00 0. -1.
     999900   -1    0    0    0    0 -0.00000000000E+00 -0.00000000000E+00 -0.74505805969E-08  0.93827000000E+00  0.93827000000E+00 0.  1.
     999902    2    1    2    0    0  0.20649011091E-01  0.10075644495E-01 -0.58172940370E-02  0.10202289203E+01  0.10199535816E+01 0.  0.
     999903    2    3    3    0    0 -0.46418759026E-01  0.94692722689E-01 -0.74980266490E-01  0.13093613806E+00  0.20020463717E-01 0.  0.
         14    1    1    2    0    0 -0.20649011091E-01 -0.10075644495E-01  0.58172940370E-02  0.23701079742E-01  0.00000000000E+00 0. -1.
     999901    1    3    3    0    0  0.67067770117E-01 -0.84617078194E-01  0.69162972453E-01  0.88929278220E+00  0.88000000000E+00 0.  1.
        -11    1    4    4    0    0 -0.11312863423E-01  0.45597366536E-01 -0.32475754030E-01  0.57114240209E-01  0.51100000000E-03 0.  1.
         11    1    4    4    0    0 -0.35105895603E-01  0.49095356153E-01 -0.42504512460E-01  0.73821897852E-01  0.51100000000E-03 0. -1.
</event>
<event>
 8    1  0.1081309E+005  0.1043930E+01  0.7957747E-01            NaN
         13   -1    0    0    0    0  0.00000000000E+00  0.00000000000E+00  0.74505805969E-08  0.10566000000E+00  0.10566000000E+00 0.  1.
     999900   -1    0    0    0    0 -0.00000000000E+00 -0.00000000000E+00 -0.74505805969E-08  0.93827000000E+00  0.93827000000E+00 0. -1.
     999902    2    1    2    0    0  0.10535949663E-01 -0.20944511373E-01 -0.60653165504E-02  0.10197129222E+01  0.10194253170E+01 0.  0.
     999903    2    3    3    0    0  0.60471554929E-01  0.84952214659E-01  0.72271003141E-01  0.12850909578E+00  0.20440207238E-01 0.  0.
         14    1    1    2    0    0 -0.10535949663E-01  0.20944511373E-01  0.60653165504E-02  0.24217077793E-01  0.00000000000E+00 0.  1.
     999901    1    3    3    0    0 -0.49935605266E-01 -0.10589672603E+00 -0.78336319691E-01  0.89120382643E+00  0.88000000000E+00 0.  1.
        -11    1    4    4    0    0  0.31256695330E-01  0.30507632153E-01  0.22309913595E-01  0.49047833674E-01  0.51100000000E-03 0.  1.
         11    1    4    4    0    0  0.29214859599E-01  0.54444582507E-01  0.49961089546E-01  0.79461262105E-01  0.51100000000E-03 0. -1.
</event>
<event>
 8    1  0.1081309E+005  0.1043930E+01  0.7957747E-01            NaN
         13   -1    0    0    0    0  0.00000000000E+00  0.00000000000E+00  0.74505805969E-08  0.10566000000E+00  0.10566000000E+00 0.  1.
     999900   -1    0    0    0    0 -0.00000000000E+00 -0.00000000000E+00 -0.74505805969E-08  0.93827000000E+00  0.93827000000E+00 0. -1.
     999902    2    1    2    0    0  0.10098092833E-01  0.10827057831E-01 -0.18207815391E-01  0.10204625502E+01  0.10201926755E+01 0.  0.
     999903    2    3    3    0    0 -0.12792609890E-01 -0.28852192890E-01  0.12223567572E+00  0.12814937566E+00  0.22013681237E-01 0.  0.
         14    1    1    2    0    0 -0.10098092833E-01 -0.10827057831E-01  0.18207815391E-01  0.23467449828E-01  0.00000000000E+00 0.  1.
     999901    1    3    3    0    0  0.22890702723E-01  0.39679250721E-01 -0.14044349111E+00  0.89231317451E+00  0.88000000000E+00 0. -1.
        -11    1    4    4    0    0 -0.30948243346E-02 -0.28241455815E-01  0.83168988725E-01  0.87889132268E-01  0.51100000000E-03 0.  1.
         11    1    4    4    0    0 -0.96977855556E-02 -0.61073707511E-03  0.39066686994E-01  0.40260243394E-01  0.51100000000E-03 0. -1.
</event>
<event>
 8    1  0.1081309E+005  0.1043930E+01  0.7957747E-01            NaN
         13   -1    0    0    0    0  0.00000000000E+00  0.00000000000E+00  0.74505805969E-08  0.10566000000E+00  0.10566000000E+00 0. -1.
     999900   -1    0    0    0    0 -0.00000000000E+00 -0.00000000000E+00 -0.74505805969E-08  0.93827000000E+00  0.93827000000E+00 0. -1.
     999902    2    1    2    0    0  0.17258122565E-02 -0.41163804233E-02  0.22609557133E-01  0.10208840657E+01  0.10206239074E+01 0.  0.
     999903    2    3    3    0    0  0.75268033829E-01 -0.27323302572E-02  0.10856203895E+00  0.13364215779E+00  0.20044138650E-01 0.  0.
         14    1    1    2    0    0 -0.17258122565E-02  0.41163804233E-02 -0.22609557133E-01  0.23045934338E-01  0.00000000000E+00 0.  1.
     999901    1    3    3    0    0 -0.73542221573E-01 -0.13840501661E-02 -0.85952481813E-01  0.88724190787E+00  0.88000000000E+00 0.  1.
        -11    1    4    4    0    0  0.19165370094E-01  0.80704773288E-02  0.28549950504E-01  0.35324280742E-01  0.51100000000E-03 0. -1.
         11    1    4    4    0    0  0.56102663735E-01 -0.10802807586E-01  0.80012088443E-01  0.98317877051E-01  0.51100000000E-03 0.  1.
</event>
<event>
 7    1  0.1081309E+005  0.1043930E+01  0.7957747E-01            NaN
         13   -1    0    0    0    0  0.00000000000E+00  0.00000000000E+00  0.74505805969E-08  0.10566000000E+00  0.10566000000E+00 0.  1.
     999900   -1    0    0    0    0 -0.00000000000E+00 -0.00000000000E+00 -0.74505805969E-08  0.93827000000E+00  0.93827000000E+00 0. -1.
     999903    2    1    2    0    0 -0.69191668380E-01  0.86576302380E-01  0.20821507123E-01  0.11466904904E+00  0.20796935900E-01 0.  0.
         14    1    1    2    0    0  0.77345233259E-02 -0.30029149745E-01  0.30924393334E-01  0.43793730014E-01  0.00000000000E+00 0.  1.
     999901    1    1    2    0    0  0.61457145054E-01 -0.56547152635E-01 -0.51745900457E-01  0.88546722094E+00  0.88000000000E+00 0. -1.
        -11    1    3    3    0    0 -0.44873861242E-01  0.60899581729E-01  0.23459810321E-01  0.79202564976E-01  0.51100000000E-03 0.  1.
         11    1    3    3    0    0 -0.24317807137E-01  0.25676720651E-01 -0.26383031972E-02  0.35466484068E-01  0.51100000000E-03 0. -1.
</event>
<event>
 8    1  0.1081309E+005  0.1043930E+01  0.7957747E-01            NaN
         13   -1    0    0    0    0  0.00000000000E+00  0.00000000000E+00  0.74505805969E-08  0.10566000000E+00  0.10566000000E+00 0. -1.
     999900   -1    0    0    0    0 -0.00000000000E+00 -0.00000000000E+00 -0.74505805969E-08  0.93827000000E+00  0.93827000000E+00 0.  1.
     999902    2    1    2    0    0 -0.91754310119E-02 -0.21973133913E-01 -0.24570330912E-02  0.10199916592E+01  0.10197107142E+01 0.  0.
     999903    2    3    3    0    0  0.33816130639E-01  0.10259908609E+00  0.64890016675E-01  0.12763403052E+00  0.20239276768E-01 0.  0.
         14    1    1    2    0    0  0.91754310119E-02  0.21973133913E-01  0.24570330912E-02  0.23938340791E-01  0.00000000000E+00 0. -1.
     999901    1    3    3    0    0 -0.42991561651E-01 -0.12457222000E+00 -0.67347049766E-01  0.89235762869E+00  0.88000000000E+00 0. -1.
        -11    1    4    4    0    0  0.20486675701E-01  0.82489143335E-01  0.43967974981E-01  0.95695384394E-01  0.51100000000E-03 0. -1.
         11    1    4    4    0    0  0.13329454938E-01  0.20109942757E-01  0.20922041694E-01  0.31938646124E-01  0.51100000000E-03 0.  1.
</event>
<event>
 8    1  0.1081309E+005  0.1043930E+01  0.7957747E-01            NaN
         13   -1    0    0    0    0  0.00000000000E+00  0.00000000000E+00  0.74505805969E-08  0.10566000000E+00  0.10566000000E+00 0. -1.
     999900   -1    0    0    0    0 -0.00000000000E+00 -0.00000000000E+00 -0.74505805969E-08  0.93827000000E+00  0.93827000000E+00 0.  1.
     999902    2    1    2    0    0 -0.93749392799E-02 -0.84031103431E-02  0.21007388227E-01  0.10194389382E+01  0.10191447083E+01 0.  0.
     999903    2    3    3    0    0 -0.33683687240E-01  0.71030212718E-01 -0.98578637899E-01  0.12747403656E+00  0.18761669497E-01 0.  0.
         14    1    1    2    0    0  0.93749392799E-02  0.84031103431E-02 -0.21007388227E-01  0.24491061840E-01  0.00000000000E+00 0.  1.
     999901    1    3    3    0    0  0.24308747960E-01 -0.79433323061E-01  0.11958602613E+00  0.89196490160E+00  0.88000000000E+00 0. -1.
        -11    1    4    4    0    0 -0.22696295859E-01  0.43754871703E-01 -0.47052313440E-01  0.68145373757E-01  0.51100000000E-03 0. -1.
         11    1    4    4    0    0 -0.10987391381E-01  0.27275341015E-01 -0.51526324459E-01  0.59328662804E-01  0.51100000000E-03 0.  1.
</event>
<event>
 8    1  0.1081309E+005  0.1043930E+01  0.7957747E-01            NaN
         13   -1    0    0    0    0  0.00000000000E+00  0.00000000000E+00  0.74505805969E-08  0.10566000000E+00  0.10566000000E+00 0.  1.
     999900   -1    0    0    0    0 -0.00000000000E+00 -0.00000000000E+00 -0.74505805969E-08  0.93827000000E+00  0.93827000000E+00 0. -1.
     999902    2    1    2    0    0 -0.22315637340E-01 -0.44831706915E-02  0.85159386229E-02  0.10196275783E+01  0.10193379178E+01 0.  0.
     999903    2    3    3    0    0  0.12048776143E+00  0.14208298862E-01  0.33457103473E-01  0.12757138981E+00  0.20878345599E-01 0.  0.
         14    1    1    2    0    0  0.22315637340E-01  0.44831706915E-02 -0.85159386229E-02  0.24302421690E-01  0.00000000000E+00 0. -1.
     999901    1    3    3    0    0 -0.14280339877E+00 -0.18691469553E-01 -0.24941164850E-01  0.89205618850E+00  0.88000000000E+00 0. -1.
        -11    1    4    4    0    0  0.32191302603E-01 -0.28454047263E-02  0.15588361636E-01  0.35883623435E-01  0.51100000000E-03 0. -1.
         11    1    4    4    0    0  0.88296458826E-01  0.17053703588E-01  0.17868741837E-01  0.91687766377E-01  0.51100000000E-03 0.  1.
</event>
<event>
 8    1  0.1081309E+005  0.1043930E+01  0.7957747E-01            NaN
         13   -1    0    0    0    0  0.00000000000E+00  0.00000000000E+00  0.74505805969E-08  0.10566000000E+00  0.10566000000E+00 0. -1.
     999900   -1    0    0    0    0 -0.00000000000E+00 -0.00000000000E+00 -0.74505805969E-08  0.93827000000E+00  0.93827000000E+00 0.  1.
     999902    2    1    2    0    0  0.17859098239E-01  0.15319570569E-01 -0.61439445189E-03  0.10203924956E+01  0.10201209884E+01 0.  0.
     999903    2    3    3    0    0  0.44173141195E-01 -0.10818614833E+00  0.52369941508E-01  0.12980087690E+00  0.21216686272E-01 0.  0.
         14    1    1    2    0    0 -0.17859098239E-01 -0.15319570569E-01  0.61439445189E-03  0.23537504389E-01  0.00000000000E+00 0.  1.
     999901    1    3    3    0    0 -0.26314042956E-01  0.12350571890E+00 -0.52984335960E-01  0.89059161871E+00  0.88000000000E+00 0.  1.
        -11    1    4    4    0    0  0.42940932229E-01 -0.83372987276E-01  0.43887735861E-01  0.10354406380E+00  0.51100000000E-03 0. -1.
         11    1    4    4    0    0  0.12322089655E-02 -0.24813161058E-01  0.84822056476E-02  0.26256813102E-01  0.51100000000E-03 0.  1.
</event>
<event>
 8    1  0.1081309E+005  0.1043930E+01  0.7957747E-01            NaN
         13   -1    0    0    0    0  0.00000000000E+00  0.00000000000E+00  0.74505805969E-08  0.10566000000E+00  0.10566000000E+00 0.  1.
     999900   -1    0    0    0    0 -0.00000000000E+00 -0.00000000000E+00 -0.74505805969E-08  0.93827000000E+00  0.93827000000E+00 0.  1.
     999902    2    1    2    0    0  0.15152702043E-01 -0.20334769599E-01 -0.15230439704E-01  0.10143483583E+01  0.10139169189E+01 0.  0.
     999903    2    3    3    0    0 -0.41719976098E-01  0.68999467262E-01  0.89116164429E-01  0.12187801076E+00  0.20275005689E-01 0.  0.
         14    1    1    2    0    0 -0.15152702043E-01  0.20334769599E-01  0.15230439704E-01  0.29581641730E-01  0.00000000000E+00 0.  1.
     999901    1    3    3    0    0  0.56872678141E-01 -0.89334236861E-01 -0.10434660413E+00  0.89247034751E+00  0.88000000000E+00 0.  1.
        -11    1    4    4    0    0 -0.34445623312E-01  0.40252234161E-01  0.50558464155E-01  0.73233617547E-01  0.51100000000E-03 0.  1.
         11    1    4    4    0    0 -0.72743527857E-02  0.28747233101E-01  0.38557700274E-01  0.48644393210E-01  0.51100000000E-03 0. -1.
</event>
<event>
 8    1  0.1081309E+005  0.1043930E+01  0.7957747E-01            NaN
         13   -1    0    0    0    0  0.00000000000E+00  0.00000000000E+00  0.74505805969E-08  0.10566000000E+00  0.10566000000E+00 0. -1.
     999900   -1    0    0    0    0 -0.00000000000E+00 -0.00000000000E+00 -0.74505805969E-08  0.93827000000E+00  0.93827000000E+00 0. -1.
     999902    2    1    2    0    0 -0.61388375897E-02 -0.21194478452E-01  0.55748340520E-02  0.10211710453E+01  0.10209173981E+01 0.  0.
     999903    2    3    3    0    0 -0.20703525339E-01  0.11064717846E+00 -0.59534204288E-01  0.12885185382E+00  0.19673451422E-01 0.  0.
         14    1    1    2    0    0  0.61388375897E-02  0.21194478452E-01 -0.55748340520E-02  0.22758954688E-01  0.00000000000E+00 0. -1.
     999901    1    3    3    0    0  0.14564687749E-01 -0.13184165691E+00  0.65109038340E-01  0.89231919149E+00  0.88000000000E+00 0.  1.
        -11    1    4    4    0    0 -0.26904804623E-02  0.42781339406E-01 -0.13723430448E-01  0.45011946755E-01  0.51100000000E-03 0.  1.
         11    1    4    4    0    0 -0.18013044877E-01  0.67865839054E-01 -0.45810773841E-01  0.83839907067E-01  0.51100000000E-03 0. -1.
</event>
<event>
 8    1  0.1081309E+005  0.1043930E+01  0.7957747E-01            NaN
         13   -1    0    0    0    0  0.00000000000E+00  0.00000000000E+00  0.74505805969E-08  0.10566000000E+00  0.10566000000E+00 0. -1.
     999900   -1    0    0    0    0 -0.00000000000E+00 -0.00000000000E+00 -0.74505805969E-08  0.93827000000E+00  0.93827000000E+00 0. -1.
     999902    2    1    2    0    0 -0.19462977654E-01  0.13589188268E-01  0.24917098176E-04  0.10201923894E+01  0.10199161913E+01 0.  0.
     999903    2    3    3    0    0  0.82899598831E-01  0.75869852152E-01 -0.62121845555E-01  0.12990075275E+00  0.19659702864E-01 0.  0.
         14    1    1    2    0    0  0.19462977654E-01 -0.13589188268E-01 -0.24917098176E-04  0.23737610617E-01  0.00000000000E+00 0.  1.
     999901    1    3    3    0    0 -0.10236257649E+00 -0.62280663884E-01  0.62146762654E-01  0.89029163664E+00  0.88000000000E+00 0.  1.
        -11    1    4    4    0    0  0.41465497687E-01  0.25971447248E-01 -0.31340143645E-01  0.58106534015E-01  0.51100000000E-03 0.  1.
         11    1    4    4    0    0  0.41434101144E-01  0.49898404904E-01 -0.30781701911E-01  0.71794218730E-01  0.51100000000E-03 0. -1.
</event>
<event>
 8    1  0.1081309E+005  0.1043930E+01  0.7957747E-01            NaN
         13   -1    0    0    0    0  0.00000000000E+00  0.00000000000E+00  0.74505805969E-08  0.10566000000E+00  0.10566000000E+00 0.  1.
     999900   -1    0    0    0    0 -0.00000000000E+00 -0.00000000000E+00 -0.74505805969E-08  0.93827000000E+00  0.93827000000E+00 0.  1.
     999902    2    1    2    0    0  0.15919547823E-01 -0.18294834091E-01 -0.55472192620E-02  0.10190522067E+01  0.10187484947E+01 0.  0.
     999903    2    3    3    0    0  0.81943458764E-01  0.92815850794E-01 -0.32780297047E-01  0.12919470035E+00  0.16947275005E-01 0.  0.
         14    1    1    2    0    0 -0.15919547823E-01  0.18294834091E-01  0.55472192620E-02  0.24877793287E-01  0.00000000000E+00 0.  1.
     999901    1    3    3    0    0 -0.66023910941E-01 -0.11111068489E+00  0.27233077785E-01  0.88985750637E+00  0.88000000000E+00 0.  1.
        -11    1    4    4    0    0  0.53360244083E-01  0.66085277218E-01 -0.29509476581E-01  0.89920241563E-01  0.51100000000E-03 0. -1.
         11    1    4    4    0    0  0.28583214681E-01  0.26730573576E-01 -0.32708204667E-02  0.39274458783E-01  0.51100000000E-03 0.  1.
</event>
<event>
 8    1  0.1081309E+005  0.1043930E+01  0.7957747E-01            NaN
         13   -1    0    0    0    0  0.00000000000E+00  0.00000000000E+00  0.74505805969E-08  0.10566000000E+00  0.10566000000E+00 0. -1.
     999900   -1    0    0    0    0 -0.00000000000E+00 -0.00000000000E+00 -0.74505805969E-08  0.93827000000E+00  0.93827000000E+00 0.  1.
     999902    2    1    2    0    0 -0.52139051015E-02  0.14030446906E-01  0.17905915627E-01  0.10205920468E+01  0.10203251765E+01 0.  0.
     999903    2    3    3    0    0  0.94530939417E-01 -0.84396025624E-01 -0.12885237766E-01  0.12897278966E+00  0.20227789634E-01 0.  0.
         14    1    1    2    0    0  0.52139051015E-02 -0.14030446906E-01 -0.17905915627E-01  0.23337953236E-01  0.00000000000E+00 0.  1.
     999901    1    3    3    0    0 -0.99744844518E-01  0.98426472530E-01  0.30791153393E-01  0.89161925710E+00  0.88000000000E+00 0. -1.
        -11    1    4    4    0    0  0.79615411250E-01 -0.60455164320E-01 -0.74798938272E-02  0.10024794529E+00  0.51100000000E-03 0.  1.
         11    1    4    4    0    0  0.14915528167E-01 -0.23940861304E-01 -0.54053439390E-02  0.28724844378E-01  0.51100000000E-03 0. -1.
</event>
<event>
 8    1  0.1081309E+005  0.1043930E+01  0.7957747E-01            NaN
         13   -1    0    0    0    0  0.00000000000E+00  0.00000000000E+00  0.74505805969E-08  0.10566000000E+00  0.10566000000E+00 0.  1.
     999900   -1    0    0    0    0 -0.00000000000E+00 -0.00000000000E+00 -0.74505805969E-08  0.93827000000E+00  0.93827000000E+00 0.  1.
     999902    2    1    2    0    0  0.64670245780E-02  0.15207841890E-01  0.21902675847E-01  0.10164922874E+01  0.10161219131E+01 0.  0.
     999903    2    3    3    0    0 -0.91629734475E-01 -0.71850669139E-01  0.45305885782E-01  0.12646427174E+00  0.19546402337E-01 0.  0.
         14    1    1    2    0    0 -0.64670245780E-02 -0.15207841890E-01 -0.21902675847E-01  0.27437712570E-01  0.00000000000E+00 0. -1.
     999901    1    3    3    0    0  0.98096759053E-01  0.87058511029E-01 -0.23403209935E-01  0.89002801569E+00  0.88000000000E+00 0.  1.
        -11    1    4    4    0    0 -0.37130808111E-01 -0.25016347763E-01  0.79511291699E-02  0.45475225590E-01  0.51100000000E-03 0. -1.
         11    1    4    4    0    0 -0.54498926363E-01 -0.46834321376E-01  0.37354756612E-01  0.80989046149E-01  0.51100000000E-03 0.  1.
</event>
<event>
 8    1  0.1081309E+005  0.1043930E+01  0.7957747E-01            NaN
         13   -1    0    0    0    0  0.00000000000E+00  0.00000000000E+00  0.74505805969E-08  0.10566000000E+00  0.10566000000E+00 0.  1.
     999900   -1    0    0    0    0 -0.00000000000E+00 -0.00000000000E+00 -0.74505805969E-08  0.93827000000E+00  0.93827000000E+00 0.  1.
     999902    2    1    2    0    0  0.31905651366E-04  0.90197012975E-02 -0.22126367532E-01  0.10200358131E+01  0.10197559158E+01 0.  0.
     999903    2    3    3    0    0 -0.49463768453E-01 -0.96614831554E-01  0.64780507998E-01  0.12809339266E+00  0.20743986158E-01 0.  0.
         14    1    1    2    0    0 -0.31905651366E-04 -0.90197012975E-02  0.22126367532E-01  0.23894186942E-01  0.00000000000E+00 0.  1.
     999901    1    3    3    0    0  0.49495674105E-01  0.10563453285E+00 -0.86906875529E-01  0.89194242040E+00  0.88000000000E+00 0.  1.
        -11    1    4    4    0    0 -0.41196007465E-01 -0.74367193455E-01  0.40622696286E-01  0.94223431629E-01  0.51100000000E-03 0.  1.
         11    1    4    4    0    0 -0.82677609884E-02 -0.22247638099E-01  0.24157811712E-01  0.33869961034E-01  0.51100000000E-03 0. -1.
</event>
<event>
 8    1  0.1081309E+005  0.1043930E+01  0.7957747E-01            NaN
         13   -1    0    0    0    0  0.00000000000E+00  0.00000000000E+00  0.74505805969E-08  0.10566000000E+00  0.10566000000E+00 0. -1.
     999900   -1    0    0    0    0 -0.00000000000E+00 -0.00000000000E+00 -0.74505805969E-08  0.93827000000E+00  0.93827000000E+00 0.  1.
     999902    2    1    2    0    0  0.24316563409E-01  0.63172203644E-02  0.77607618867E-02  0.10176349063E+01  0.10172951246E+01 0.  0.
     999903    2    3    3    0    0  0.84106768539E-01  0.77403298824E-01  0.61271330726E-01  0.13112970033E+00  0.19380483925E-01 0.  0.
         14    1    1    2    0    0 -0.24316563409E-01 -0.63172203644E-02 -0.77607618867E-02  0.26295093729E-01  0.00000000000E+00 0.  1.
     999901    1    3    3    0    0 -0.59790205130E-01 -0.71086078460E-01 -0.53510568839E-01  0.88650520594E+00  0.88000000000E+00 0.  1.
        -11    1    4    4    0    0  0.45173837422E-01  0.28884236775E-01  0.25613300275E-01  0.59424548744E-01  0.51100000000E-03 0. -1.
         11    1    4    4    0    0  0.38932931117E-01  0.48519062049E-01  0.35658030451E-01  0.71705151587E-01  0.51100000000E-03 0.  1.
</event>
<event>
 8    1  0.1081309E+005  0.1043930E+01  0.7957747E-01            NaN
         13   -1    0    0    0    0  0.00000000000E+00  0.00000000000E+00  0.74505805969E-08  0.10566000000E+00  0.10566000000E+00 0. -1.
     999900   -1    0    0    0    0 -0.00000000000E+00 -0.00000000000E+00 -0.74505805969E-08  0.93827000000E+00  0.93827000000E+00 0.  1.
     999902    2    1    2    0    0  0.10734153115E-01  0.12077513318E-02  0.21992284206E-01  0.10194281374E+01  0.10191336448E+01 0.  0.
     999903    2    3    3    0    0 -0.31047148698E-01  0.55035527928E-01 -0.10871250083E+00  0.12716873143E+00  0.18990619748E-01 0.  0.
         14    1    1    2    0    0 -0.10734153115E-01 -0.12077513318E-02 -0.21992284206E-01  0.24501862602E-01  0.00000000000E+00 0.  1.
     999901    1    3    3    0    0  0.41781301813E-01 -0.53827776596E-01  0.13070478504E+00  0.89225940597E+00  0.88000000000E+00 0. -1.
        -11    1    4    4    0    0 -0.21649505697E-01  0.24944025932E-01 -0.68681609393E-01  0.76212401329E-01  0.51100000000E-03 0. -1.
         11    1    4    4    0    0 -0.93976430006E-02  0.30091501996E-01 -0.40030891440E-01  0.50956330096E-01  0.51100000000E-03 0.  1.
</event>
<event>
 8    1  0.1081309E+005  0.1043930E+01  0.7957747E-01            NaN
         13   -1    0    0    0    0  0.00000000000E+00  0.00000000000E+00  0.74505805969E-08  0.10566000000E+00  0.10566000000E+00 0.  1.
     999900   -1    0    0    0    0 -0.00000000000E+00 -0.00000000000E+00 -0.74505805969E-08  0.93827000000E+00  0.93827000000E+00 0. -1.
     999902    2    1    2    0    0 -0.47011950466E-02 -0.23174963812E-01  0.11977585686E-02  0.10202526942E+01  0.10199779141E+01 0.  0.
     999903    2    3    3    0    0 -0.97384452609E-01  0.75638945667E-01 -0.33148578897E-01  0.12922292715E+00  0.19868439968E-01 0.  0.
         14    1    1    2    0    0  0.47011950466E-02  0.23174963812E-01 -0.11977585686E-02  0.23677305762E-01  0.00000000000E+00 0.  1.
     999901    1    3    3    0    0  0.92683257562E-01 -0.98813909480E-01  0.34346337465E-01  0.89102976709E+00  0.88000000000E+00 0.  1.
        -11    1    4    4    0    0 -0.49673408448E-01  0.27064844808E-01 -0.11062825132E-01  0.57642003367E-01  0.51100000000E-03 0.  1.
         11    1    4    4    0    0 -0.47711044161E-01  0.48574100859E-01 -0.22085753765E-01  0.71580923783E-01  0.51100000000E-03 0. -1.
</event>
<event>
 8    1  0.1081309E+005  0.1043930E+01  0.7957747E-01            NaN
         13   -1    0    0    0    0  0.00000000000E+00  0.00000000000E+00  0.74505805969E-08  0.10566000000E+00  0.10566000000E+00 0.  1.
     999900   -1    0    0    0    0 -0.00000000000E+00 -0.00000000000E+00 -0.74505805969E-08  0.93827000000E+00  0.93827000000E+00 0. -1.
     999902    2    1    2    0    0  0.12550535922E-01  0.71421038282E-02  0.91042589012E-02  0.10268591732E+01  0.10267172680E+01 0.  0.
     999903    2    3    3    0    0  0.77214505492E-01 -0.32983409544E-01 -0.10532565432E+00  0.13619330381E+00  0.20128024771E-01 0.  0.
         14    1    1    2    0    0 -0.12550535922E-01 -0.71421038282E-02 -0.91042589012E-02  0.17070826845E-01  0.00000000000E+00 0. -1.
     999901    1    3    3    0    0 -0.64663969570E-01  0.40125513372E-01  0.11442991322E+00  0.89066586935E+00  0.88000000000E+00 0.  1.
        -11    1    4    4    0    0  0.15465927531E-01 -0.11392189212E-02 -0.10904915907E-01  0.18964995283E-01  0.51100000000E-03 0.  1.
         11    1    4    4    0    0  0.61748577961E-01 -0.31844190622E-01 -0.94420738408E-01  0.11722830852E+00  0.51100000000E-03 0. -1.
</event>
<event>
 8    1  0.1081309E+005  0.1043930E+01  0.7957747E-01            NaN
         13   -1    0    0    0    0  0.00000000000E+00  0.00000000000E+00  0.74505805969E-08  0.10566000000E+00  0.10566000000E+00 0.  1.
     999900   -1    0    0    0    0 -0.00000000000E+00 -0.00000000000E+00 -0.74505805969E-08  0.93827000000E+00  0.93827000000E+00 0. -1.
     999902    2    1    2    0    0 -0.48436267311E-02 -0.20280457501E-01  0.74648158037E-02  0.10217831909E+01  0.10215431504E+01 0.  0.
     999903    2    3    3    0    0  0.34667938802E-02  0.11423355305E+00  0.58794460349E-01  0.13004454396E+00  0.19836117154E-01 0.  0.
         14    1    1    2    0    0  0.48436267311E-02  0.20280457501E-01 -0.74648158037E-02  0.22146809055E-01  0.00000000000E+00 0. -1.
     999901    1    3    3    0    0 -0.83104206113E-02 -0.13451401055E+00 -0.51329644545E-01  0.89173864699E+00  0.88000000000E+00 0.  1.
        -11    1    4    4    0    0  0.87468354215E-02  0.73742029405E-01  0.30075869183E-01  0.80119991630E-01  0.51100000000E-03 0.  1.
         11    1    4    4    0    0 -0.52800415413E-02  0.40491523641E-01  0.28718591165E-01  0.49924552326E-01  0.51100000000E-03 0. -1.
</event>
<event>
 8    1  0.1081309E+005  0.1043930E+01  0.7957747E-01            NaN
         13   -1    0    0    0    0  0.00000000000E+00  0.00000000000E+00  0.74505805969E-08  0.10566000000E+00  0.10566000000E+00 0. -1.
     999900   -1    0    0    0    0 -0.00000000000E+00 -0.00000000000E+00 -0.74505805969E-08  0.93827000000E+00  0.93827000000E+00 0. -1.
     999902    2    1    2    0    0 -0.18858845791E-01  0.14676724229E-01  0.89563607993E-03  0.10200163122E+01  0.10197359525E+01 0.  0.
     999903    2    3    3    0    0  0.73502793484E-01 -0.42102127866E-01 -0.94307611266E-01  0.12826625265E+00  0.19571821737E-01 0.  0.
         14    1    1    2    0    0  0.18858845791E-01 -0.14676724229E-01 -0.89563607993E-03  0.23913687767E-01  0.00000000000E+00 0. -1.
     999901    1    3    3    0    0 -0.92361639275E-01  0.56778852095E-01  0.95203247346E-01  0.89175005958E+00  0.88000000000E+00 0.  1.
        -11    1    4    4    0    0  0.46026304936E-01 -0.29367069424E-01 -0.46734665739E-01  0.71869573642E-01  0.51100000000E-03 0. -1.
         11    1    4    4    0    0  0.27476488548E-01 -0.12735058442E-01 -0.47572945527E-01  0.56396679011E-01  0.51100000000E-03 0.  1.
</event>
<event>
 8    1  0.1185581E+005  0.1043930E+01  0.7957747E-01            NaN
         13   -1    0    0    0    0  0.00000000000E+00  0.00000000000E+00  0.74505805969E-08  0.10566000000E+00  0.10566000000E+00 0.  1.
     999900   -1    0    0    0    0 -0.00000000000E+00 -0.00000000000E+00 -0.74505805969E-08  0.93827000000E+00  0.93827000000E+00 0.  1.
     999902    2    1    2    0    0 -0.15959634913E-01 -0.88595951980E-02  0.15381863588E-01  0.10200594302E+01  0.10197800925E+01 0.  0.
     999903    2    3    3    0    0 -0.92135162458E-01 -0.16434512310E-01 -0.88903357799E-01  0.13060145047E+00  0.19848185819E-01 0.  0.
         14    1    1    2    0    0  0.15959634913E-01  0.88595951980E-02 -0.15381863588E-01  0.23870569769E-01  0.00000000000E+00 0. -1.
     999901    1    3    3    0    0  0.76175527545E-01  0.75749171120E-02  0.10428522139E+00  0.88945797976E+00  0.88000000000E+00 0. -1.
        -11    1    4    4    0    0 -0.45326882127E-01 -0.17023578993E-01 -0.38973848487E-01  0.62157465134E-01  0.51100000000E-03 0. -1.
         11    1    4    4    0    0 -0.46808280331E-01  0.58906668332E-03 -0.49929509312E-01  0.68443985333E-01  0.51100000000E-03 0.  1.
</event>
<event>
 8    1  0.1081309E+005  0.1043930E+01  0.7957747E-01            NaN
         13   -1    0    0    0    0  0.00000000000E+00  0.00000000000E+00  0.74505805969E-08  0.10566000000E+00  0.10566000000E+00 0.  1.
     999900   -1    0    0    0    0 -0.00000000000E+00 -0.00000000000E+00 -0.74505805969E-08  0.93827000000E+00  0.93827000000E+00 0.  1.
     999902    2    1    2    0    0 -0.12863487227E-01 -0.12292230076E-01 -0.16008949570E-01  0.10199956170E+01  0.10197147660E+01 0.  0.
     999903    2    3    3    0    0 -0.37331882176E-01  0.11893275107E+00  0.26383811017E-01  0.12891995007E+00  0.19636174198E-01 0.  0.
         14    1    1    2    0    0  0.12863487227E-01  0.12292230076E-01  0.16008949570E-01  0.23934383013E-01  0.00000000000E+00 0.  1.
     999901    1    3    3    0    0  0.24468394949E-01 -0.13122498115E+00 -0.42392760587E-01  0.89107566692E+00  0.88000000000E+00 0.  1.
        -11    1    4    4    0    0 -0.16799146124E-01  0.39592491960E-01  0.17677890561E-01  0.46503179094E-01  0.51100000000E-03 0. -1.
         11    1    4    4    0    0 -0.20532736052E-01  0.79340259110E-01  0.87059204557E-02  0.82416770972E-01  0.51100000000E-03 0.  1.
</event>
<event>
 8    1  0.1081309E+005  0.1043930E+01  0.7957747E-01            NaN
         13   -1    0    0    0    0  0.00000000000E+00  0.00000000000E+00  0.74505805969E-08  0.10566000000E+00  0.10566000000E+00 0. -1.
     999900   -1    0    0    0    0 -0.00000000000E+00 -0.00000000000E+00 -0.74505805969E-08  0.93827000000E+00  0.93827000000E+00 0.  1.
     999902    2    1    2    0    0 -0.49404623749E-02 -0.12956887225E-01  0.21708962719E-01  0.10181701833E+01  0.10178442680E+01 0.  0.
     999903    2    3    3    0    0 -0.63506922279E-01  0.36532719920E-01 -0.10100285607E+00  0.12635325032E+00  0.19894675934E-01 0.  0.
         14    1    1    2    0    0  0.49404623749E-02  0.12956887225E-01 -0.21708962719E-01  0.25759816718E-01  0.00000000000E+00 0.  1.
     999901    1    3    3    0    0  0.58566459904E-01 -0.49489607144E-01  0.12271181879E+00  0.89181693296E+00  0.88000000000E+00 0. -1.
        -11    1    4    4    0    0 -0.19059416253E-01  0.17788867853E-01 -0.48412813987E-01  0.54988788371E-01  0.51100000000E-03 0. -1.
         11    1    4    4    0    0 -0.44447506026E-01  0.18743852067E-01 -0.52590042084E-01  0.71364461952E-01  0.51100000000E-03 0.  1.
</event>
<event>
 8    1  0.1081309E+005  0.1043930E+01  0.7957747E-01            NaN
         13   -1    0    0    0    0  0.00000000000E+00  0.00000000000E+00  0.74505805969E-08  0.10566000000E+00  0.10566000000E+00 0. -1.
     999900   -1    0    0    0    0 -0.00000000000E+00 -0.00000000000E+00 -0.74505805969E-08  0.93827000000E+00  0.93827000000E+00 0. -1.
     999902    2    1    2    0    0 -0.91039849211E-03  0.21036507351E-01 -0.10091968363E-01  0.10205802400E+01  0.10203130965E+01 0.  0.
     999903    2    3    3    0    0 -0.62514856086E-01  0.11544111866E+00  0.12553817668E-01  0.13310056617E+00  0.17983416459E-01 0.  0.
         14    1    1    2    0    0  0.91039849211E-03 -0.21036507351E-01  0.10091968363E-01  0.23349760007E-01  0.00000000000E+00 0.  1.
     999901    1    3    3    0    0  0.61604457594E-01 -0.94404611306E-01 -0.22645786031E-01  0.88747967383E+00  0.88000000000E+00 0.  1.
        -11    1    4    4    0    0 -0.74666009302E-02  0.29106604485E-01  0.45483817020E-02  0.30395615658E-01  0.51100000000E-03 0. -1.
         11    1    4    4    0    0 -0.55048255156E-01  0.86334514172E-01  0.80054359656E-02  0.10270495051E+00  0.51100000000E-03 0.  1.
</event>
<event>
 8    1  0.1081309E+005  0.1043930E+01  0.7957747E-01            NaN
         13   -1    0    0    0    0  0.00000000000E+00  0.00000000000E+00  0.74505805969E-08  0.10566000000E+00  0.10566000000E+00 0.  1.
     999900   -1    0    0    0    0 -0.00000000000E+00 -0.00000000000E+00 -0.74505805969E-08  0.93827000000E+00  0.93827000000E+00 0.  1.
     999902    2    1    2    0    0 -0.47798452879E-02 -0.21041169664E-01  0.26069793024E-03  0.10223511746E+01  0.10221234165E+01 0.  0.
     999903    2    3    3    0    0  0.80787846780E-01  0.84322552112E-01  0.54279322031E-01  0.13030781493E+00  0.19922671774E-01 0.  0.
         14    1    1    2    0    0  0.47798452879E-02  0.21041169664E-01 -0.26069793024E-03  0.21578825390E-01  0.00000000000E+00 0. -1.
     999901    1    3    3    0    0 -0.85567692068E-01 -0.10536372178E+00 -0.54018624101E-01  0.89204335968E+00  0.88000000000E+00 0.  1.
        -11    1    4    4    0    0  0.59360512246E-01  0.67198113952E-01  0.49629768821E-01  0.10248234973E+00  0.51100000000E-03 0. -1.
         11    1    4    4    0    0  0.21427334534E-01  0.17124438160E-01  0.46495532104E-02  0.27825465199E-01  0.51100000000E-03 0.  1.
</event>
<event>
 8    1  0.1081309E+005  0.1043930E+01  0.7957747E-01            NaN
         13   -1    0    0    0    0  0.00000000000E+00  0.00000000000E+00  0.74505805969E-08  0.10566000000E+00  0.10566000000E+00 0. -1.
     999900   -1    0    0    0    0 -0.00000000000E+00 -0.00000000000E+00 -0.74505805969E-08  0.93827000000E+00  0.93827000000E+00 0.  1.
     999902    2    1    2    0    0  0.19684725092E-01  0.10947398360E-01 -0.69314275775E-02  0.10203635276E+01  0.10200913439E+01 0.  0.
     999903    2    3    3    0    0 -0.93882459324E-01  0.87135859461E-01  0.64678035654E-02  0.12969988381E+00  0.19330111359E-01 0.  0.
         14    1    1    2    0    0 -0.19684725092E-01 -0.10947398360E-01  0.69314275775E-02  0.23566472393E-01  0.00000000000E+00 0. -1.
     999901    1    3    3    0    0  0.11356718442E+00 -0.76188461102E-01 -0.13399231143E-01  0.89066364379E+00  0.88000000000E+00 0.  1.
        -11    1    4    4    0    0 -0.61353524233E-01  0.53750675733E-01  0.13100848612E-01  0.82615273605E-01  0.51100000000E-03 0. -1.
         11    1    4    4    0    0 -0.32528935092E-01  0.33385183729E-01 -0.66330450467E-02  0.47084610207E-01  0.51100000000E-03 0.  1.
</event>
<event>
 8    1  0.1081309E+005  0.1043930E+01  0.7957747E-01            NaN
         13   -1    0    0    0    0  0.00000000000E+00  0.00000000000E+00  0.74505805969E-08  0.10566000000E+00  0.10566000000E+00 0. -1.
     999900   -1    0    0    0    0 -0.00000000000E+00 -0.00000000000E+00 -0.74505805969E-08  0.93827000000E+00  0.93827000000E+00 0.  1.
     999902    2    1    2    0    0  0.19538302527E-02 -0.20606851188E-01  0.11469563629E-01  0.10202654557E+01  0.10199909751E+01 0.  0.
     999903    2    3    3    0    0  0.90320351933E-01 -0.94066280929E-01  0.18352843040E-01  0.13276767567E+00  0.16858163411E-01 0.  0.
         14    1    1    2    0    0 -0.19538302527E-02  0.20606851188E-01 -0.11469563629E-01  0.23664544331E-01  0.00000000000E+00 0. -1.
     999901    1    3    3    0    0 -0.88366521680E-01  0.73459429740E-01 -0.68832794113E-02  0.88749778000E+00  0.88000000000E+00 0. -1.
        -11    1    4    4    0    0  0.15199547927E-01 -0.16091108887E-01 -0.31923489279E-02  0.22369672664E-01  0.51100000000E-03 0.  1.
         11    1    4    4    0    0  0.75120804006E-01 -0.77975172042E-01  0.21545191968E-01  0.11039800300E+00  0.51100000000E-03 0. -1.
</event>
<event>
 8    1  0.1081309E+005  0.1043930E+01  0.7957747E-01            NaN
         13   -1    0    0    0    0  0.00000000000E+00  0.00000000000E+00  0.74505805969E-08  0.10566000000E+00  0.10566000000E+00 0. -1.
     999900   -1    0    0    0    0 -0.00000000000E+00 -0.00000000000E+00 -0.74505805969E-08  0.93827000000E+00  0.93827000000E+00 0. -1.
     999902    2    1    2    0    0  0.90843135229E-03 -0.22832224009E-01  0.18911267756E-02  0.10210015883E+01  0.10207441067E+01 0.  0.
     999903    2    3    3    0    0 -0.95353257162E-01  0.32492039980E-01 -0.79990017165E-01  0.13025380777E+00  0.20485977611E-01 0.  0.
         14    1    1    2    0    0 -0.90843135229E-03  0.22832224009E-01 -0.18911267756E-02  0.22928411659E-01  0.00000000000E+00 0. -1.
     999901    1    3    3    0    0  0.96261688515E-01 -0.55324263989E-01  0.81881143940E-01  0.89074778057E+00  0.88000000000E+00 0.  1.
        -11    1    4    4    0    0 -0.31900224822E-01  0.21200799944E-01 -0.31607922721E-01  0.49663066374E-01  0.51100000000E-03 0.  1.
         11    1    4    4    0    0 -0.63453032340E-01  0.11291240037E-01 -0.48382094444E-01  0.80590741394E-01  0.51100000000E-03 0. -1.
</event>
<event>
 8    1  0.1081309E+005  0.1043930E+01  0.7957747E-01            NaN
         13   -1    0    0    0    0  0.00000000000E+00  0.00000000000E+00  0.74505805969E-08  0.10566000000E+00  0.10566000000E+00 0.  1.
     999900   -1    0    0    0    0 -0.00000000000E+00 -0.00000000000E+00 -0.74505805969E-08  0.93827000000E+00  0.93827000000E+00 0.  1.
     999902    2    1    2    0    0 -0.25401088451E-01  0.11426828935E-01  0.97584266611E-02  0.10144170434E+01  0.10139876347E+01 0.  0.
     999903    2    3    3    0    0  0.45372857961E-01  0.93056062681E-01 -0.66356671301E-01  0.12454863102E+00  0.19774393052E-01 0.  0.
         14    1    1    2    0    0  0.25401088451E-01 -0.11426828935E-01 -0.97584266611E-02  0.29512956560E-01  0.00000000000E+00 0. -1.
     999901    1    3    3    0    0 -0.70773946412E-01 -0.81629233746E-01  0.76115097962E-01  0.88986841242E+00  0.88000000000E+00 0. -1.
        -11    1    4    4    0    0  0.15404562493E-01  0.25932925922E-01 -0.29974592969E-01  0.42527103559E-01  0.51100000000E-03 0.  1.
         11    1    4    4    0    0  0.29968295468E-01  0.67123136759E-01 -0.36382078332E-01  0.82021527457E-01  0.51100000000E-03 0. -1.
</event>
<event>
 8    1  0.1081309E+005  0.1043930E+01  0.7957747E-01            NaN
         13   -1    0    0    0    0  0.00000000000E+00  0.00000000000E+00  0.74505805969E-08  0.10566000000E+00  0.10566000000E+00 0. -1.
     999900   -1    0    0    0    0 -0.00000000000E+00 -0.00000000000E+00 -0.74505805969E-08  0.93827000000E+00  0.93827000000E+00 0.  1.
     999902    2    1    2    0    0  0.42335249056E-02  0.14943960363E-01  0.17514661778E-01  0.10205204280E+01  0.10202518983E+01 0.  0.
     999903    2    3    3    0    0 -0.91406109159E-01  0.65789363422E-01  0.66942474136E-01  0.13250280246E+00  0.19808601302E-01 0.  0.
         14    1    1    2    0    0 -0.42335249056E-02 -0.14943960363E-01 -0.17514661778E-01  0.23409572009E-01  0.00000000000E+00 0.  1.
     999901    1    3    3    0    0  0.95639634065E-01 -0.50845403059E-01 -0.49427812357E-01  0.88801762553E+00  0.88000000000E+00 0.  1.
        -11    1    4    4    0    0 -0.61080519298E-01  0.54870537632E-01  0.48610278894E-01  0.95419212284E-01  0.51100000000E-03 0. -1.
         11    1    4    4    0    0 -0.30325589861E-01  0.10918825790E-01  0.18332195242E-01  0.37083590177E-01  0.51100000000E-03 0.  1.
</event>
<event>
 8    1  0.1081309E+005  0.1043930E+01  0.7957747E-01            NaN
         13   -1    0    0    0    0  0.00000000000E+00  0.00000000000E+00  0.74505805969E-08  0.10566000000E+00  0.10566000000E+00 0.  1.
     999900   -1    0    0    0    0 -0.00000000000E+00 -0.00000000000E+00 -0.74505805969E-08  0.93827000000E+00  0.93827000000E+00 0. -1.
     999902    2    1    2    0    0  0.24849476839E-02  0.20954997052E-01  0.11108936100E-01  0.10200826662E+01  0.10198038785E+01 0.  0.
     999903    2    3    3    0    0 -0.16346408309E-01  0.12002078418E+00 -0.49447366909E-01  0.13225626655E+00  0.19351595470E-01 0.  0.
         14    1    1    2    0    0 -0.24849476839E-02 -0.20954997052E-01 -0.11108936100E-01  0.23847333765E-01  0.00000000000E+00 0.  1.
     999901    1    3    3    0    0  0.18831355993E-01 -0.99065787127E-01  0.60556303009E-01  0.88782639969E+00  0.88000000000E+00 0.  1.
        -11    1    4    4    0    0 -0.10277156339E-01  0.54142978488E-01 -0.12621618762E-01  0.56538910877E-01  0.51100000000E-03 0. -1.
         11    1    4    4    0    0 -0.60692519694E-02  0.65877805691E-01 -0.36825748146E-01  0.75717355670E-01  0.51100000000E-03 0.  1.
</event>
<event>
 8    1  0.1081309E+005  0.1043930E+01  0.7957747E-01            NaN
         13   -1    0    0    0    0  0.00000000000E+00  0.00000000000E+00  0.74505805969E-08  0.10566000000E+00  0.10566000000E+00 0.  1.
     999900   -1    0    0    0    0 -0.00000000000E+00 -0.00000000000E+00 -0.74505805969E-08  0.93827000000E+00  0.93827000000E+00 0. -1.
     999902    2    1    2    0    0  0.18563012996E-02 -0.28981580722E-02  0.22670494538E-01  0.10209997471E+01  0.10207422236E+01 0.  0.
     999903    2    3    3    0    0  0.89757850043E-01  0.49729278420E-02 -0.90822697060E-01  0.12933313857E+00  0.19927287184E-01 0.  0.
         14    1    1    2    0    0 -0.18563012996E-02  0.28981580722E-02 -0.22670494538E-01  0.22930252884E-01  0.00000000000E+00 0. -1.
     999901    1    3    3    0    0 -0.87901548743E-01 -0.78710859142E-02  0.11349319160E+00  0.89166660855E+00  0.88000000000E+00 0.  1.
        -11    1    4    4    0    0  0.82082571498E-01  0.47539281840E-02 -0.89482865126E-01  0.12152198422E+00  0.51100000000E-03 0.  1.
         11    1    4    4    0    0  0.76752785443E-02  0.21899965800E-03 -0.13398319339E-02  0.78111543445E-02  0.51100000000E-03 0. -1.
</event>
<event>
 8    1  0.1081309E+005  0.1043930E+01  0.7957747E-01            NaN
         13   -1    0    0    0    0  0.00000000000E+00  0.00000000000E+00  0.74505805969E-08  0.10566000000E+00  0.10566000000E+00 0.  1.
     999900   -1    0    0    0    0 -0.00000000000E+00 -0.00000000000E+00 -0.74505805969E-08  0.93827000000E+00  0.93827000000E+00 0.  1.
     999902    2    1    2    0    0  0.11465819336E-01 -0.15533833473E-01  0.41805573904E-02  0.10241754548E+01  0.10239849219E+01 0.  0.
     999903    2    3    3    0    0 -0.76763845890E-01  0.78035875619E-01 -0.67928666563E-01  0.13190895625E+00  0.28344013086E-01 0.  0.
         14    1    1    2    0    0 -0.11465819336E-01  0.15533833473E-01 -0.41805573904E-02  0.19754545186E-01  0.00000000000E+00 0.  1.
     999901    1    3    3    0    0  0.88229665226E-01 -0.93569709092E-01  0.72109223953E-01  0.89226649857E+00  0.88000000000E+00 0. -1.
        -11    1    4    4    0    0 -0.24860196718E-01  0.16226102564E-01 -0.62883188770E-02  0.30349956516E-01  0.51100000000E-03 0. -1.
         11    1    4    4    0    0 -0.51903649173E-01  0.61809773055E-01 -0.61640347686E-01  0.10155899973E+00  0.51100000000E-03 0.  1.
</event>
<event>
 8    1  0.1081309E+005  0.1043930E+01  0.7957747E-01            NaN
         13   -1    0    0    0    0  0.00000000000E+00  0.00000000000E+00  0.74505805969E-08  0.10566000000E+00  0.10566000000E+00 0.  1.
     999900   -1    0    0    0    0 -0.00000000000E+00 -0.00000000000E+00 -0.74505805969E-08  0.93827000000E+00  0.93827000000E+00 0.  1.
     999902    2    1    2    0    0 -0.14459004385E-01 -0.20001342460E-02  0.17849007470E-01  0.10208724543E+01  0.10206120309E+01 0.  0.
     999903    2    3    3    0    0  0.78885908285E-01 -0.10081872222E+00 -0.96981258398E-02  0.13000926023E+00  0.20517134867E-01 0.  0.
         14    1    1    2    0    0  0.14459004385E-01  0.20001342460E-02 -0.17849007470E-01  0.23057545673E-01  0.00000000000E+00 0. -1.
     999901    1    3    3    0    0 -0.93344912671E-01  0.98818587975E-01  0.27547133310E-01  0.89086319410E+00  0.88000000000E+00 0. -1.
        -11    1    4    4    0    0  0.42861693052E-01 -0.39485143267E-01 -0.47221777992E-03  0.58281089392E-01  0.51100000000E-03 0.  1.
         11    1    4    4    0    0  0.36024215233E-01 -0.61333578954E-01 -0.92259080599E-02  0.71728170833E-01  0.51100000000E-03 0. -1.
</event>
<event>
 8    1  0.1081309E+005  0.1043930E+01  0.7957747E-01            NaN
         13   -1    0    0    0    0  0.00000000000E+00  0.00000000000E+00  0.74505805969E-08  0.10566000000E+00  0.10566000000E+00 0. -1.
     999900   -1    0    0    0    0 -0.00000000000E+00 -0.00000000000E+00 -0.74505805969E-08  0.93827000000E+00  0.93827000000E+00 0. -1.
     999902    2    1    2    0    0  0.35715716561E-01 -0.27732585271E-02 -0.42111227898E-02  0.10078601105E+01  0.10072144585E+01 0.  0.
     999903    2    3    3    0    0  0.78668373796E-01  0.78060846253E-01  0.45784652428E-01  0.12170060975E+00  0.20798924532E-01 0.  0.
         14    1    1    2    0    0 -0.35715716561E-01  0.27732585271E-02  0.42111227898E-02  0.36069889485E-01  0.00000000000E+00 0. -1.
     999901    1    3    3    0    0 -0.42952657235E-01 -0.80834104780E-01 -0.49995775218E-01  0.88615950077E+00  0.88000000000E+00 0. -1.
        -11    1    4    4    0    0  0.62834250809E-01  0.72245355377E-01  0.36755987460E-01  0.10256119238E+00  0.51100000000E-03 0.  1.
         11    1    4    4    0    0  0.15834122987E-01  0.58154908760E-02  0.90286649677E-02  0.19139417363E-01  0.51100000000E-03 0. -1.
</event>
<event>
 8    1  0.1081309E+005  0.1043930E+01  0.7957747E-01            NaN
         13   -1    0    0    0    0  0.00000000000E+00  0.00000000000E+00  0.74505805969E-08  0.10566000000E+00  0.10566000000E+00 0.  1.
     999900   -1    0    0    0    0 -0.00000000000E+00 -0.00000000000E+00 -0.74505805969E-08  0.93827000000E+00  0.93827000000E+00 0. -1.
     999902    2    1    2    0    0 -0.15236493666E-01  0.15594428330E-01  0.12689446289E-01  0.10187038433E+01  0.10183914578E+01 0.  0.
     999903    2    3    3    0    0 -0.91190565274E-01 -0.50662667532E-01  0.75799422709E-01  0.13070502976E+00  0.21350111121E-01 0.  0.
         14    1    1    2    0    0  0.15236493666E-01 -0.15594428330E-01 -0.12689446289E-01  0.25226156689E-01  0.00000000000E+00 0. -1.
     999901    1    3    3    0    0  0.75954071608E-01  0.66257095862E-01 -0.63109976420E-01  0.88799881355E+00  0.88000000000E+00 0. -1.
        -11    1    4    4    0    0 -0.46018522585E-01 -0.13899880246E-01  0.37887634657E-01  0.61209844573E-01  0.51100000000E-03 0. -1.
         11    1    4    4    0    0 -0.45172042689E-01 -0.36762787286E-01  0.37911788052E-01  0.69495185186E-01  0.51100000000E-03 0.  1.
</event>
<event>
 8    1  0.1081309E+005  0.1043930E+01  0.7957747E-01            NaN
         13   -1    0    0    0    0  0.00000000000E+00  0.00000000000E+00  0.74505805969E-08  0.10566000000E+00  0.10566000000E+00 0. -1.
     999900   -1    0    0    0    0 -0.00000000000E+00 -0.00000000000E+00 -0.74505805969E-08  0.93827000000E+00  0.93827000000E+00 0.  1.
     999902    2    1    2    0    0  0.85417499150E-02 -0.20694178164E-01  0.90794196670E-02  0.10197712260E+01  0.10194850205E+01 0.  0.
     999903    2    3    3    0    0 -0.80279924364E-01 -0.96479073062E-01  0.34327245871E-01  0.13170023058E+00  0.20335022264E-01 0.  0.
         14    1    1    2    0    0 -0.85417499150E-02  0.20694178164E-01 -0.90794196670E-02  0.24158774037E-01  0.00000000000E+00 0.  1.
     999901    1    3    3    0    0  0.88821674279E-01  0.75784894898E-01 -0.25247826204E-01  0.88807099539E+00  0.88000000000E+00 0.  1.
        -11    1    4    4    0    0 -0.60246128921E-01 -0.79846987620E-01  0.20107469470E-01  0.10202798112E+00  0.51100000000E-03 0.  1.
         11    1    4    4    0    0 -0.20033795443E-01 -0.16632085442E-01  0.14219776401E-01  0.29672249458E-01  0.51100000000E-03 0. -1.
</event>
<event>
 8    1  0.1081309E+005  0.1043930E+01  0.7957747E-01            NaN
         13   -1    0    0    0    0  0.00000000000E+00  0.00000000000E+00  0.74505805969E-08  0.10566000000E+00  0.10566000000E+00 0.  1.
     999900   -1    0    0    0    0 -0.00000000000E+00 -0.00000000000E+00 -0.74505805969E-08  0.93827000000E+00  0.93827000000E+00 0.  1.
     999902    2    1    2    0    0  0.18079265749E-01  0.16608079279E-01 -0.12635544358E-02  0.10193477967E+01  0.10190513461E+01 0.  0.
     999903    2    3    3    0    0  0.60833342870E-01 -0.10328801771E+00 -0.43417516457E-01  0.12919054001E+00  0.20880725248E-01 0.  0.
         14    1    1    2    0    0 -0.18079265749E-01 -0.16608079279E-01  0.12635544358E-02  0.24582203262E-01  0.00000000000E+00 0.  1.
     999901    1    3    3    0    0 -0.42754077121E-01  0.11989609699E+00  0.42153962021E-01  0.89015725672E+00  0.88000000000E+00 0. -1.
        -11    1    4    4    0    0  0.53384243861E-01 -0.94544892360E-01 -0.45099668788E-01  0.11757064008E+00  0.51100000000E-03 0.  1.
         11    1    4    4    0    0  0.74490990096E-02 -0.87431253496E-02  0.16821523317E-02  0.11619899931E-01  0.51100000000E-03 0. -1.
</event>
<event>
 8    1  0.1081309E+005  0.1043930E+01  0.7957747E-01            NaN
         13   -1    0    0    0    0  0.00000000000E+00  0.00000000000E+00  0.74505805969E-08  0.10566000000E+00  0.10566000000E+00 0.  1.
     999900   -1    0    0    0    0 -0.00000000000E+00 -0.00000000000E+00 -0.74505805969E-08  0.93827000000E+00  0.93827000000E+00 0. -1.
     999902    2    1    2    0    0  0.94735676388E-02 -0.20416096674E-01 -0.81356273243E-02  0.10199977222E+01  0.10197169212E+01 0.  0.
     999903    2    3    3    0    0 -0.10852487214E+00 -0.60128712630E-01  0.34158776635E-01  0.13022834747E+00  0.19987258628E-01 0.  0.
         14    1    1    2    0    0 -0.94735676388E-02  0.20416096674E-01  0.81356273243E-02  0.23932277768E-01  0.00000000000E+00 0.  1.
     999901    1    3    3    0    0  0.11799843978E+00  0.39712615957E-01 -0.42294403960E-01  0.88976937476E+00  0.88000000000E+00 0. -1.
        -11    1    4    4    0    0 -0.58571427355E-01 -0.43312010105E-01  0.17122908973E-01  0.74833130727E-01  0.51100000000E-03 0. -1.
         11    1    4    4    0    0 -0.49953444789E-01 -0.16816702525E-01  0.17035867663E-01  0.55395216744E-01  0.51100000000E-03 0.  1.
</event>
<event>
 8    1  0.1081309E+005  0.1043930E+01  0.7957747E-01            NaN
         13   -1    0    0    0    0  0.00000000000E+00  0.00000000000E+00  0.74505805969E-08  0.10566000000E+00  0.10566000000E+00 0. -1.
     999900   -1    0    0    0    0 -0.00000000000E+00 -0.00000000000E+00 -0.74505805969E-08  0.93827000000E+00  0.93827000000E+00 0. -1.
     999902    2    1    2    0    0  0.82684954289E-02  0.21022219261E-01  0.59447232469E-02  0.10205710305E+01  0.10203036739E+01 0.  0.
     999903    2    3    3    0    0  0.10092738276E+00  0.83072000066E-01  0.17144839598E-01  0.13346264523E+00  0.20761463355E-01 0.  0.
         14    1    1    2    0    0 -0.82684954289E-02 -0.21022219261E-01 -0.59447232469E-02  0.23358969450E-01  0.00000000000E+00 0.  1.
     999901    1    3    3    0    0 -0.92658887332E-01 -0.62049780806E-01 -0.11200116351E-01  0.88710838532E+00  0.88000000000E+00 0. -1.
        -11    1    4    4    0    0  0.33859273627E-01  0.17785031961E-01  0.10308965799E-01  0.39614311419E-01  0.51100000000E-03 0.  1.
         11    1    4    4    0    0  0.67068109135E-01  0.65286968106E-01  0.68358737997E-02  0.93848333810E-01  0.51100000000E-03 0. -1.
</event>
<event>
 8    1  0.1081309E+005  0.1043930E+01  0.7957747E-01            NaN
         13   -1    0    0    0    0  0.00000000000E+00  0.00000000000E+00  0.74505805969E-08  0.10566000000E+00  0.10566000000E+00 0. -1.
     999900   -1    0    0    0    0 -0.00000000000E+00 -0.00000000000E+00 -0.74505805969E-08  0.93827000000E+00  0.93827000000E+00 0.  1.
     999902    2    1    2    0    0 -0.19250063764E-01 -0.14171401110E-01  0.67364637644E-02  0.10190950748E+01  0.10187924215E+01 0.  0.
     999903    2    3    3    0    0 -0.28370593425E-01  0.62281260181E-01  0.10842480874E+00  0.12989953222E+00  0.20835147747E-01 0.  0.
         14    1    1    2    0    0  0.19250063764E-01  0.14171401110E-01 -0.67364637644E-02  0.24834925174E-01  0.00000000000E+00 0.  1.
     999901    1    3    3    0    0  0.91205296607E-02 -0.76452661291E-01 -0.10168834497E+00  0.88919554260E+00  0.88000000000E+00 0. -1.
        -11    1    4    4    0    0 -0.24989206442E-01  0.32810172168E-01  0.54454805595E-01  0.68312186392E-01  0.51100000000E-03 0. -1.
         11    1    4    4    0    0 -0.33813869828E-02  0.29471088014E-01  0.53970003141E-01  0.61587345832E-01  0.51100000000E-03 0.  1.
</event>
<event>
 8    1  0.1081309E+005  0.1043930E+01  0.7957747E-01            NaN
         13   -1    0    0    0    0  0.00000000000E+00  0.00000000000E+00  0.74505805969E-08  0.10566000000E+00  0.10566000000E+00 0. -1.
     999900   -1    0    0    0    0 -0.00000000000E+00 -0.00000000000E+00 -0.74505805969E-08  0.93827000000E+00  0.93827000000E+00 0.  1.
     999902    2    1    2    0    0 -0.60442584011E-02  0.22659093034E-02 -0.21791183005E-01  0.10212028563E+01  0.10209499256E+01 0.  0.
     999903    2    3    3    0    0 -0.26012238248E-02 -0.11523903178E+00 -0.62699300014E-01  0.13244375523E+00  0.17981803763E-01 0.  0.
         14    1    1    2    0    0  0.60442584011E-02 -0.22659093034E-02  0.21791183005E-01  0.22727143713E-01  0.00000000000E+00 0. -1.
     999901    1    3    3    0    0 -0.34430345763E-02  0.11750494109E+00  0.40908117009E-01  0.88875910105E+00  0.88000000000E+00 0.  1.
        -11    1    4    4    0    0 -0.30683467878E-02 -0.59256846644E-01 -0.22244874588E-01  0.63371004352E-01  0.51100000000E-03 0. -1.
         11    1    4    4    0    0  0.46712296302E-03 -0.55982185140E-01 -0.40454425426E-01  0.69072750882E-01  0.51100000000E-03 0.  1.
</event>
<event>
 8    1  0.1081309E+005  0.1043930E+01  0.7957747E-01            NaN
         13   -1    0    0    0    0  0.00000000000E+00  0.00000000000E+00  0.74505805969E-08  0.10566000000E+00  0.10566000000E+00 0. -1.
     999900   -1    0    0    0    0 -0.00000000000E+00 -0.00000000000E+00 -0.74505805969E-08  0.93827000000E+00  0.93827000000E+00 0. -1.
     999902    2    1    2    0    0  0.19279310416E-01 -0.12596960409E-01 -0.10885330362E-01  0.10184571588E+01  0.10181385557E+01 0.  0.
     999903    2    3    3    0    0  0.46667163873E-01  0.10802708046E+00  0.46415493477E-01  0.12796087124E+00  0.19285026240E-01 0.  0.
         14    1    1    2    0    0 -0.19279310416E-01  0.12596960409E-01  0.10885330362E-01  0.25472841199E-01  0.00000000000E+00 0. -1.
     999901    1    3    3    0    0 -0.27387853458E-01 -0.12062404087E+00 -0.57300823839E-01  0.89049628756E+00  0.88000000000E+00 0.  1.
        -11    1    4    4    0    0  0.21762953520E-01  0.58261236341E-01  0.34222654429E-01  0.70989076646E-01  0.51100000000E-03 0.  1.
         11    1    4    4    0    0  0.24904210353E-01  0.49765844117E-01  0.12192839048E-01  0.56971794592E-01  0.51100000000E-03 0. -1.
</event>
<event>
 8    1  0.1081309E+005  0.1043930E+01  0.7957747E-01            NaN
         13   -1    0    0    0    0  0.00000000000E+00  0.00000000000E+00  0.74505805969E-08  0.10566000000E+00  0.10566000000E+00 0.  1.
     999900   -1    0    0    0    0 -0.00000000000E+00 -0.00000000000E+00 -0.74505805969E-08  0.93827000000E+00  0.93827000000E+00 0. -1.
     999902    2    1    2    0    0  0.95686544907E-03 -0.24865975309E-01 -0.95662300235E-03  0.10190272402E+01  0.10187229107E+01 0.  0.
     999903    2    3    3    0    0  0.99268867329E-01  0.27912022027E-01 -0.74592035653E-01  0.12893008777E+00  0.20630238849E-01 0.  0.
         14    1    1    2    0    0 -0.95686544907E-03  0.24865975309E-01  0.95662300235E-03  0.24902759829E-01  0.00000000000E+00 0.  1.
     999901    1    3    3    0    0 -0.98312001880E-01 -0.52777997336E-01  0.73635412651E-01  0.89009715240E+00  0.88000000000E+00 0.  1.
        -11    1    4    4    0    0  0.77048193706E-01  0.18886505514E-01 -0.66793570801E-01  0.10370519016E+00  0.51100000000E-03 0.  1.
         11    1    4    4    0    0  0.22220673623E-01  0.90255165128E-02 -0.77984648526E-02  0.25224897614E-01  0.51100000000E-03 0. -1.
</event>
<event>
 8    1  0.1081309E+005  0.1043930E+01  0.7957747E-01            NaN
         13   -1    0    0    0    0  0.00000000000E+00  0.00000000000E+00  0.74505805969E-08  0.10566000000E+00  0.10566000000E+00 0. -1.
     999900   -1    0    0    0    0 -0.00000000000E+00 -0.00000000000E+00 -0.74505805969E-08  0.93827000000E+00  0.93827000000E+00 0. -1.
     999902    2    1    2    0    0 -0.23491136868E-02 -0.14014186127E-02  0.23404612414E-01  0.10203660828E+01  0.10200939588E+01 0.  0.
     999903    2    3    3    0    0 -0.37208101259E-01 -0.70783139280E-01  0.10469402453E+00  0.13321505811E+00  0.19766570969E-01 0.  0.
         14    1    1    2    0    0  0.23491136868E-02  0.14014186127E-02 -0.23404612414E-01  0.23563917151E-01  0.00000000000E+00 0.  1.
     999901    1    3    3    0    0  0.34858987572E-01  0.69381720667E-01 -0.81289412120E-01  0.88715102474E+00  0.88000000000E+00 0. -1.
        -11    1    4    4    0    0 -0.11868959713E-01 -0.18851536297E-01  0.16297800465E-01  0.27606739149E-01  0.51100000000E-03 0.  1.
         11    1    4    4    0    0 -0.25339141546E-01 -0.51931602982E-01  0.88396224069E-01  0.10560831896E+00  0.51100000000E-03 0. -1.
</event>
<event>
 8    1  0.1081309E+005  0.1043930E+01  0.7957747E-01            NaN
         13   -1    0    0    0    0  0.00000000000E+00  0.00000000000E+00  0.74505805969E-08  0.10566000000E+00  0.10566000000E+00 0. -1.
     999900   -1    0    0    0    0 -0.00000000000E+00 -0.00000000000E+00 -0.74505805969E-08  0.93827000000E+00  0.93827000000E+00 0.  1.
     999902    2    1    2    0    0 -0.18747023059E-01 -0.11612238520E-02  0.18370839366E-01  0.10176566855E+01  0.10173174738E+01 0.  0.
     999903    2    3    3    0    0  0.70601044022E-01 -0.95150317244E-01 -0.37613516669E-01  0.12639282174E+00  0.22853412507E-01 0.  0.
         14    1    1    2    0    0  0.18747023059E-01  0.11612238520E-02 -0.18370839366E-01  0.26273314473E-01  0.00000000000E+00 0.  1.
     999901    1    3    3    0    0 -0.89348067081E-01  0.93989093392E-01  0.55984356035E-01  0.89126386378E+00  0.88000000000E+00 0.  1.
        -11    1    4    4    0    0  0.22571258412E-01 -0.47835478709E-01 -0.11788022283E-01  0.54193295895E-01  0.51100000000E-03 0.  1.
         11    1    4    4    0    0  0.48029785610E-01 -0.47314838535E-01 -0.25825494386E-01  0.72199525847E-01  0.51100000000E-03 0. -1.
</event>
<event>
 8    1  0.1081309E+005  0.1043930E+01  0.7957747E-01            NaN
         13   -1    0    0    0    0  0.00000000000E+00  0.00000000000E+00  0.74505805969E-08  0.10566000000E+00  0.10566000000E+00 0. -1.
     999900   -1    0    0    0    0 -0.00000000000E+00 -0.00000000000E+00 -0.74505805969E-08  0.93827000000E+00  0.93827000000E+00 0. -1.
     999902    2    1    2    0    0 -0.76077755419E-02 -0.22129652940E-03 -0.24051014737E-01  0.10187034558E+01  0.10183910606E+01 0.  0.
     999903    2    3    3    0    0 -0.11392541953E+00  0.56470032466E-01 -0.19501507811E-01  0.13048161067E+00  0.21846650420E-01 0.  0.
         14    1    1    2    0    0  0.76077755419E-02  0.22129652940E-03  0.24051014737E-01  0.25226544170E-01  0.00000000000E+00 0. -1.
     999901    1    3    3    0    0  0.10631764399E+00 -0.56691328996E-01 -0.45495069267E-02  0.88822184516E+00  0.88000000000E+00 0. -1.
        -11    1    4    4    0    0 -0.77479873537E-01  0.35662921949E-01 -0.23071197018E-01  0.88360149717E-01  0.51100000000E-03 0. -1.
         11    1    4    4    0    0 -0.36445545992E-01  0.20807110518E-01  0.35696892078E-02  0.42121460953E-01  0.51100000000E-03 0.  1.
</event>
<event>
 8    1  0.1081309E+005  0.1043930E+01  0.7957747E-01            NaN
         13   -1    0    0    0    0  0.00000000000E+00  0.00000000000E+00  0.74505805969E-08  0.10566000000E+00  0.10566000000E+00 0.  1.
     999900   -1    0    0    0    0 -0.00000000000E+00 -0.00000000000E+00 -0.74505805969E-08  0.93827000000E+00  0.93827000000E+00 0. -1.
     999902    2    1    2    0    0 -0.22167143312E-02 -0.23703720292E-01  0.13597163730E-02  0.10200840568E+01  0.10198053020E+01 0.  0.
     999903    2    3    3    0    0  0.46888116764E-01 -0.69713195022E-01 -0.99636215424E-01  0.13175510060E+00  0.19328891731E-01 0.  0.
         14    1    1    2    0    0  0.22167143312E-02  0.23703720292E-01 -0.13597163730E-02  0.23845943193E-01  0.00000000000E+00 0.  1.
     999901    1    3    3    0    0 -0.49104831096E-01  0.46009474730E-01  0.10099593180E+00  0.88832895621E+00  0.88000000000E+00 0.  1.
        -11    1    4    4    0    0  0.34162125681E-01 -0.34182188299E-01 -0.52266790293E-01  0.71186735538E-01  0.51100000000E-03 0.  1.
         11    1    4    4    0    0  0.12725991083E-01 -0.35531006724E-01 -0.47369425130E-01  0.60568365060E-01  0.51100000000E-03 0. -1.
</event>
<event>
 8    1  0.1081309E+005  0.1043930E+01  0.7957747E-01            NaN
         13   -1    0    0    0    0  0.00000000000E+00  0.00000000000E+00  0.74505805969E-08  0.10566000000E+00  0.10566000000E+00 0. -1.
     999900   -1    0    0    0    0 -0.00000000000E+00 -0.00000000000E+00 -0.74505805969E-08  0.93827000000E+00  0.93827000000E+00 0. -1.
     999902    2    1    2    0    0  0.38793090704E-02 -0.10286965077E-01 -0.21024005311E-01  0.10202049186E+01  0.10199290154E+01 0.  0.
     999903    2    3    3    0    0 -0.27290282836E-01  0.84276703580E-01 -0.95300461657E-01  0.13148065152E+00  0.18911938752E-01 0.  0.
         14    1    1    2    0    0 -0.38793090704E-02  0.10286965077E-01  0.21024005311E-01  0.23725081426E-01  0.00000000000E+00 0. -1.
     999901    1    3    3    0    0  0.31169591907E-01 -0.94563668657E-01  0.74276456346E-01  0.88872426706E+00  0.88000000000E+00 0.  1.
        -11    1    4    4    0    0 -0.14500246244E-01  0.18210812168E-01 -0.24944656247E-01  0.34123127308E-01  0.51100000000E-03 0. -1.
         11    1    4    4    0    0 -0.12790036592E-01  0.66065891412E-01 -0.70355805410E-01  0.97357524209E-01  0.51100000000E-03 0.  1.
</event>
<event>
 8    1  0.1081309E+005  0.1043930E+01  0.7957747E-01            NaN
         13   -1    0    0    0    0  0.00000000000E+00  0.00000000000E+00  0.74505805969E-08  0.10566000000E+00  0.10566000000E+00 0. -1.
     999900   -1    0    0    0    0 -0.00000000000E+00 -0.00000000000E+00 -0.74505805969E-08  0.93827000000E+00  0.93827000000E+00 0. -1.
     999902    2    1    2    0    0 -0.24881660846E-01  0.60494445298E-03  0.42205733528E-02  0.10186856691E+01  0.10183728277E+01 0.  0.
     999903    2    3    3    0    0 -0.47030513799E-01 -0.14877224944E-01  0.11960075901E+00  0.13074262107E+00  0.18870356660E-01 0.  0.
         14    1    1    2    0    0  0.24881660846E-01 -0.60494445298E-03 -0.42205733528E-02  0.25244330922E-01  0.00000000000E+00 0. -1.
     999901    1    3    3    0    0  0.22148852953E-01  0.15482169397E-01 -0.11538018565E+00  0.88794304800E+00  0.88000000000E+00 0. -1.
        -11    1    4    4    0    0 -0.11799231595E-01 -0.81844744119E-02  0.55083603173E-01  0.56926900031E-01  0.51100000000E-03 0. -1.
         11    1    4    4    0    0 -0.35231282204E-01 -0.66927505320E-02  0.64517155833E-01  0.73815721043E-01  0.51100000000E-03 0.  1.
</event>
<event>
 8    1  0.1081309E+005  0.1043930E+01  0.7957747E-01            NaN
         13   -1    0    0    0    0  0.00000000000E+00  0.00000000000E+00  0.74505805969E-08  0.10566000000E+00  0.10566000000E+00 0.  1.
     999900   -1    0    0    0    0 -0.00000000000E+00 -0.00000000000E+00 -0.74505805969E-08  0.93827000000E+00  0.93827000000E+00 0.  1.
     999902    2    1    2    0    0 -0.11020690210E-01  0.18744019942E-01  0.10159084885E-01  0.10199299812E+01  0.10196475693E+01 0.  0.
     999903    2    3    3    0    0 -0.81498250217E-01 -0.98317605577E-01  0.58089439229E-02  0.12937429269E+00  0.19890887956E-01 0.  0.
         14    1    1    2    0    0  0.11020690210E-01 -0.18744019942E-01 -0.10159084885E-01  0.24000018791E-01  0.00000000000E+00 0.  1.
     999901    1    3    3    0    0  0.70477560007E-01  0.11706162552E+00  0.43501409623E-02  0.89055568852E+00  0.88000000000E+00 0.  1.
        -11    1    4    4    0    0 -0.58215321453E-01 -0.58407635159E-01 -0.21062187649E-02  0.82493471106E-01  0.51100000000E-03 0.  1.
         11    1    4    4    0    0 -0.23282928764E-01 -0.39909970418E-01  0.79151626878E-02  0.46880821580E-01  0.51100000000E-03 0. -1.
</event>
<event>
 8    1  0.1081309E+005  0.1043930E+01  0.7957747E-01            NaN
         13   -1    0    0    0    0  0.00000000000E+00  0.00000000000E+00  0.74505805969E-08  0.10566000000E+00  0.10566000000E+00 0. -1.
     999900   -1    0    0    0    0 -0.00000000000E+00 -0.00000000000E+00 -0.74505805969E-08  0.93827000000E+00  0.93827000000E+00 0.  1.
     999902    2    1    2    0    0 -0.89496318538E-02  0.90376223037E-02 -0.18751912154E-01  0.10212714754E+01  0.10210200868E+01 0.  0.
     999903    2    3    3    0    0 -0.23422048279E-01  0.93203684957E-01 -0.91308430397E-01  0.13416504139E+00  0.20676306108E-01 0.  0.
         14    1    1    2    0    0  0.89496318538E-02 -0.90376223037E-02  0.18751912154E-01  0.22658524591E-01  0.00000000000E+00 0. -1.
     999901    1    3    3    0    0  0.14472416425E-01 -0.84166062654E-01  0.72556518243E-01  0.88710643402E+00  0.88000000000E+00 0. -1.
        -11    1    4    4    0    0 -0.26738112157E-01  0.83412142853E-01 -0.77871727091E-01  0.11720400683E+00  0.51100000000E-03 0.  1.
         11    1    4    4    0    0  0.33160638780E-02  0.97915421043E-02 -0.13436703306E-01  0.16961034554E-01  0.51100000000E-03 0. -1.
</event>
<event>
 8    1  0.1081309E+005  0.1043930E+01  0.7957747E-01            NaN
         13   -1    0    0    0    0  0.00000000000E+00  0.00000000000E+00  0.74505805969E-08  0.10566000000E+00  0.10566000000E+00 0.  1.
     999900   -1    0    0    0    0 -0.00000000000E+00 -0.00000000000E+00 -0.74505805969E-08  0.93827000000E+00  0.93827000000E+00 0. -1.
     999902    2    1    2    0    0 -0.40222015303E-02 -0.19401679160E-01  0.23056635665E-01  0.10135291496E+01  0.10130731096E+01 0.  0.
     999903    2    3    3    0    0  0.15070552022E-01 -0.29883956601E-01 -0.11589656692E+00  0.12236002763E+00  0.20488771011E-01 0.  0.
         14    1    1    2    0    0  0.40222015303E-02  0.19401679160E-01 -0.23056635665E-01  0.30400850442E-01  0.00000000000E+00 0. -1.
     999901    1    3    3    0    0 -0.19092753553E-01  0.10482277441E-01  0.13895320258E+00  0.89116912193E+00  0.88000000000E+00 0.  1.
        -11    1    4    4    0    0  0.11737348971E-01 -0.81565945133E-02 -0.70284689014E-01  0.71725128273E-01  0.51100000000E-03 0. -1.
         11    1    4    4    0    0  0.33332030516E-02 -0.21727362088E-01 -0.45611877901E-01  0.50634899353E-01  0.51100000000E-03 0.  1.
</event>
<event>
 8    1  0.1081309E+005  0.1043930E+01  0.7957747E-01            NaN
         13   -1    0    0    0    0  0.00000000000E+00  0.00000000000E+00  0.74505805969E-08  0.10566000000E+00  0.10566000000E+00 0.  1.
     999900   -1    0    0    0    0 -0.00000000000E+00 -0.00000000000E+00 -0.74505805969E-08  0.93827000000E+00  0.93827000000E+00 0.  1.
     999902    2    1    2    0    0 -0.23432222705E-01 -0.38181733239E-02 -0.68157689861E-03  0.10201789567E+01  0.10199024423E+01 0.  0.
     999903    2    3    3    0    0 -0.34071040809E-01  0.11951009202E+00 -0.35785033987E-01  0.13082228017E+00  0.19758603561E-01 0.  0.
         14    1    1    2    0    0  0.23432222705E-01  0.38181733239E-02  0.68157689861E-03  0.23751043250E-01  0.00000000000E+00 0. -1.
     999901    1    3    3    0    0  0.10638818105E-01 -0.12332826534E+00  0.35103457089E-01  0.88935667658E+00  0.88000000000E+00 0. -1.
        -11    1    4    4    0    0 -0.18486732220E-01  0.33118455029E-01 -0.82639281425E-02  0.38821964930E-01  0.51100000000E-03 0.  1.
         11    1    4    4    0    0 -0.15584308590E-01  0.86391636989E-01 -0.27521105845E-01  0.92000315237E-01  0.51100000000E-03 0. -1.
</event>
<event>
 8    1  0.1081309E+005  0.1043930E+01  0.7957747E-01            NaN
         13   -1    0    0    0    0  0.00000000000E+00  0.00000000000E+00  0.74505805969E-08  0.10566000000E+00  0.10566000000E+00 0.  1.
     999900   -1    0    0    0    0 -0.00000000000E+00 -0.00000000000E+00 -0.74505805969E-08  0.93827000000E+00  0.93827000000E+00 0. -1.
     999902    2    1    2    0    0  0.15885029604E-01 -0.18690962821E-03 -0.17771649975E-01  0.10200930404E+01  0.10198144980E+01 0.  0.
     999903    2    3    3    0    0  0.11328913945E+00  0.39756656419E-01  0.49278565909E-01  0.13128553562E+00  0.19811460255E-01 0.  0.
         14    1    1    2    0    0 -0.15885029604E-01  0.18690962821E-03  0.17771649975E-01  0.23836959612E-01  0.00000000000E+00 0. -1.
     999901    1    3    3    0    0 -0.97404109847E-01 -0.39943566048E-01 -0.67050215884E-01  0.88880750477E+00  0.88000000000E+00 0. -1.
        -11    1    4    4    0    0  0.63069753189E-01  0.29337794760E-01  0.35896663012E-01  0.78277273235E-01  0.51100000000E-03 0. -1.
         11    1    4    4    0    0  0.50219386262E-01  0.10418861659E-01  0.13381902898E-01  0.53008262384E-01  0.51100000000E-03 0.  1.
</event>
<event>
 8    1  0.1081309E+005  0.1043930E+01  0.7957747E-01            NaN
         13   -1    0    0    0    0  0.00000000000E+00  0.00000000000E+00  0.74505805969E-08  0.10566000000E+00  0.10566000000E+00 0. -1.
     999900   -1    0    0    0    0 -0.00000000000E+00 -0.00000000000E+00 -0.74505805969E-08  0.93827000000E+00  0.93827000000E+00 0. -1.
     999902    2    1    2    0    0 -0.71752674779E-02 -0.12684612463E-01 -0.31250629355E-01  0.10094483282E+01  0.10088592278E+01 0.  0.
     999903    2    3    3    0    0 -0.25387107444E-01 -0.13128862452E-01  0.11232616036E+00  0.11762650571E+00  0.20048847611E-01 0.  0.
         14    1    1    2    0    0  0.71752674779E-02  0.12684612463E-01  0.31250629355E-01  0.34481671824E-01  0.00000000000E+00 0. -1.
     999901    1    3    3    0    0  0.18211839966E-01  0.44424998936E-03 -0.14357678972E+00  0.89182182246E+00  0.88000000000E+00 0. -1.
        -11    1    4    4    0    0  0.67166169309E-03 -0.55756886467E-02  0.39658820891E-01  0.40057741184E-01  0.51100000000E-03 0.  1.
         11    1    4    4    0    0 -0.26058769137E-01 -0.75531738052E-02  0.72667339474E-01  0.77568764530E-01  0.51100000000E-03 0. -1.
</event>
<event>
 8    1  0.1081309E+005  0.1043930E+01  0.7957747E-01            NaN
         13   -1    0    0    0    0  0.00000000000E+00  0.00000000000E+00  0.74505805969E-08  0.10566000000E+00  0.10566000000E+00 0. -1.
     999900   -1    0    0    0    0 -0.00000000000E+00 -0.00000000000E+00 -0.74505805969E-08  0.93827000000E+00  0.93827000000E+00 0.  1.
     999902    2    1    2    0    0  0.38590258459E-02  0.23207802939E-01 -0.49171680359E-02  0.10198951765E+01  0.10196119352E+01 0.  0.
     999903    2    3    3    0    0  0.93869811037E-01 -0.63216743398E-01  0.58100750129E-01  0.12886072059E+00  0.20530223474E-01 0.  0.
         14    1    1    2    0    0 -0.38590258459E-02 -0.23207802939E-01  0.49171680359E-02  0.24034823470E-01  0.00000000000E+00 0. -1.
     999901    1    3    3    0    0 -0.90010785191E-01  0.86424546337E-01 -0.63017918165E-01  0.89103445594E+00  0.88000000000E+00 0.  1.
        -11    1    4    4    0    0  0.56062330260E-01 -0.41723313403E-01  0.46173533498E-01  0.83762020464E-01  0.51100000000E-03 0. -1.
         11    1    4    4    0    0  0.37807480777E-01 -0.21493429995E-01  0.11927216631E-01  0.45098700128E-01  0.51100000000E-03 0.  1.
</event>
<event>
 8    1  0.1081309E+005  0.1043930E+01  0.7957747E-01            NaN
         13   -1    0    0    0    0  0.00000000000E+00  0.00000000000E+00  0.74505805969E-08  0.10566000000E+00  0.10566000000E+00 0.  1.
     999900   -1    0    0    0    0 -0.00000000000E+00 -0.00000000000E+00 -0.74505805969E-08  0.93827000000E+00  0.93827000000E+00 0.  1.
     999902    2    1    2    0    0  0.14751624022E-01  0.38448056173E-02 -0.19198542367E-01  0.10194151684E+01  0.10191203602E+01 0.  0.
     999903    2    3    3    0    0  0.65197337977E-01 -0.32371380594E-02  0.10932989239E+00  0.12862086970E+00  0.18141962668E-01 0.  0.
         14    1    1    2    0    0 -0.14751624022E-01 -0.38448056173E-02  0.19198542367E-01  0.24514831644E-01  0.00000000000E+00 0.  1.
     999901    1    3    3    0    0 -0.50445713955E-01  0.70819436768E-02 -0.12852843476E+00  0.89079429866E+00  0.88000000000E+00 0.  1.
        -11    1    4    4    0    0  0.48918235947E-01 -0.80880255622E-02  0.90949805470E-01  0.10358831113E+00  0.51100000000E-03 0.  1.
         11    1    4    4    0    0  0.16279102030E-01  0.48508875027E-02  0.18380086919E-01  0.25032558572E-01  0.51100000000E-03 0. -1.
</event>
<event>
 8    1  0.1081309E+005  0.1043930E+01  0.7957747E-01            NaN
         13   -1    0    0    0    0  0.00000000000E+00  0.00000000000E+00  0.74505805969E-08  0.10566000000E+00  0.10566000000E+00 0.  1.
     999900   -1    0    0    0    0 -0.00000000000E+00 -0.00000000000E+00 -0.74505805969E-08  0.93827000000E+00  0.93827000000E+00 0. -1.
     999902    2    1    2    0    0  0.77774719216E-02 -0.17604491932E-01  0.13943151556E-01  0.10201640857E+01  0.10198872208E+01 0.  0.
     999903    2    3    3    0    0  0.32059091914E-01 -0.24306756544E-01  0.12490663041E+00  0.13283809656E+00  0.20632251187E-01 0.  0.
         14    1    1    2    0    0 -0.77774719216E-02  0.17604491932E-01 -0.13943151556E-01  0.23765914267E-01  0.00000000000E+00 0. -1.
     999901    1    3    3    0    0 -0.24281619993E-01  0.67022646127E-02 -0.11096347886E+00  0.88732598917E+00  0.88000000000E+00 0. -1.
        -11    1    4    4    0    0  0.16936393158E-01 -0.15279630924E-01  0.39351252379E-01  0.45487258867E-01  0.51100000000E-03 0. -1.
         11    1    4    4    0    0  0.15122698757E-01 -0.90271256199E-02  0.85555378032E-01  0.87350837694E-01  0.51100000000E-03 0.  1.
</event>
<event>
 8    1  0.1081309E+005  0.1043930E+01  0.7957747E-01            NaN
         13   -1    0    0    0    0  0.00000000000E+00  0.00000000000E+00  0.74505805969E-08  0.10566000000E+00  0.10566000000E+00 0.  1.
     999900   -1    0    0    0    0 -0.00000000000E+00 -0.00000000000E+00 -0.74505805969E-08  0.93827000000E+00  0.93827000000E+00 0. -1.
     999902    2    1    2    0    0 -0.80821352275E-02 -0.85351082962E-03 -0.22918461595E-01  0.10196132306E+01  0.10193232239E+01 0.  0.
     999903    2    3    3    0    0 -0.14323251601E-01 -0.10184719116E+00  0.74223878429E-01  0.12850419733E+00  0.20643127690E-01 0.  0.
         14    1    1    2    0    0  0.80821352275E-02  0.85351082962E-03  0.22918461595E-01  0.24316769367E-01  0.00000000000E+00 0.  1.
     999901    1    3    3    0    0  0.62411163737E-02  0.10099368033E+00 -0.97142340024E-01  0.89110903330E+00  0.88000000000E+00 0.  1.
        -11    1    4    4    0    0 -0.17524382548E-01 -0.51768180704E-01  0.36512760974E-01  0.65730444636E-01  0.51100000000E-03 0.  1.
         11    1    4    4    0    0  0.32011309469E-02 -0.50079010452E-01  0.37711117455E-01  0.62773752699E-01  0.51100000000E-03 0. -1.
</event>
<event>
 8    1  0.1081309E+005  0.1043930E+01  0.7957747E-01            NaN
         13   -1    0    0    0    0  0.00000000000E+00  0.00000000000E+00  0.74505805969E-08  0.10566000000E+00  0.10566000000E+00 0.  1.
     999900   -1    0    0    0    0 -0.00000000000E+00 -0.00000000000E+00 -0.74505805969E-08  0.93827000000E+00  0.93827000000E+00 0. -1.
     999902    2    1    2    0    0 -0.24149106157E-01  0.64583914097E-02 -0.17637678172E-02  0.10188700514E+01  0.10185618197E+01 0.  0.
     999903    2    3    3    0    0 -0.94831530676E-01 -0.67977295956E-01 -0.56684959906E-01  0.13120287613E+00  0.19674299181E-01 0.  0.
         14    1    1    2    0    0  0.24149106157E-01 -0.64583914097E-02  0.17637678172E-02  0.25059948617E-01  0.00000000000E+00 0. -1.
     999901    1    3    3    0    0  0.70682424519E-01  0.74435687366E-01  0.54921192088E-01  0.88766717526E+00  0.88000000000E+00 0.  1.
        -11    1    4    4    0    0 -0.89209799267E-02 -0.55867578453E-02 -0.12098537285E-01  0.16044671125E-01  0.51100000000E-03 0. -1.
         11    1    4    4    0    0 -0.85910550749E-01 -0.62390538111E-01 -0.44586422620E-01  0.11515820500E+00  0.51100000000E-03 0.  1.
</event>
<event>
 8    1  0.1081309E+005  0.1043930E+01  0.7957747E-01            NaN
         13   -1    0    0    0    0  0.00000000000E+00  0.00000000000E+00  0.74505805969E-08  0.10566000000E+00  0.10566000000E+00 0. -1.
     999900   -1    0    0    0    0 -0.00000000000E+00 -0.00000000000E+00 -0.74505805969E-08  0.93827000000E+00  0.93827000000E+00 0.  1.
     999902    2    1    2    0    0 -0.95511841292E-02 -0.97690434574E-02  0.20421656478E-01  0.10193596239E+01  0.10190634619E+01 0.  0.
     999903    2    3    3    0    0 -0.18166864595E-01 -0.18920301931E-01 -0.12328627698E+00  0.12761417501E+00  0.19946397583E-01 0.  0.
         14    1    1    2    0    0  0.95511841292E-02  0.97690434574E-02 -0.20421656478E-01  0.24570376099E-01  0.00000000000E+00 0.  1.
     999901    1    3    3    0    0  0.86156804658E-02  0.91512584741E-02  0.14370793346E+00  0.89174544889E+00  0.88000000000E+00 0. -1.
        -11    1    4    4    0    0 -0.16718117776E-01 -0.15708015555E-01 -0.60155980907E-01  0.64383541178E-01  0.51100000000E-03 0.  1.
         11    1    4    4    0    0 -0.14487468189E-02 -0.32122863760E-02 -0.63130296075E-01  0.63230633831E-01  0.51100000000E-03 0. -1.
</event>
<event>
 8    1  0.1081309E+005  0.1043930E+01  0.7957747E-01            NaN
         13   -1    0    0    0    0  0.00000000000E+00  0.00000000000E+00  0.74505805969E-08  0.10566000000E+00  0.10566000000E+00 0.  1.
     999900   -1    0    0    0    0 -0.00000000000E+00 -0.00000000000E+00 -0.74505805969E-08  0.93827000000E+00  0.93827000000E+00 0.  1.
     999902    2    1    2    0    0 -0.21725996228E-01  0.31141940444E-02 -0.83246746979E-02  0.10204562418E+01  0.10201862203E+01 0.  0.
     999903    2    3    3    0    0 -0.71316210818E-01  0.10914656845E+00 -0.14535211722E-01  0.13268339662E+00  0.19865448145E-01 0.  0.
         14    1    1    2    0    0  0.21725996228E-01 -0.31141940444E-02  0.83246746979E-02  0.23473758231E-01  0.00000000000E+00 0.  1.
     999901    1    3    3    0    0  0.49590214590E-01 -0.10603237441E+00  0.62105370238E-02  0.88777284514E+00  0.88000000000E+00 0.  1.
        -11    1    4    4    0    0 -0.31288956234E-01  0.59231723255E-01 -0.15214290809E-01  0.68695935745E-01  0.51100000000E-03 0.  1.
         11    1    4    4    0    0 -0.40027254584E-01  0.49914845196E-01  0.67907908773E-03  0.63987460880E-01  0.51100000000E-03 0. -1.
</event>
<event>
 8    1  0.1081309E+005  0.1043930E+01  0.7957747E-01            NaN
         13   -1    0    0    0    0  0.00000000000E+00  0.00000000000E+00  0.74505805969E-08  0.10566000000E+00  0.10566000000E+00 0. -1.
     999900   -1    0    0    0    0 -0.00000000000E+00 -0.00000000000E+00 -0.74505805969E-08  0.93827000000E+00  0.93827000000E+00 0. -1.
     999902    2    1    2    0    0  0.78976588369E-02 -0.20642934864E-01 -0.10226337976E-01  0.10195767299E+01  0.10192858414E+01 0.  0.
     999903    2    3    3    0    0 -0.66470369160E-01 -0.12109361306E-01 -0.11011024471E+00  0.13076841522E+00  0.20277224233E-01 0.  0.
         14    1    1    2    0    0 -0.78976588369E-02  0.20642934864E-01  0.10226337976E-01  0.24353270074E-01  0.00000000000E+00 0. -1.
     999901    1    3    3    0    0  0.74368027997E-01 -0.85335735584E-02  0.99883906729E-01  0.88880831471E+00  0.88000000000E+00 0.  1.
        -11    1    4    4    0    0 -0.38545806099E-01 -0.14016499642E-01 -0.51692988779E-01  0.65989905592E-01  0.51100000000E-03 0.  1.
         11    1    4    4    0    0 -0.27924563061E-01  0.19071383361E-02 -0.58417255926E-01  0.64778509629E-01  0.51100000000E-03 0. -1.
</event>
<event>
 8    1  0.1081309E+005  0.1043930E+01  0.7957747E-01            NaN
         13   -1    0    0    0    0  0.00000000000E+00  0.00000000000E+00  0.74505805969E-08  0.10566000000E+00  0.10566000000E+00 0.  1.
     999900   -1    0    0    0    0 -0.00000000000E+00 -0.00000000000E+00 -0.74505805969E-08  0.93827000000E+00  0.93827000000E+00 0. -1.
     999902    2    1    2    0    0 -0.37438433912E-02 -0.15654850828E-01  0.17649922169E-01  0.10200425458E+01  0.10197628080E+01 0.  0.
     999903    2    3    3    0    0 -0.10355122298E+00  0.41286453184E-01 -0.61761332861E-01  0.12902628746E+00  0.20146801779E-01 0.  0.
         14    1    1    2    0    0  0.37438433912E-02  0.15654850828E-01 -0.17649922169E-01  0.23887454246E-01  0.00000000000E+00 0. -1.
     999901    1    3    3    0    0  0.99807379586E-01 -0.56941304012E-01  0.79411255030E-01  0.89101625830E+00  0.88000000000E+00 0.  1.
        -11    1    4    4    0    0 -0.64805502104E-01  0.35151053185E-01 -0.44914057621E-01  0.86330083609E-01  0.51100000000E-03 0.  1.
         11    1    4    4    0    0 -0.38745720873E-01  0.61353999988E-02 -0.16847275240E-01  0.42696203849E-01  0.51100000000E-03 0. -1.
</event>
<event>
 8    1  0.1081309E+005  0.1043930E+01  0.7957747E-01            NaN
         13   -1    0    0    0    0  0.00000000000E+00  0.00000000000E+00  0.74505805969E-08  0.10566000000E+00  0.10566000000E+00 0.  1.
     999900   -1    0    0    0    0 -0.00000000000E+00 -0.00000000000E+00 -0.74505805969E-08  0.93827000000E+00  0.93827000000E+00 0. -1.
     999902    2    1    2    0    0 -0.40596351275E-02  0.13870707067E-01  0.18604069345E-01  0.10203718051E+01  0.10200998147E+01 0.  0.
     999903    2    3    3    0    0  0.64095974500E-01 -0.10881365002E+00 -0.13948610750E-01  0.12865642695E+00  0.20228892152E-01 0.  0.
         14    1    1    2    0    0  0.40596351275E-02 -0.13870707067E-01 -0.18604069345E-01  0.23558194925E-01  0.00000000000E+00 0. -1.
     999901    1    3    3    0    0 -0.68155609628E-01  0.12268435708E+00  0.32552680096E-01  0.89171537812E+00  0.88000000000E+00 0. -1.
        -11    1    4    4    0    0  0.10463123525E-01 -0.69004063840E-02  0.69793816022E-03  0.12563470891E-01  0.51100000000E-03 0.  1.
         11    1    4    4    0    0  0.53632850976E-01 -0.10191324363E+00 -0.14646548911E-01  0.11609295606E+00  0.51100000000E-03 0. -1.
</event>
<event>
 8    1  0.1081309E+005  0.1043930E+01  0.7957747E-01            NaN
         13   -1    0    0    0    0  0.00000000000E+00  0.00000000000E+00  0.74505805969E-08  0.10566000000E+00  0.10566000000E+00 0.  1.
     999900   -1    0    0    0    0 -0.00000000000E+00 -0.00000000000E+00 -0.74505805969E-08  0.93827000000E+00  0.93827000000E+00 0. -1.
     999902    2    1    2    0    0 -0.39692723310E-02  0.34361844103E-02 -0.22631443737E-01  0.10206975931E+01  0.10204331589E+01 0.  0.
     999903    2    3    3    0    0  0.11847268093E+00 -0.39747983920E-01  0.28118334710E-01  0.12972484134E+00  0.20547879744E-01 0.  0.
         14    1    1    2    0    0  0.39692723310E-02 -0.34361844103E-02  0.22631443737E-01  0.23232406930E-01  0.00000000000E+00 0.  1.
     999901    1    3    3    0    0 -0.12244195326E+00  0.43184168331E-01 -0.50749778446E-01  0.89097275173E+00  0.88000000000E+00 0. -1.
        -11    1    4    4    0    0  0.38703245508E-01 -0.14894671309E-01 -0.28949501832E-03  0.41474538872E-01  0.51100000000E-03 0. -1.
         11    1    4    4    0    0  0.79769435420E-01 -0.24853312611E-01  0.28407829728E-01  0.88250302469E-01  0.51100000000E-03 0.  1.
</event>
<event>
 8    1  0.1081309E+005  0.1043930E+01  0.7957747E-01            NaN
         13   -1    0    0    0    0  0.00000000000E+00  0.00000000000E+00  0.74505805969E-08  0.10566000000E+00  0.10566000000E+00 0.  1.
     999900   -1    0    0    0    0 -0.00000000000E+00 -0.00000000000E+00 -0.74505805969E-08  0.93827000000E+00  0.93827000000E+00 0. -1.
     999902    2    1    2    0    0  0.18980987313E-01 -0.11782300696E-01 -0.77325018773E-02  0.10202891017E+01  0.10200151758E+01 0.  0.
     999903    2    3    3    0    0 -0.54838944334E-01 -0.10840355764E+00 -0.44856041496E-01  0.13115288780E+00  0.20745466835E-01 0.  0.
         14    1    1    2    0    0 -0.18980987313E-01  0.11782300696E-01  0.77325018773E-02  0.23640898340E-01  0.00000000000E+00 0. -1.
     999901    1    3    3    0    0  0.73819931647E-01  0.96621256948E-01  0.37123539618E-01  0.88913621386E+00  0.88000000000E+00 0.  1.
        -11    1    4    4    0    0 -0.29181792884E-01 -0.51713569458E-01 -0.11274690166E-01  0.60442121583E-01  0.51100000000E-03 0. -1.
         11    1    4    4    0    0 -0.25657151450E-01 -0.56689988185E-01 -0.33581351329E-01  0.70710766218E-01  0.51100000000E-03 0.  1.
</event>
<event>
 8    1  0.1081309E+005  0.1043930E+01  0.7957747E-01            NaN
         13   -1    0    0    0    0  0.00000000000E+00  0.00000000000E+00  0.74505805969E-08  0.10566000000E+00  0.10566000000E+00 0. -1.
     999900   -1    0    0    0    0 -0.00000000000E+00 -0.00000000000E+00 -0.74505805969E-08  0.93827000000E+00  0.93827000000E+00 0. -1.
     999902    2    1    2    0    0  0.21028985400E-01  0.10775199558E-01 -0.19792330444E-02  0.10202183886E+01  0.10199428023E+01 0.  0.
     999903    2    3    3    0    0  0.13287055065E-01  0.11336373132E+00  0.63075774063E-01  0.13183981034E+00  0.19372684535E-01 0.  0.
         14    1    1    2    0    0 -0.21028985400E-01 -0.10775199558E-01  0.19792330444E-02  0.23711611416E-01  0.00000000000E+00 0.  1.
     999901    1    3    3    0    0  0.77419303357E-02 -0.10258853176E+00 -0.65055007108E-01  0.88837857824E+00  0.88000000000E+00 0. -1.
        -11    1    4    4    0    0 -0.11277244652E-02  0.71064859283E-01  0.38073827019E-01  0.80631032563E-01  0.51100000000E-03 0. -1.
         11    1    4    4    0    0  0.14414779530E-01  0.42298872036E-01  0.25001947044E-01  0.51208777777E-01  0.51100000000E-03 0.  1.
</event>
<event>
 8    1  0.1081309E+005  0.1043930E+01  0.7957747E-01            NaN
         13   -1    0    0    0    0  0.00000000000E+00  0.00000000000E+00  0.74505805969E-08  0.10566000000E+00  0.10566000000E+00 0. -1.
     999900   -1    0    0    0    0 -0.00000000000E+00 -0.00000000000E+00 -0.74505805969E-08  0.93827000000E+00  0.93827000000E+00 0. -1.
     999902    2    1    2    0    0 -0.14276952467E-01 -0.86265618253E-03 -0.12815851245E-02  0.10295697073E+01  0.10294695547E+01 0.  0.
     999903    2    3    3    0    0 -0.14286165052E-01 -0.11542526061E+00 -0.73910639522E-01  0.13917677716E+00  0.19501470885E-01 0.  0.
         14    1    1    2    0    0  0.14276952467E-01  0.86265618253E-03  0.12815851245E-02  0.14360292750E-01  0.00000000000E+00 0. -1.
     999901    1    3    3    0    0  0.92125848913E-05  0.11456260443E+00  0.72629054397E-01  0.89039293009E+00  0.88000000000E+00 0.  1.
        -11    1    4    4    0    0 -0.15931490129E-01 -0.81690610587E-01 -0.44456363225E-01  0.94359936350E-01  0.51100000000E-03 0. -1.
         11    1    4    4    0    0  0.16453250774E-02 -0.33734650022E-01 -0.29454276297E-01  0.44816840807E-01  0.51100000000E-03 0.  1.
</event>
<event>
 8    1  0.1081309E+005  0.1043930E+01  0.7957747E-01            NaN
         13   -1    0    0    0    0  0.00000000000E+00  0.00000000000E+00  0.74505805969E-08  0.10566000000E+00  0.10566000000E+00 0.  1.
     999900   -1    0    0    0    0 -0.00000000000E+00 -0.00000000000E+00 -0.74505805969E-08  0.93827000000E+00  0.93827000000E+00 0.  1.
     999902    2    1    2    0    0  0.18392032808E-01  0.12300314031E-01  0.77028587473E-02  0.10205014143E+01  0.10202324431E+01 0.  0.
     999903    2    3    3    0    0  0.96949147230E-01  0.56550844834E-01  0.70263630022E-01  0.13368509744E+00  0.18373687008E-01 0.  0.
         14    1    1    2    0    0 -0.18392032808E-01 -0.12300314031E-01 -0.77028587473E-02  0.23428585722E-01  0.00000000000E+00 0. -1.
     999901    1    3    3    0    0 -0.78557114423E-01 -0.44250530803E-01 -0.62560771275E-01  0.88681631684E+00  0.88000000000E+00 0.  1.
        -11    1    4    4    0    0  0.44127316841E-01  0.29296988671E-01  0.43296497158E-01  0.68413313207E-01  0.51100000000E-03 0. -1.
         11    1    4    4    0    0  0.52821830389E-01  0.27253856163E-01  0.26967132864E-01  0.65271784236E-01  0.51100000000E-03 0.  1.
</event>
<event>
 8    1  0.1081309E+005  0.1043930E+01  0.7957747E-01            NaN
         13   -1    0    0    0    0  0.00000000000E+00  0.00000000000E+00  0.74505805969E-08  0.10566000000E+00  0.10566000000E+00 0.  1.
     999900   -1    0    0    0    0 -0.00000000000E+00 -0.00000000000E+00 -0.74505805969E-08  0.93827000000E+00  0.93827000000E+00 0.  1.
     999902    2    1    2    0    0 -0.80673140613E-02 -0.18891187691E-01 -0.13005494542E-01  0.10196174227E+01  0.10193275171E+01 0.  0.
     999903    2    3    3    0    0 -0.10507781895E+00  0.66520615649E-01  0.28197529937E-01  0.12922205911E+00  0.20902141637E-01 0.  0.
         14    1    1    2    0    0  0.80673140613E-02  0.18891187691E-01  0.13005494542E-01  0.24312577338E-01  0.00000000000E+00 0. -1.
     999901    1    3    3    0    0  0.97010504886E-01 -0.85411803340E-01 -0.41203024479E-01  0.89039536355E+00  0.88000000000E+00 0.  1.
        -11    1    4    4    0    0 -0.72250033270E-01  0.46827794179E-01  0.29221726001E-01  0.90923484352E-01  0.51100000000E-03 0. -1.
         11    1    4    4    0    0 -0.32827785678E-01  0.19692821470E-01 -0.10241960641E-02  0.38298574759E-01  0.51100000000E-03 0.  1.
</event>
<event>
 8    1  0.1081309E+005  0.1043930E+01  0.7957747E-01            NaN
         13   -1    0    0    0    0  0.00000000000E+00  0.00000000000E+00  0.74505805969E-08  0.10566000000E+00  0.10566000000E+00 0.  1.
     999900   -1    0    0    0    0 -0.00000000000E+00 -0.00000000000E+00 -0.74505805969E-08  0.93827000000E+00  0.93827000000E+00 0. -1.
     999902    2    1    2    0    0  0.12968032106E-01  0.15262257921E-01 -0.13656373499E-01  0.10196894779E+01  0.10194013088E+01 0.  0.
     999903    2    3    3    0    0  0.10374595520E+00 -0.62851125554E-01 -0.45103055583E-01  0.13102124634E+00  0.20464461088E-01 0.  0.
         14    1    1    2    0    0 -0.12968032106E-01 -0.15262257921E-01  0.13656373499E-01  0.24240522079E-01  0.00000000000E+00 0.  1.
     999901    1    3    3    0    0 -0.90777923091E-01  0.78113383474E-01  0.31446682084E-01  0.88866823158E+00  0.88000000000E+00 0. -1.
        -11    1    4    4    0    0  0.35655548037E-01 -0.32497513622E-01 -0.21528805255E-01  0.52831402349E-01  0.51100000000E-03 0. -1.
         11    1    4    4    0    0  0.68090407160E-01 -0.30353611932E-01 -0.23574250327E-01  0.78189843996E-01  0.51100000000E-03 0.  1.
</event>
<event>
 8    1  0.1081309E+005  0.1043930E+01  0.7957747E-01            NaN
         13   -1    0    0    0    0  0.00000000000E+00  0.00000000000E+00  0.74505805969E-08  0.10566000000E+00  0.10566000000E+00 0. -1.
     999900   -1    0    0    0    0 -0.00000000000E+00 -0.00000000000E+00 -0.74505805969E-08  0.93827000000E+00  0.93827000000E+00 0. -1.
     999902    2    1    2    0    0 -0.11507843048E-01 -0.89523825189E-04 -0.20880830636E-01  0.10200878618E+01  0.10198091970E+01 0.  0.
     999903    2    3    3    0    0 -0.36868125591E-01  0.12231704059E+00  0.17242621913E-01  0.13043629597E+00  0.19889750908E-01 0.  0.
         14    1    1    2    0    0  0.11507843048E-01  0.89523825189E-04  0.20880830636E-01  0.23842138205E-01  0.00000000000E+00 0. -1.
     999901    1    3    3    0    0  0.25360282543E-01 -0.12240656442E+00 -0.38123452549E-01  0.88965156583E+00  0.88000000000E+00 0.  1.
        -11    1    4    4    0    0 -0.24019632866E-01  0.47294594632E-01  0.42277465184E-02  0.53215189618E-01  0.51100000000E-03 0. -1.
         11    1    4    4    0    0 -0.12848492725E-01  0.75022445963E-01  0.13014875395E-01  0.77221106351E-01  0.51100000000E-03 0.  1.
</event>
<event>
 8    1  0.1081309E+005  0.1043930E+01  0.7957747E-01            NaN
         13   -1    0    0    0    0  0.00000000000E+00  0.00000000000E+00  0.74505805969E-08  0.10566000000E+00  0.10566000000E+00 0. -1.
     999900   -1    0    0    0    0 -0.00000000000E+00 -0.00000000000E+00 -0.74505805969E-08  0.93827000000E+00  0.93827000000E+00 0. -1.
     999902    2    1    2    0    0  0.15687768517E-01  0.16886997024E-01 -0.57220307383E-02  0.10201809287E+01  0.10199044607E+01 0.  0.
     999903    2    3    3    0    0  0.56527942676E-01 -0.46528851483E-01 -0.10696270400E+00  0.13117071306E+00  0.20109539888E-01 0.  0.
         14    1    1    2    0    0 -0.15687768517E-01 -0.16886997024E-01  0.57220307383E-02  0.23749071252E-01  0.00000000000E+00 0. -1.
     999901    1    3    3    0    0 -0.40840174159E-01  0.63415848507E-01  0.10124067327E+00  0.88901021568E+00  0.88000000000E+00 0.  1.
        -11    1    4    4    0    0  0.48210221434E-01 -0.30572706079E-01 -0.89029499355E-01  0.10576118704E+00  0.51100000000E-03 0. -1.
         11    1    4    4    0    0  0.83177212423E-02 -0.15956145404E-01 -0.17933204649E-01  0.25409526025E-01  0.51100000000E-03 0.  1.
</event>
<event>
 8    1  0.1081309E+005  0.1043930E+01  0.7957747E-01            NaN
         13   -1    0    0    0    0  0.00000000000E+00  0.00000000000E+00  0.74505805969E-08  0.10566000000E+00  0.10566000000E+00 0. -1.
     999900   -1    0    0    0    0 -0.00000000000E+00 -0.00000000000E+00 -0.74505805969E-08  0.93827000000E+00  0.93827000000E+00 0. -1.
     999902    2    1    2    0    0 -0.18039217778E-01 -0.30257021582E-02  0.15253064348E-01  0.10201135304E+01  0.10198354724E+01 0.  0.
     999903    2    3    3    0    0 -0.37477153913E-01  0.79635734303E-01 -0.92613400293E-01  0.12946998744E+00  0.20948710969E-01 0.  0.
         14    1    1    2    0    0  0.18039217778E-01  0.30257021582E-02 -0.15253064348E-01  0.23816469587E-01  0.00000000000E+00 0.  1.
     999901    1    3    3    0    0  0.19437936135E-01 -0.82661436461E-01  0.10786646464E+00  0.89064354297E+00  0.88000000000E+00 0.  1.
        -11    1    4    4    0    0 -0.31427633414E-01  0.56265125474E-01 -0.54764012884E-01  0.84574338394E-01  0.51100000000E-03 0. -1.
         11    1    4    4    0    0 -0.60495204991E-02  0.23370608829E-01 -0.37849387409E-01  0.44895649049E-01  0.51100000000E-03 0.  1.
</event>
<event>
 8    1  0.1081309E+005  0.1043930E+01  0.7957747E-01            NaN
         13   -1    0    0    0    0  0.00000000000E+00  0.00000000000E+00  0.74505805969E-08  0.10566000000E+00  0.10566000000E+00 0. -1.
     999900   -1    0    0    0    0 -0.00000000000E+00 -0.00000000000E+00 -0.74505805969E-08  0.93827000000E+00  0.93827000000E+00 0.  1.
     999902    2    1    2    0    0  0.19672506225E-01 -0.10975696354E-01  0.61151163844E-02  0.10205875910E+01  0.10203206176E+01 0.  0.
     999903    2    3    3    0    0  0.41210358954E-01  0.78001472752E-01 -0.93731190348E-01  0.13022244076E+00  0.19743976183E-01 0.  0.
         14    1    1    2    0    0 -0.19672506225E-01  0.10975696354E-01 -0.61151163844E-02  0.23342409045E-01  0.00000000000E+00 0.  1.
     999901    1    3    3    0    0 -0.21537852728E-01 -0.88977169106E-01  0.99846306732E-01  0.89036515020E+00  0.88000000000E+00 0. -1.
        -11    1    4    4    0    0  0.24055782758E-01  0.45338572159E-01 -0.68184796888E-01  0.85344563138E-01  0.51100000000E-03 0.  1.
         11    1    4    4    0    0  0.17154576196E-01  0.32662900593E-01 -0.25546393460E-01  0.44877877617E-01  0.51100000000E-03 0. -1.
</event>
<event>
 8    1  0.1081309E+005  0.1043930E+01  0.7957747E-01            NaN
         13   -1    0    0    0    0  0.00000000000E+00  0.00000000000E+00  0.74505805969E-08  0.10566000000E+00  0.10566000000E+00 0.  1.
     999900   -1    0    0    0    0 -0.00000000000E+00 -0.00000000000E+00 -0.74505805969E-08  0.93827000000E+00  0.93827000000E+00 0.  1.
     999902    2    1    2    0    0  0.54122569497E-02 -0.11784960617E-01 -0.20075569710E-01  0.10200300770E+01  0.10197500437E+01 0.  0.
     999903    2    3    3    0    0 -0.22147897233E-02 -0.69523795222E-01 -0.11184544661E+00  0.13334317891E+00  0.20797500824E-01 0.  0.
         14    1    1    2    0    0 -0.54122569497E-02  0.11784960617E-01  0.20075569710E-01  0.23899923038E-01  0.00000000000E+00 0.  1.
     999901    1    3    3    0    0  0.76270466730E-02  0.57738834606E-01  0.91769876898E-01  0.88668689805E+00  0.88000000000E+00 0. -1.
        -11    1    4    4    0    0  0.26174213857E-02 -0.10374562773E-01 -0.32752777650E-01  0.34459947942E-01  0.51100000000E-03 0.  1.
         11    1    4    4    0    0 -0.48322111090E-02 -0.59149232449E-01 -0.79092668959E-01  0.98883230972E-01  0.51100000000E-03 0. -1.
</event>
<event>
 8    1  0.1081309E+005  0.1043930E+01  0.7957747E-01            NaN
         13   -1    0    0    0    0  0.00000000000E+00  0.00000000000E+00  0.74505805969E-08  0.10566000000E+00  0.10566000000E+00 0. -1.
     999900   -1    0    0    0    0 -0.00000000000E+00 -0.00000000000E+00 -0.74505805969E-08  0.93827000000E+00  0.93827000000E+00 0. -1.
     999902    2    1    2    0    0  0.35445249791E-02 -0.82099672957E-02 -0.21722043105E-01  0.10204392704E+01  0.10201688538E+01 0.  0.
     999903    2    3    3    0    0  0.45522664014E-01  0.10792952344E+00  0.50196099468E-01  0.12891093956E+00  0.19423876218E-01 0.  0.
         14    1    1    2    0    0 -0.35445249791E-02  0.82099672957E-02  0.21722043105E-01  0.23490729596E-01  0.00000000000E+00 0. -1.
     999901    1    3    3    0    0 -0.41978139035E-01 -0.11613949074E+00 -0.71918142573E-01  0.89152833084E+00  0.88000000000E+00 0.  1.
        -11    1    4    4    0    0  0.33394754562E-01  0.94336354964E-01  0.46343819471E-01  0.11028403431E+00  0.51100000000E-03 0. -1.
         11    1    4    4    0    0  0.12127909452E-01  0.13593168477E-01  0.38522799977E-02  0.18626905248E-01  0.51100000000E-03 0.  1.
</event>
<event>
 8    1  0.1081309E+005  0.1043930E+01  0.7957747E-01            NaN
         13   -1    0    0    0    0  0.00000000000E+00  0.00000000000E+00  0.74505805969E-08  0.10566000000E+00  0.10566000000E+00 0. -1.
     999900   -1    0    0    0    0 -0.00000000000E+00 -0.00000000000E+00 -0.74505805969E-08  0.93827000000E+00  0.93827000000E+00 0. -1.
     999902    2    1    2    0    0 -0.18993712979E-01  0.74464296112E-02 -0.12526688382E-01  0.10199899004E+01  0.10197089136E+01 0.  0.
     999903    2    3    3    0    0  0.70488530213E-01 -0.68536524385E-01 -0.82348733542E-01  0.12945320878E+00  0.17633243635E-01 0.  0.
         14    1    1    2    0    0  0.18993712979E-01 -0.74464296112E-02  0.12526688382E-01  0.23940099592E-01  0.00000000000E+00 0. -1.
     999901    1    3    3    0    0 -0.89482243193E-01  0.75982953996E-01  0.69822045160E-01  0.89053669163E+00  0.88000000000E+00 0.  1.
        -11    1    4    4    0    0  0.47381501770E-01 -0.37991270379E-01 -0.58533800394E-01  0.84349334582E-01  0.51100000000E-03 0.  1.
         11    1    4    4    0    0  0.23107028444E-01 -0.30545254006E-01 -0.23814933148E-01  0.45103874198E-01  0.51100000000E-03 0. -1.
</event>
<event>
 8    1  0.1081309E+005  0.1043930E+01  0.7957747E-01            NaN
         13   -1    0    0    0    0  0.00000000000E+00  0.00000000000E+00  0.74505805969E-08  0.10566000000E+00  0.10566000000E+00 0.  1.
     999900   -1    0    0    0    0 -0.00000000000E+00 -0.00000000000E+00 -0.74505805969E-08  0.93827000000E+00  0.93827000000E+00 0. -1.
     999902    2    1    2    0    0  0.21735740468E-01 -0.26899165782E-02  0.84544566886E-02  0.10204532902E+01  0.10201832000E+01 0.  0.
     999903    2    3    3    0    0 -0.93603825390E-01 -0.70800083101E-01 -0.48199965762E-01  0.12851610978E+00  0.20465235881E-01 0.  0.
         14    1    1    2    0    0 -0.21735740468E-01  0.26899165782E-02 -0.84544566886E-02  0.23476709795E-01  0.00000000000E+00 0. -1.
     999901    1    3    3    0    0  0.11533956586E+00  0.68110166522E-01  0.56654422450E-01  0.89193718042E+00  0.88000000000E+00 0.  1.
        -11    1    4    4    0    0 -0.62483042164E-01 -0.37902758881E-01 -0.22617367905E-01  0.76502000894E-01  0.51100000000E-03 0.  1.
         11    1    4    4    0    0 -0.31120783226E-01 -0.32897324220E-01 -0.25582597856E-01  0.52014108889E-01  0.51100000000E-03 0. -1.
</event>
<event>
 8    1  0.1081309E+005  0.1043930E+01  0.7957747E-01            NaN
         13   -1    0    0    0    0  0.00000000000E+00  0.00000000000E+00  0.74505805969E-08  0.10566000000E+00  0.10566000000E+00 0. -1.
     999900   -1    0    0    0    0 -0.00000000000E+00 -0.00000000000E+00 -0.74505805969E-08  0.93827000000E+00  0.93827000000E+00 0. -1.
     999902    2    1    2    0    0  0.22811543069E-01  0.95752577784E-02 -0.64647490754E-03  0.10191818690E+01  0.10188813533E+01 0.  0.
     999903    2    3    3    0    0 -0.78929345267E-01 -0.97177858616E-01 -0.31984759496E-02  0.12690727620E+00  0.20538957031E-01 0.  0.
         14    1    1    2    0    0 -0.22811543069E-01 -0.95752577784E-02  0.64647490754E-03  0.24748131011E-01  0.00000000000E+00 0.  1.
     999901    1    3    3    0    0  0.10174088834E+00  0.10675311639E+00  0.25520010421E-02  0.89227459278E+00  0.88000000000E+00 0.  1.
        -11    1    4    4    0    0 -0.28486246031E-02 -0.87721277522E-02  0.39619675557E-02  0.10051029566E-01  0.51100000000E-03 0.  1.
         11    1    4    4    0    0 -0.76080720664E-01 -0.88405730864E-01 -0.71604435053E-02  0.11685624664E+00  0.51100000000E-03 0. -1.
</event>
<event>
 8    1  0.1081309E+005  0.1043930E+01  0.7957747E-01            NaN
         13   -1    0    0    0    0  0.00000000000E+00  0.00000000000E+00  0.74505805969E-08  0.10566000000E+00  0.10566000000E+00 0. -1.
     999900   -1    0    0    0    0 -0.00000000000E+00 -0.00000000000E+00 -0.74505805969E-08  0.93827000000E+00  0.93827000000E+00 0. -1.
     999902    2    1    2    0    0  0.16347147361E-01 -0.42728956528E-02 -0.16385715615E-01  0.10203932513E+01  0.10201217617E+01 0.  0.
     999903    2    3    3    0    0 -0.31786272840E-03 -0.86325652707E-01 -0.98625032462E-01  0.13260178774E+00  0.20102679707E-01 0.  0.
         14    1    1    2    0    0 -0.16347147361E-01  0.42728956528E-02  0.16385715615E-01  0.23536748720E-01  0.00000000000E+00 0. -1.
     999901    1    3    3    0    0  0.16665010089E-01  0.82052757054E-01  0.82239316847E-01  0.88779146354E+00  0.88000000000E+00 0.  1.
        -11    1    4    4    0    0  0.27979463273E-02 -0.85254268278E-01 -0.94934778934E-01  0.12762833594E+00  0.51100000000E-03 0. -1.
         11    1    4    4    0    0 -0.31158090557E-02 -0.10713844289E-02 -0.36902535281E-02  0.49734517961E-02  0.51100000000E-03 0.  1.
</event>
<event>
 8    1  0.1081309E+005  0.1043930E+01  0.7957747E-01            NaN
         13   -1    0    0    0    0  0.00000000000E+00  0.00000000000E+00  0.74505805969E-08  0.10566000000E+00  0.10566000000E+00 0. -1.
     999900   -1    0    0    0    0 -0.00000000000E+00 -0.00000000000E+00 -0.74505805969E-08  0.93827000000E+00  0.93827000000E+00 0.  1.
     999902    2    1    2    0    0  0.46936475678E-02 -0.25941272445E-01 -0.86904583942E-02  0.10161720460E+01  0.10157928544E+01 0.  0.
     999903    2    3    3    0    0 -0.38740993706E-02 -0.11703317024E+00 -0.53592894060E-01  0.13028979148E+00  0.19785345288E-01 0.  0.
         14    1    1    2    0    0 -0.46936475678E-02  0.25941272445E-01  0.86904583942E-02  0.27757954007E-01  0.00000000000E+00 0.  1.
     999901    1    3    3    0    0  0.85677469384E-02  0.91091897793E-01  0.44902435666E-01  0.88588225451E+00  0.88000000000E+00 0. -1.
        -11    1    4    4    0    0 -0.36348879358E-02 -0.37748094586E-01 -0.27399494391E-01  0.46788080416E-01  0.51100000000E-03 0. -1.
         11    1    4    4    0    0 -0.23921143483E-03 -0.79285075652E-01 -0.26193399669E-01  0.83501711064E-01  0.51100000000E-03 0.  1.
</event>
<event>
 8    1  0.1081309E+005  0.1043930E+01  0.7957747E-01            NaN
         13   -1    0    0    0    0  0.00000000000E+00  0.00000000000E+00  0.74505805969E-08  0.10566000000E+00  0.10566000000E+00 0.  1.
     999900   -1    0    0    0    0 -0.00000000000E+00 -0.00000000000E+00 -0.74505805969E-08  0.93827000000E+00  0.93827000000E+00 0.  1.
     999902    2    1    2    0    0 -0.27837849170E-02  0.18991081714E-01 -0.13814081564E-01  0.10202817550E+01  0.10200076569E+01 0.  0.
     999903    2    3    3    0    0 -0.14893155559E-01  0.10749444048E+00  0.71997427750E-01  0.13160684451E+00  0.18970268902E-01 0.  0.
         14    1    1    2    0    0  0.27837849170E-02 -0.18991081714E-01  0.13814081564E-01  0.23648245021E-01  0.00000000000E+00 0. -1.
     999901    1    3    3    0    0  0.12109370642E-01 -0.88503358765E-01 -0.85811509313E-01  0.88867491047E+00  0.88000000000E+00 0.  1.
        -11    1    4    4    0    0 -0.10199027808E-01  0.19399260971E-01  0.15396900752E-01  0.26789497349E-01  0.51100000000E-03 0.  1.
         11    1    4    4    0    0 -0.46941277510E-02  0.88095179508E-01  0.56600526998E-01  0.10481734716E+00  0.51100000000E-03 0. -1.
</event>
<event>
 8    1  0.1081309E+005  0.1043930E+01  0.7957747E-01            NaN
         13   -1    0    0    0    0  0.00000000000E+00  0.00000000000E+00  0.74505805969E-08  0.10566000000E+00  0.10566000000E+00 0. -1.
     999900   -1    0    0    0    0 -0.00000000000E+00 -0.00000000000E+00 -0.74505805969E-08  0.93827000000E+00  0.93827000000E+00 0.  1.
     999902    2    1    2    0    0  0.29272114040E-02  0.37966710607E-02  0.22766368330E-01  0.10206643428E+01  0.10203991424E+01 0.  0.
     999903    2    3    3    0    0 -0.29078049197E-01  0.85657137253E-01 -0.89751592799E-01  0.12915676336E+00  0.21058086434E-01 0.  0.
         14    1    1    2    0    0 -0.29272114040E-02 -0.37966710607E-02 -0.22766368330E-01  0.23265657195E-01  0.00000000000E+00 0.  1.
     999901    1    3    3    0    0  0.32005260601E-01 -0.81860466192E-01  0.11251796113E+00  0.89150757945E+00  0.88000000000E+00 0. -1.
        -11    1    4    4    0    0 -0.47742650966E-02  0.70475512599E-02 -0.17986133688E-02  0.87153724547E-02  0.51100000000E-03 0. -1.
         11    1    4    4    0    0 -0.24303784100E-01  0.78609585993E-01 -0.87952979430E-01  0.12044139091E+00  0.51100000000E-03 0.  1.
</event>
<event>
 8    1  0.1081309E+005  0.1043930E+01  0.7957747E-01            NaN
         13   -1    0    0    0    0  0.00000000000E+00  0.00000000000E+00  0.74505805969E-08  0.10566000000E+00  0.10566000000E+00 0.  1.
     999900   -1    0    0    0    0 -0.00000000000E+00 -0.00000000000E+00 -0.74505805969E-08  0.93827000000E+00  0.93827000000E+00 0. -1.
     999902    2    1    2    0    0 -0.19899771152E-01  0.94701223565E-02  0.19339411161E-03  0.10218909095E+01  0.10216532236E+01 0.  0.
     999903    2    3    3    0    0 -0.29941816731E-01  0.11150224587E+00 -0.63962944921E-01  0.13361874807E+00  0.20819421006E-01 0.  0.
         14    1    1    2    0    0  0.19899771152E-01 -0.94701223565E-02 -0.19339411161E-03  0.22039090513E-01  0.00000000000E+00 0. -1.
     999901    1    3    3    0    0  0.10042045579E-01 -0.10203212351E+00  0.64156339032E-01  0.88827216142E+00  0.88000000000E+00 0.  1.
        -11    1    4    4    0    0 -0.50656940369E-02  0.33131864117E-01 -0.89758420572E-02  0.34701707992E-01  0.51100000000E-03 0.  1.
         11    1    4    4    0    0 -0.24876122694E-01  0.78370381749E-01 -0.54987102863E-01  0.98917040080E-01  0.51100000000E-03 0. -1.
</event>
<event>
 8    1  0.1081309E+005  0.1043930E+01  0.7957747E-01            NaN
         13   -1    0    0    0    0  0.00000000000E+00  0.00000000000E+00  0.74505805969E-08  0.10566000000E+00  0.10566000000E+00 0. -1.
     999900   -1    0    0    0    0 -0.00000000000E+00 -0.00000000000E+00 -0.74505805969E-08  0.93827000000E+00  0.93827000000E+00 0. -1.
     999902    2    1    2    0    0  0.10311119118E-01 -0.17180469313E-02  0.25567414912E-01  0.10163082048E+01  0.10159327752E+01 0.  0.
     999903    2    3    3    0    0  0.41637340494E-01  0.48005215077E-01 -0.10534248608E+00  0.12468544991E+00  0.20279379827E-01 0.  0.
         14    1    1    2    0    0 -0.10311119118E-01  0.17180469313E-02 -0.25567414912E-01  0.27621795163E-01  0.00000000000E+00 0.  1.
     999901    1    3    3    0    0 -0.31326221376E-01 -0.49723262008E-01  0.13090990100E+00  0.89162275493E+00  0.88000000000E+00 0.  1.
        -11    1    4    4    0    0  0.27245268152E-01  0.16306106709E-01 -0.46361362326E-01  0.56194579724E-01  0.51100000000E-03 0.  1.
         11    1    4    4    0    0  0.14392072342E-01  0.31699108369E-01 -0.58981123758E-01  0.68490870183E-01  0.51100000000E-03 0. -1.
</event>
<event>
 8    1  0.1081309E+005  0.1043930E+01  0.7957747E-01            NaN
         13   -1    0    0    0    0  0.00000000000E+00  0.00000000000E+00  0.74505805969E-08  0.10566000000E+00  0.10566000000E+00 0. -1.
     999900   -1    0    0    0    0 -0.00000000000E+00 -0.00000000000E+00 -0.74505805969E-08  0.93827000000E+00  0.93827000000E+00 0.  1.
     999902    2    1    2    0    0 -0.13100866810E-01  0.61286524438E-02  0.18493667747E-01  0.10204521628E+01  0.10201820464E+01 0.  0.
     999903    2    3    3    0    0  0.58798185870E-01  0.10155406152E+00 -0.51402634225E-01  0.12963176818E+00  0.19791676120E-01 0.  0.
         14    1    1    2    0    0  0.13100866810E-01 -0.61286524438E-02 -0.18493667747E-01  0.23477837181E-01  0.00000000000E+00 0.  1.
     999901    1    3    3    0    0 -0.71899052680E-01 -0.95425409077E-01  0.69896301972E-01  0.89082039464E+00  0.88000000000E+00 0. -1.
        -11    1    4    4    0    0  0.25597471184E-01  0.54716713276E-01 -0.35448998867E-01  0.70043143022E-01  0.51100000000E-03 0. -1.
         11    1    4    4    0    0  0.33200714686E-01  0.46837348244E-01 -0.15953635358E-01  0.59588625159E-01  0.51100000000E-03 0.  1.
</event>
<event>
 8    1  0.1081309E+005  0.1043930E+01  0.7957747E-01            NaN
         13   -1    0    0    0    0  0.00000000000E+00  0.00000000000E+00  0.74505805969E-08  0.10566000000E+00  0.10566000000E+00 0. -1.
     999900   -1    0    0    0    0 -0.00000000000E+00 -0.00000000000E+00 -0.74505805969E-08  0.93827000000E+00  0.93827000000E+00 0. -1.
     999902    2    1    2    0    0 -0.29978918293E-01 -0.13241214996E-01  0.12172637265E-01  0.10089694735E+01  0.10083636051E+01 0.  0.
     999903    2    3    3    0    0 -0.96640797821E-01  0.32877734450E-01 -0.63416465403E-01  0.12201712069E+00  0.21122036619E-01 0.  0.
         14    1    1    2    0    0  0.29978918293E-01  0.13241214996E-01 -0.12172637265E-01  0.34960526520E-01  0.00000000000E+00 0.  1.
     999901    1    3    3    0    0  0.66661879528E-01 -0.46118949445E-01  0.75589102668E-01  0.88695235279E+00  0.88000000000E+00 0.  1.
        -11    1    4    4    0    0 -0.82673807506E-01  0.34691604662E-01 -0.50514757687E-01  0.10290999828E+00  0.51100000000E-03 0. -1.
         11    1    4    4    0    0 -0.13966990315E-01 -0.18138702125E-02 -0.12901707717E-01  0.19107122405E-01  0.51100000000E-03 0.  1.
</event>
<event>
 8    1  0.1081309E+005  0.1043930E+01  0.7957747E-01            NaN
         13   -1    0    0    0    0  0.00000000000E+00  0.00000000000E+00  0.74505805969E-08  0.10566000000E+00  0.10566000000E+00 0.  1.
     999900   -1    0    0    0    0 -0.00000000000E+00 -0.00000000000E+00 -0.74505805969E-08  0.93827000000E+00  0.93827000000E+00 0. -1.
     999902    2    1    2    0    0 -0.90820470442E-04  0.11958266938E-01  0.20966329669E-01  0.10197929874E+01  0.10195073035E+01 0.  0.
     999903    2    3    3    0    0  0.98793004537E-01  0.73422019630E-01  0.43330668496E-01  0.13184255671E+00  0.18816541021E-01 0.  0.
         14    1    1    2    0    0  0.90820470442E-04 -0.11958266938E-01 -0.20966329669E-01  0.24137012580E-01  0.00000000000E+00 0. -1.
     999901    1    3    3    0    0 -0.98883825007E-01 -0.61463752691E-01 -0.22364338828E-01  0.88795043071E+00  0.88000000000E+00 0. -1.
        -11    1    4    4    0    0  0.87556428775E-01  0.61944364411E-01  0.31176732190E-01  0.11169369836E+00  0.51100000000E-03 0.  1.
         11    1    4    4    0    0  0.11236575762E-01  0.11477655219E-01  0.12153936306E-01  0.20148858352E-01  0.51100000000E-03 0. -1.
</event>
<event>
 8    1  0.1081309E+005  0.1043930E+01  0.7957747E-01            NaN
         13   -1    0    0    0    0  0.00000000000E+00  0.00000000000E+00  0.74505805969E-08  0.10566000000E+00  0.10566000000E+00 0. -1.
     999900   -1    0    0    0    0 -0.00000000000E+00 -0.00000000000E+00 -0.74505805969E-08  0.93827000000E+00  0.93827000000E+00 0.  1.
     999902    2    1    2    0    0 -0.22488077079E-01  0.73652074325E-02 -0.17109994190E-02  0.10202047516E+01  0.10199288445E+01 0.  0.
     999903    2    3    3    0    0  0.92203643995E-01 -0.84581618576E-01 -0.16748532851E-01  0.12788500114E+00  0.20457223611E-01 0.  0.
         14    1    1    2    0    0  0.22488077079E-01 -0.73652074325E-02  0.17109994190E-02  0.23725248371E-01  0.00000000000E+00 0.  1.
     999901    1    3    3    0    0 -0.11469172107E+00  0.91946826008E-01  0.15037533432E-01  0.89231975049E+00  0.88000000000E+00 0. -1.
        -11    1    4    4    0    0  0.30429175906E-01 -0.40331881309E-01 -0.26226227242E-02  0.50593820445E-01  0.51100000000E-03 0. -1.
         11    1    4    4    0    0  0.61774468089E-01 -0.44249737267E-01 -0.14125910126E-01  0.77291180698E-01  0.51100000000E-03 0.  1.
</event>
<event>
 8    1  0.1081309E+005  0.1043930E+01  0.7957747E-01            NaN
         13   -1    0    0    0    0  0.00000000000E+00  0.00000000000E+00  0.74505805969E-08  0.10566000000E+00  0.10566000000E+00 0. -1.
     999900   -1    0    0    0    0 -0.00000000000E+00 -0.00000000000E+00 -0.74505805969E-08  0.93827000000E+00  0.93827000000E+00 0. -1.
     999902    2    1    2    0    0 -0.45866029348E-04 -0.21264245785E-01 -0.12182766219E-01  0.10194230613E+01  0.10191284452E+01 0.  0.
     999903    2    3    3    0    0  0.97915652947E-01  0.73435796306E-01  0.31682274469E-01  0.12785775298E+00  0.19066914048E-01 0.  0.
         14    1    1    2    0    0  0.45866029348E-04  0.21264245785E-01  0.12182766219E-01  0.24506938716E-01  0.00000000000E+00 0.  1.
     999901    1    3    3    0    0 -0.97961518976E-01 -0.94700042090E-01 -0.43865040687E-01  0.89156530830E+00  0.88000000000E+00 0.  1.
        -11    1    4    4    0    0  0.27568197518E-01  0.12083951423E-01  0.12313703088E-01  0.32525617613E-01  0.51100000000E-03 0. -1.
         11    1    4    4    0    0  0.70347455428E-01  0.61351844883E-01  0.19368571381E-01  0.95332135370E-01  0.51100000000E-03 0.  1.
</event>
<event>
 8    1  0.1081309E+005  0.1043930E+01  0.7957747E-01            NaN
         13   -1    0    0    0    0  0.00000000000E+00  0.00000000000E+00  0.74505805969E-08  0.10566000000E+00  0.10566000000E+00 0.  1.
     999900   -1    0    0    0    0 -0.00000000000E+00 -0.00000000000E+00 -0.74505805969E-08  0.93827000000E+00  0.93827000000E+00 0.  1.
     999902    2    1    2    0    0  0.11322176122E-01 -0.11188710372E-01  0.18271564661E-01  0.10196971919E+01  0.10194092084E+01 0.  0.
     999903    2    3    3    0    0 -0.92032084284E-01 -0.87094417063E-01  0.23850767835E-01  0.13038571277E+00  0.19396725164E-01 0.  0.
         14    1    1    2    0    0 -0.11322176122E-01  0.11188710372E-01 -0.18271564661E-01  0.24232808072E-01  0.00000000000E+00 0. -1.
     999901    1    3    3    0    0  0.10335426041E+00  0.75905706691E-01 -0.55792031741E-02  0.88931147916E+00  0.88000000000E+00 0. -1.
        -11    1    4    4    0    0 -0.30434435004E-01 -0.18702561015E-01  0.11422987316E-01  0.37507151088E-01  0.51100000000E-03 0. -1.
         11    1    4    4    0    0 -0.61597649280E-01 -0.68391856048E-01  0.12427780519E-01  0.92878561682E-01  0.51100000000E-03 0.  1.
</event>
<event>
 8    1  0.1081309E+005  0.1043930E+01  0.7957747E-01            NaN
         13   -1    0    0    0    0  0.00000000000E+00  0.00000000000E+00  0.74505805969E-08  0.10566000000E+00  0.10566000000E+00 0. -1.
     999900   -1    0    0    0    0 -0.00000000000E+00 -0.00000000000E+00 -0.74505805969E-08  0.93827000000E+00  0.93827000000E+00 0.  1.
     999902    2    1    2    0    0  0.11166529151E-01 -0.19426235332E-01 -0.83582460589E-02  0.10200149363E+01  0.10197345439E+01 0.  0.
     999903    2    3    3    0    0  0.45163632492E-01  0.10550105432E-02  0.12002573219E+00  0.12981398693E+00  0.20115368959E-01 0.  0.
         14    1    1    2    0    0 -0.11166529151E-01  0.19426235332E-01  0.83582460589E-02  0.23915063655E-01  0.00000000000E+00 0. -1.
     999901    1    3    3    0    0 -0.33997103341E-01 -0.20481245875E-01 -0.12838397825E+00  0.89020094941E+00  0.88000000000E+00 0.  1.
        -11    1    4    4    0    0  0.23061675167E-01  0.10167800681E-01  0.69067459596E-01  0.73524146566E-01  0.51100000000E-03 0. -1.
         11    1    4    4    0    0  0.22101957325E-01 -0.91127901379E-02  0.50958272592E-01  0.56289840364E-01  0.51100000000E-03 0.  1.
</event>
<event>
 8    1  0.1081309E+005  0.1043930E+01  0.7957747E-01            NaN
         13   -1    0    0    0    0  0.00000000000E+00  0.00000000000E+00  0.74505805969E-08  0.10566000000E+00  0.10566000000E+00 0. -1.
     999900   -1    0    0    0    0 -0.00000000000E+00 -0.00000000000E+00 -0.74505805969E-08  0.93827000000E+00  0.93827000000E+00 0.  1.
     999902    2    1    2    0    0  0.15453785215E-02  0.21100497592E-01 -0.10136975726E-01  0.10204698749E+01  0.10202001706E+01 0.  0.
     999903    2    3    3    0    0 -0.30428566375E-01 -0.69325151500E-01  0.10154929719E+00  0.12824066962E+00  0.20038345814E-01 0.  0.
         14    1    1    2    0    0 -0.15453785215E-02 -0.21100497592E-01  0.10136975726E-01  0.23460125112E-01  0.00000000000E+00 0. -1.
     999901    1    3    3    0    0  0.31973944897E-01  0.90425649092E-01 -0.11168627292E+00  0.89222920526E+00  0.88000000000E+00 0.  1.
        -11    1    4    4    0    0 -0.10281926657E-01 -0.45198659714E-01  0.67650053521E-01  0.82008705136E-01  0.51100000000E-03 0.  1.
         11    1    4    4    0    0 -0.20146639718E-01 -0.24126491787E-01  0.33899243673E-01  0.46231964488E-01  0.51100000000E-03 0. -1.
</event>
<event>
 8    1  0.1081309E+005  0.1043930E+01  0.7957747E-01            NaN
         13   -1    0    0    0    0  0.00000000000E+00  0.00000000000E+00  0.74505805969E-08  0.10566000000E+00  0.10566000000E+00 0.  1.
     999900   -1    0    0    0    0 -0.00000000000E+00 -0.00000000000E+00 -0.74505805969E-08  0.93827000000E+00  0.93827000000E+00 0.  1.
     999902    2    1    2    0    0  0.12692856995E-02  0.71723564370E-02  0.23156026824E-01  0.10196554174E+01  0.10193664281E+01 0.  0.
     999903    2    3    3    0    0 -0.12613412964E+00  0.14066944936E-01 -0.16631463807E-01  0.12956429283E+00  0.20064964203E-01 0.  0.
         14    1    1    2    0    0 -0.12692856995E-02 -0.71723564370E-02 -0.23156026824E-01  0.24274582619E-01  0.00000000000E+00 0. -1.
     999901    1    3    3    0    0  0.12740341534E+00 -0.68945884992E-02  0.39787490631E-01  0.89009112455E+00  0.88000000000E+00 0. -1.
        -11    1    4    4    0    0 -0.66295699629E-01  0.15052335197E-01 -0.23013940629E-02  0.68023893742E-01  0.51100000000E-03 0. -1.
         11    1    4    4    0    0 -0.59838430012E-01 -0.98539026045E-03 -0.14330069744E-01  0.61540399090E-01  0.51100000000E-03 0.  1.
</event>
<event>
 8    1  0.1081309E+005  0.1043930E+01  0.7957747E-01            NaN
         13   -1    0    0    0    0  0.00000000000E+00  0.00000000000E+00  0.74505805969E-08  0.10566000000E+00  0.10566000000E+00 0. -1.
     999900   -1    0    0    0    0 -0.00000000000E+00 -0.00000000000E+00 -0.74505805969E-08  0.93827000000E+00  0.93827000000E+00 0. -1.
     999902    2    1    2    0    0 -0.11725124571E-01 -0.19961803346E-01  0.31466691523E-02  0.10205664886E+01  0.10202990267E+01 0.  0.
     999903    2    3    3    0    0 -0.49174411187E-01  0.10447900850E+00 -0.54308144159E-01  0.12916925934E+00  0.20033399700E-01 0.  0.
         14    1    1    2    0    0  0.11725124571E-01  0.19961803346E-01 -0.31466691523E-02  0.23363511418E-01  0.00000000000E+00 0.  1.
     999901    1    3    3    0    0  0.37449286616E-01 -0.12444081185E+00  0.57454813311E-01  0.89139722924E+00  0.88000000000E+00 0.  1.
        -11    1    4    4    0    0 -0.37062104481E-01  0.73833568901E-01 -0.48212441941E-01  0.95654044160E-01  0.51100000000E-03 0. -1.
         11    1    4    4    0    0 -0.12112306706E-01  0.30645439603E-01 -0.60957022175E-02  0.33515215183E-01  0.51100000000E-03 0.  1.
</event>
<event>
 8    1  0.1081309E+005  0.1043930E+01  0.7957747E-01            NaN
         13   -1    0    0    0    0  0.00000000000E+00  0.00000000000E+00  0.74505805969E-08  0.10566000000E+00  0.10566000000E+00 0.  1.
     999900   -1    0    0    0    0 -0.00000000000E+00 -0.00000000000E+00 -0.74505805969E-08  0.93827000000E+00  0.93827000000E+00 0. -1.
     999902    2    1    2    0    0  0.12786373177E-01  0.85922478558E-02  0.18340570096E-01  0.10199780779E+01  0.10196968102E+01 0.  0.
     999903    2    3    3    0    0 -0.10820327890E+00 -0.35558513856E-01 -0.54318072298E-01  0.12764010155E+00  0.19214189386E-01 0.  0.
         14    1    1    2    0    0 -0.12786373177E-01 -0.85922478558E-02 -0.18340570096E-01  0.23951922129E-01  0.00000000000E+00 0. -1.
     999901    1    3    3    0    0  0.12098965207E+00  0.44150761712E-01  0.72658642394E-01  0.89233797632E+00  0.88000000000E+00 0.  1.
        -11    1    4    4    0    0 -0.56549206271E-01 -0.98083317975E-02 -0.32329107363E-01  0.65874489801E-01  0.51100000000E-03 0. -1.
         11    1    4    4    0    0 -0.51654072626E-01 -0.25750182059E-01 -0.21988964934E-01  0.61765611750E-01  0.51100000000E-03 0.  1.
</event>
<event>
 8    1  0.1081309E+005  0.1043930E+01  0.7957747E-01            NaN
         13   -1    0    0    0    0  0.00000000000E+00  0.00000000000E+00  0.74505805969E-08  0.10566000000E+00  0.10566000000E+00 0.  1.
     999900   -1    0    0    0    0 -0.00000000000E+00 -0.00000000000E+00 -0.74505805969E-08  0.93827000000E+00  0.93827000000E+00 0. -1.
     999902    2    1    2    0    0  0.14343610879E-01 -0.10442674916E-01  0.14210471614E-01  0.10211983891E+01  0.10209453578E+01 0.  0.
     999903    2    3    3    0    0 -0.88321184215E-01 -0.94513464060E-01 -0.81107749939E-03  0.13112333342E+00  0.21429984834E-01 0.  0.
         14    1    1    2    0    0 -0.14343610879E-01  0.10442674916E-01 -0.14210471614E-01  0.22731610940E-01  0.00000000000E+00 0. -1.
     999901    1    3    3    0    0  0.10266479509E+00  0.84070789145E-01  0.15021549113E-01  0.89007505564E+00  0.88000000000E+00 0.  1.
        -11    1    4    4    0    0 -0.17147399876E-01 -0.13356049505E-01  0.71415646067E-02  0.22884065349E-01  0.51100000000E-03 0.  1.
         11    1    4    4    0    0 -0.71173784339E-01 -0.81157414555E-01 -0.79526421061E-02  0.10823926807E+00  0.51100000000E-03 0. -1.
</event>
<event>
 8    1  0.1081309E+005  0.1043930E+01  0.7957747E-01            NaN
         13   -1    0    0    0    0  0.00000000000E+00  0.00000000000E+00  0.74505805969E-08  0.10566000000E+00  0.10566000000E+00 0. -1.
     999900   -1    0    0    0    0 -0.00000000000E+00 -0.00000000000E+00 -0.74505805969E-08  0.93827000000E+00  0.93827000000E+00 0.  1.
     999902    2    1    2    0    0 -0.10421083924E-01  0.46150122314E-02  0.23947184270E-01  0.10174089713E+01  0.10170632478E+01 0.  0.
     999903    2    3    3    0    0  0.86841158698E-02  0.10611354136E+00 -0.65706842081E-01  0.12684465330E+00  0.20896876498E-01 0.  0.
         14    1    1    2    0    0  0.10421083924E-01 -0.46150122314E-02 -0.23947184270E-01  0.26521028685E-01  0.00000000000E+00 0.  1.
     999901    1    3    3    0    0 -0.19105199794E-01 -0.10149852913E+00  0.89654026351E-01  0.89056431801E+00  0.88000000000E+00 0. -1.
        -11    1    4    4    0    0 -0.21479994421E-02  0.18996105360E-01 -0.20730699515E-01  0.28204413552E-01  0.51100000000E-03 0. -1.
         11    1    4    4    0    0  0.10832115312E-01  0.87117435998E-01 -0.44976142566E-01  0.98640239752E-01  0.51100000000E-03 0.  1.
</event>
<event>
 8    1  0.1081309E+005  0.1043930E+01  0.7957747E-01            NaN
         13   -1    0    0    0    0  0.00000000000E+00  0.00000000000E+00  0.74505805969E-08  0.10566000000E+00  0.10566000000E+00 0.  1.
     999900   -1    0    0    0    0 -0.00000000000E+00 -0.00000000000E+00 -0.74505805969E-08  0.93827000000E+00  0.93827000000E+00 0.  1.
     999902    2    1    2    0    0  0.23798397713E-01 -0.44763348176E-02 -0.11459816320E-01  0.10171395409E+01  0.10167866625E+01 0.  0.
     999903    2    3    3    0    0 -0.89623552307E-01 -0.77191823833E-01 -0.40244344540E-01  0.12642037635E+00  0.19275515388E-01 0.  0.
         14    1    1    2    0    0 -0.23798397713E-01  0.44763348176E-02  0.11459816320E-01  0.26790459070E-01  0.00000000000E+00 0.  1.
     999901    1    3    3    0    0  0.11342195002E+00  0.72715489016E-01  0.28784528220E-01  0.89071916458E+00  0.88000000000E+00 0. -1.
        -11    1    4    4    0    0 -0.66526379927E-01 -0.46888548922E-01 -0.31849834674E-01  0.87401191845E-01  0.51100000000E-03 0.  1.
         11    1    4    4    0    0 -0.23097172380E-01 -0.30303274911E-01 -0.83945098654E-02  0.39019184502E-01  0.51100000000E-03 0. -1.
</event>
<event>
 8    1  0.1081309E+005  0.1043930E+01  0.7957747E-01            NaN
         13   -1    0    0    0    0  0.00000000000E+00  0.00000000000E+00  0.74505805969E-08  0.10566000000E+00  0.10566000000E+00 0.  1.
     999900   -1    0    0    0    0 -0.00000000000E+00 -0.00000000000E+00 -0.74505805969E-08  0.93827000000E+00  0.93827000000E+00 0.  1.
     999902    2    1    2    0    0  0.20392932852E-01 -0.27647937429E-02  0.11271982302E-01  0.10204656999E+01  0.10201958985E+01 0.  0.
     999903    2    3    3    0    0 -0.10856330320E-01 -0.94355478897E-01 -0.86174907043E-01  0.12981354203E+00  0.20115287325E-01 0.  0.
         14    1    1    2    0    0 -0.20392932852E-01  0.27647937429E-02 -0.11271982302E-01  0.23464300112E-01  0.00000000000E+00 0. -1.
     999901    1    3    3    0    0  0.31249263172E-01  0.91590685155E-01  0.97446889345E-01  0.89065215786E+00  0.88000000000E+00 0. -1.
        -11    1    4    4    0    0 -0.14752040698E-01 -0.57012974227E-01 -0.45220633074E-01  0.74251388617E-01  0.51100000000E-03 0.  1.
         11    1    4    4    0    0  0.38957103775E-02 -0.37342504670E-01 -0.40954273969E-01  0.55562153411E-01  0.51100000000E-03 0. -1.
</event>
<event>
 8    1  0.1081309E+005  0.1043930E+01  0.7957747E-01            NaN
         13   -1    0    0    0    0  0.00000000000E+00  0.00000000000E+00  0.74505805969E-08  0.10566000000E+00  0.10566000000E+00 0. -1.
     999900   -1    0    0    0    0 -0.00000000000E+00 -0.00000000000E+00 -0.74505805969E-08  0.93827000000E+00  0.93827000000E+00 0. -1.
     999902    2    1    2    0    0  0.88207835755E-02 -0.18381492692E-01  0.32229522970E-02  0.10232884662E+01  0.10230802569E+01 0.  0.
     999903    2    3    3    0    0  0.99369563764E-01 -0.58757063244E-01  0.67631844358E-01  0.13538206703E+00  0.20676919955E-01 0.  0.
         14    1    1    2    0    0 -0.88207835755E-02  0.18381492692E-01 -0.32229522970E-02  0.20641533809E-01  0.00000000000E+00 0.  1.
     999901    1    3    3    0    0 -0.90548780189E-01  0.40375570552E-01 -0.64408892061E-01  0.88790639916E+00  0.88000000000E+00 0. -1.
        -11    1    4    4    0    0  0.50609107328E-01 -0.19787923595E-01  0.37815482932E-01  0.66205102032E-01  0.51100000000E-03 0.  1.
         11    1    4    4    0    0  0.48760456436E-01 -0.38969139649E-01  0.29816361426E-01  0.69176965000E-01  0.51100000000E-03 0. -1.
</event>
<event>
 8    1  0.1081309E+005  0.1043930E+01  0.7957747E-01            NaN
         13   -1    0    0    0    0  0.00000000000E+00  0.00000000000E+00  0.74505805969E-08  0.10566000000E+00  0.10566000000E+00 0.  1.
     999900   -1    0    0    0    0 -0.00000000000E+00 -0.00000000000E+00 -0.74505805969E-08  0.93827000000E+00  0.93827000000E+00 0. -1.
     999902    2    1    2    0    0 -0.21329819964E-01 -0.47223917329E-02  0.97146066143E-02  0.10200210940E+01  0.10197408477E+01 0.  0.
     999903    2    3    3    0    0 -0.40483932331E-01  0.11993781997E+00 -0.26558217119E-01  0.13028924333E+00  0.15681791802E-01 0.  0.
         14    1    1    2    0    0  0.21329819964E-01  0.47223917329E-02 -0.97146066143E-02  0.23908905977E-01  0.00000000000E+00 0. -1.
     999901    1    3    3    0    0  0.19154112368E-01 -0.12466021170E+00  0.36272823733E-01  0.88973185070E+00  0.88000000000E+00 0.  1.
        -11    1    4    4    0    0 -0.26953011822E-01  0.84005241177E-01 -0.25655980060E-01  0.91879463567E-01  0.51100000000E-03 0.  1.
         11    1    4    4    0    0 -0.13530920510E-01  0.35932578792E-01 -0.90223705886E-03  0.38409779760E-01  0.51100000000E-03 0. -1.
</event>
<event>
 8    1  0.1081309E+005  0.1043930E+01  0.7957747E-01            NaN
         13   -1    0    0    0    0  0.00000000000E+00  0.00000000000E+00  0.74505805969E-08  0.10566000000E+00  0.10566000000E+00 0. -1.
     999900   -1    0    0    0    0 -0.00000000000E+00 -0.00000000000E+00 -0.74505805969E-08  0.93827000000E+00  0.93827000000E+00 0. -1.
     999902    2    1    2    0    0  0.78437729424E-02 -0.87314744339E-02  0.25073984817E-01  0.10162448391E+01  0.10158676611E+01 0.  0.
     999903    2    3    3    0    0  0.55723592943E-01  0.37556798416E-01  0.10680893671E+00  0.12995161238E+00  0.31042562388E-01 0.  0.
         14    1    1    2    0    0 -0.78437729424E-02  0.87314744339E-02 -0.25073984817E-01  0.27685160905E-01  0.00000000000E+00 0.  1.
     999901    1    3    3    0    0 -0.47879820001E-01 -0.46288272850E-01 -0.81734951896E-01  0.88629322672E+00  0.88000000000E+00 0.  1.
        -11    1    4    4    0    0  0.25099978190E-01  0.26259690110E-01  0.32328096297E-01  0.48630722398E-01  0.51100000000E-03 0.  1.
         11    1    4    4    0    0  0.30623614753E-01  0.11297108306E-01  0.74480840416E-01  0.81320889978E-01  0.51100000000E-03 0. -1.
</event>
<event>
 8    1  0.1081309E+005  0.1043930E+01  0.7957747E-01            NaN
         13   -1    0    0    0    0  0.00000000000E+00  0.00000000000E+00  0.74505805969E-08  0.10566000000E+00  0.10566000000E+00 0.  1.
     999900   -1    0    0    0    0 -0.00000000000E+00 -0.00000000000E+00 -0.74505805969E-08  0.93827000000E+00  0.93827000000E+00 0.  1.
     999902    2    1    2    0    0 -0.21207146867E-01  0.91350704447E-02 -0.52365208518E-02  0.10202527168E+01  0.10199779372E+01 0.  0.
     999903    2    3    3    0    0  0.43697897282E-01 -0.28365271258E-01 -0.11744133198E+00  0.12996688626E+00  0.19617090167E-01 0.  0.
         14    1    1    2    0    0  0.21207146867E-01 -0.91350704447E-02  0.52365208518E-02  0.23677283224E-01  0.00000000000E+00 0.  1.
     999901    1    3    3    0    0 -0.64905044148E-01  0.37500341703E-01  0.11220481112E+00  0.89028583052E+00  0.88000000000E+00 0. -1.
        -11    1    4    4    0    0  0.29172880963E-01 -0.28938079044E-01 -0.88539713379E-01  0.97611532970E-01  0.51100000000E-03 0.  1.
         11    1    4    4    0    0  0.14525016318E-01  0.57280778613E-03 -0.28901618596E-01  0.32355353287E-01  0.51100000000E-03 0. -1.
</event>
<event>
 8    1  0.1081309E+005  0.1043930E+01  0.7957747E-01            NaN
         13   -1    0    0    0    0  0.00000000000E+00  0.00000000000E+00  0.74505805969E-08  0.10566000000E+00  0.10566000000E+00 0. -1.
     999900   -1    0    0    0    0 -0.00000000000E+00 -0.00000000000E+00 -0.74505805969E-08  0.93827000000E+00  0.93827000000E+00 0.  1.
     999902    2    1    2    0    0  0.13402025477E-01  0.12425731091E-02 -0.18064820266E-01  0.10214023280E+01  0.10211538668E+01 0.  0.
     999903    2    3    3    0    0 -0.72466745749E-01  0.52455082166E-02  0.10439791567E+00  0.12877329471E+00  0.20116959005E-01 0.  0.
         14    1    1    2    0    0 -0.13402025477E-01 -0.12425731091E-02  0.18064820266E-01  0.22527672007E-01  0.00000000000E+00 0. -1.
     999901    1    3    3    0    0  0.85868771225E-01 -0.40029351075E-02 -0.12246273593E+00  0.89262903328E+00  0.88000000000E+00 0. -1.
        -11    1    4    4    0    0 -0.35880174702E-01 -0.10949171415E-02  0.67332323970E-01  0.76305234109E-01  0.51100000000E-03 0.  1.
         11    1    4    4    0    0 -0.36586571046E-01  0.63404253581E-02  0.37065591698E-01  0.52468060604E-01  0.51100000000E-03 0. -1.
</event>
<event>
 8    1  0.1081309E+005  0.1043930E+01  0.7957747E-01            NaN
         13   -1    0    0    0    0  0.00000000000E+00  0.00000000000E+00  0.74505805969E-08  0.10566000000E+00  0.10566000000E+00 0.  1.
     999900   -1    0    0    0    0 -0.00000000000E+00 -0.00000000000E+00 -0.74505805969E-08  0.93827000000E+00  0.93827000000E+00 0. -1.
     999902    2    1    2    0    0  0.16293509191E-01  0.11326545846E-01 -0.17225162302E-01  0.10176531033E+01  0.10173137979E+01 0.  0.
     999903    2    3    3    0    0  0.52403794026E-01  0.11546595991E+00  0.20207695069E-01  0.12998751931E+00  0.20244967514E-01 0.  0.
         14    1    1    2    0    0 -0.16293509191E-01 -0.11326545846E-01  0.17225162302E-01  0.26276896675E-01  0.00000000000E+00 0. -1.
     999901    1    3    3    0    0 -0.36110284836E-01 -0.10413941407E+00 -0.37432857371E-01  0.88766558401E+00  0.88000000000E+00 0. -1.
        -11    1    4    4    0    0  0.29374517139E-01  0.42266375899E-01  0.46104490481E-02  0.51680036283E-01  0.51100000000E-03 0. -1.
         11    1    4    4    0    0  0.23029276888E-01  0.73199584013E-01  0.15597246021E-01  0.78307483027E-01  0.51100000000E-03 0.  1.
</event>
<event>
 8    1  0.1081309E+005  0.1043930E+01  0.7957747E-01            NaN
         13   -1    0    0    0    0  0.00000000000E+00  0.00000000000E+00  0.74505805969E-08  0.10566000000E+00  0.10566000000E+00 0.  1.
     999900   -1    0    0    0    0 -0.00000000000E+00 -0.00000000000E+00 -0.74505805969E-08  0.93827000000E+00  0.93827000000E+00 0.  1.
     999902    2    1    2    0    0 -0.13710427937E-01  0.18676168022E-01 -0.19170450300E-02  0.10206824163E+01  0.10204176325E+01 0.  0.
     999903    2    3    3    0    0  0.22956105612E-01  0.12952225819E+00  0.82987123725E-03  0.13296690110E+00  0.19403864279E-01 0.  0.
         14    1    1    2    0    0  0.13710427937E-01 -0.18676168022E-01  0.19170450300E-02  0.23247583699E-01  0.00000000000E+00 0.  1.
     999901    1    3    3    0    0 -0.36666533549E-01 -0.11084609017E+00 -0.27469162673E-02  0.88771551521E+00  0.88000000000E+00 0. -1.
        -11    1    4    4    0    0  0.17620611192E-01  0.60695971667E-01 -0.65326868203E-02  0.63540727361E-01  0.51100000000E-03 0.  1.
         11    1    4    4    0    0  0.53354944198E-02  0.68826286523E-01  0.73625580575E-02  0.69426173734E-01  0.51100000000E-03 0. -1.
</event>
<event>
 8    1  0.1081309E+005  0.1043930E+01  0.7957747E-01            NaN
         13   -1    0    0    0    0  0.00000000000E+00  0.00000000000E+00  0.74505805969E-08  0.10566000000E+00  0.10566000000E+00 0. -1.
     999900   -1    0    0    0    0 -0.00000000000E+00 -0.00000000000E+00 -0.74505805969E-08  0.93827000000E+00  0.93827000000E+00 0. -1.
     999902    2    1    2    0    0 -0.38127916674E-02  0.19567899677E-01 -0.12995495300E-01  0.10201324586E+01  0.10198548476E+01 0.  0.
     999903    2    3    3    0    0 -0.69580120277E-01 -0.99801823947E-01 -0.38715219987E-01  0.12926996829E+00  0.20249919529E-01 0.  0.
         14    1    1    2    0    0  0.38127916674E-02 -0.19567899677E-01  0.12995495300E-01  0.23797541389E-01  0.00000000000E+00 0.  1.
     999901    1    3    3    0    0  0.65767328610E-01  0.11936972362E+00  0.25719724687E-01  0.89086249033E+00  0.88000000000E+00 0.  1.
        -11    1    4    4    0    0 -0.23840369224E-01 -0.20640240310E-01 -0.56062238018E-02  0.32032383476E-01  0.51100000000E-03 0.  1.
         11    1    4    4    0    0 -0.45739751053E-01 -0.79161583637E-01 -0.33108996185E-01  0.97237584810E-01  0.51100000000E-03 0. -1.
</event>
<event>
 8    1  0.1081309E+005  0.1043930E+01  0.7957747E-01            NaN
         13   -1    0    0    0    0  0.00000000000E+00  0.00000000000E+00  0.74505805969E-08  0.10566000000E+00  0.10566000000E+00 0. -1.
     999900   -1    0    0    0    0 -0.00000000000E+00 -0.00000000000E+00 -0.74505805969E-08  0.93827000000E+00  0.93827000000E+00 0.  1.
     999902    2    1    2    0    0  0.18324945420E-01  0.43222152630E-02 -0.14666662795E-01  0.10200637861E+01  0.10197845515E+01 0.  0.
     999903    2    3    3    0    0 -0.35378785523E-01 -0.11258257958E+00  0.46724778238E-01  0.12859324209E+00  0.20652392580E-01 0.  0.
         14    1    1    2    0    0 -0.18324945420E-01 -0.43222152630E-02  0.14666662795E-01  0.23866213922E-01  0.00000000000E+00 0. -1.
     999901    1    3    3    0    0  0.53703730943E-01  0.11690479484E+00 -0.61391441033E-01  0.89147054399E+00  0.88000000000E+00 0.  1.
        -11    1    4    4    0    0 -0.18098362682E-01 -0.78022930698E-01  0.23346778478E-01  0.83429381112E-01  0.51100000000E-03 0.  1.
         11    1    4    4    0    0 -0.17280422841E-01 -0.34559648880E-01  0.23377999760E-01  0.45163860973E-01  0.51100000000E-03 0. -1.
</event>
<event>
 8    1  0.1081309E+005  0.1043930E+01  0.7957747E-01            NaN
         13   -1    0    0    0    0  0.00000000000E+00  0.00000000000E+00  0.74505805969E-08  0.10566000000E+00  0.10566000000E+00 0.  1.
     999900   -1    0    0    0    0 -0.00000000000E+00 -0.00000000000E+00 -0.74505805969E-08  0.93827000000E+00  0.93827000000E+00 0. -1.
     999902    2    1    2    0    0  0.13180738982E-01  0.12959713562E-01 -0.13960340851E-01  0.10207658645E+01  0.10205030000E+01 0.  0.
     999903    2    3    3    0    0  0.88253102432E-01  0.93429536240E-02 -0.97742933121E-01  0.13359707366E+00  0.20459624753E-01 0.  0.
         14    1    1    2    0    0 -0.13180738982E-01 -0.12959713562E-01  0.13960340851E-01  0.23164135478E-01  0.00000000000E+00 0. -1.
     999901    1    3    3    0    0 -0.75072363450E-01  0.36167599383E-02  0.83782592270E-01  0.88716879086E+00  0.88000000000E+00 0.  1.
        -11    1    4    4    0    0  0.80143383670E-01  0.47284932051E-02 -0.78901653544E-01  0.11256577032E+00  0.51100000000E-03 0.  1.
         11    1    4    4    0    0  0.81097187626E-02  0.46144604189E-02 -0.18841279577E-01  0.21031303347E-01  0.51100000000E-03 0. -1.
</event>
<event>
 8    1  0.1081309E+005  0.1043930E+01  0.7957747E-01            NaN
         13   -1    0    0    0    0  0.00000000000E+00  0.00000000000E+00  0.74505805969E-08  0.10566000000E+00  0.10566000000E+00 0. -1.
     999900   -1    0    0    0    0 -0.00000000000E+00 -0.00000000000E+00 -0.74505805969E-08  0.93827000000E+00  0.93827000000E+00 0.  1.
     999902    2    1    2    0    0 -0.21187904209E-01  0.18491237476E-02 -0.10915272937E-01  0.10200241487E+01  0.10197439748E+01 0.  0.
     999903    2    3    3    0    0 -0.27374576508E-01 -0.30591680950E-01 -0.12422751957E+00  0.13214445754E+00  0.18559705191E-01 0.  0.
         14    1    1    2    0    0  0.21187904209E-01 -0.18491237476E-02  0.10915272937E-01  0.23905851307E-01  0.00000000000E+00 0.  1.
     999901    1    3    3    0    0  0.61866722986E-02  0.32440804698E-01  0.11331224664E+00  0.88787969115E+00  0.88000000000E+00 0. -1.
        -11    1    4    4    0    0 -0.22874692168E-01 -0.25138658456E-01 -0.74179471188E-01  0.81596928603E-01  0.51100000000E-03 0. -1.
         11    1    4    4    0    0 -0.44998843399E-02 -0.54530224937E-02 -0.50048048386E-01  0.50547528937E-01  0.51100000000E-03 0.  1.
</event>
<event>
 8    1  0.1081309E+005  0.1043930E+01  0.7957747E-01            NaN
         13   -1    0    0    0    0  0.00000000000E+00  0.00000000000E+00  0.74505805969E-08  0.10566000000E+00  0.10566000000E+00 0. -1.
     999900   -1    0    0    0    0 -0.00000000000E+00 -0.00000000000E+00 -0.74505805969E-08  0.93827000000E+00  0.93827000000E+00 0. -1.
     999902    2    1    2    0    0  0.22100434979E-02  0.12182626918E-01  0.19927014510E-01  0.10204696803E+01  0.10201999715E+01 0.  0.
     999903    2    3    3    0    0 -0.11953642936E+00  0.11551489242E-01  0.50206441660E-01  0.13157179774E+00  0.19184794237E-01 0.  0.
         14    1    1    2    0    0 -0.22100434979E-02 -0.12182626918E-01 -0.19927014510E-01  0.23460319652E-01  0.00000000000E+00 0.  1.
     999901    1    3    3    0    0  0.12174647286E+00  0.63113767612E-03 -0.30279427151E-01  0.88889788260E+00  0.88000000000E+00 0. -1.
        -11    1    4    4    0    0 -0.90365407331E-01  0.13163146615E-01  0.45314036002E-01  0.10194507468E+00  0.51100000000E-03 0. -1.
         11    1    4    4    0    0 -0.29171022028E-01 -0.16116573732E-02  0.48924056583E-02  0.29626723068E-01  0.51100000000E-03 0.  1.
</event>
<event>
 8    1  0.1081309E+005  0.1043930E+01  0.7957747E-01            NaN
         13   -1    0    0    0    0  0.00000000000E+00  0.00000000000E+00  0.74505805969E-08  0.10566000000E+00  0.10566000000E+00 0. -1.
     999900   -1    0    0    0    0 -0.00000000000E+00 -0.00000000000E+00 -0.74505805969E-08  0.93827000000E+00  0.93827000000E+00 0. -1.
     999902    2    1    2    0    0  0.16747323729E-01  0.14982565263E-01  0.82995893965E-02  0.10199751822E+01  0.10196938457E+01 0.  0.
     999903    2    3    3    0    0  0.33391751058E-01 -0.12168931353E+00  0.19490224316E-01  0.12919941367E+00  0.19731233636E-01 0.  0.
         14    1    1    2    0    0 -0.16747323729E-01 -0.14982565263E-01 -0.82995893965E-02  0.23954817847E-01  0.00000000000E+00 0.  1.
     999901    1    3    3    0    0 -0.16644427329E-01  0.13667187880E+00 -0.11190634920E-01  0.89077576849E+00  0.88000000000E+00 0.  1.
        -11    1    4    4    0    0  0.12105520131E-01 -0.63634985771E-01  0.14837447010E-02  0.64795197747E-01  0.51100000000E-03 0.  1.
         11    1    4    4    0    0  0.21286230927E-01 -0.58054327762E-01  0.18006479615E-01  0.64404215919E-01  0.51100000000E-03 0. -1.
</event>
<event>
 8    1  0.1081309E+005  0.1043930E+01  0.7957747E-01            NaN
         13   -1    0    0    0    0  0.00000000000E+00  0.00000000000E+00  0.74505805969E-08  0.10566000000E+00  0.10566000000E+00 0. -1.
     999900   -1    0    0    0    0 -0.00000000000E+00 -0.00000000000E+00 -0.74505805969E-08  0.93827000000E+00  0.93827000000E+00 0. -1.
     999902    2    1    2    0    0  0.77402636745E-02  0.94828342385E-02  0.20656945720E-01  0.10199186437E+01  0.10196359617E+01 0.  0.
     999903    2    3    3    0    0 -0.94252703871E-01  0.82505275644E-01  0.32642084649E-01  0.13094255515E+00  0.19742197540E-01 0.  0.
         14    1    1    2    0    0 -0.77402636745E-02 -0.94828342385E-02 -0.20656945720E-01  0.24011356343E-01  0.00000000000E+00 0.  1.
     999901    1    3    3    0    0  0.10199296755E+00 -0.73022441405E-01 -0.11985138929E-01  0.88897608850E+00  0.88000000000E+00 0. -1.
        -11    1    4    4    0    0 -0.69743685616E-01  0.59875492229E-01  0.32746100015E-01  0.97579836238E-01  0.51100000000E-03 0.  1.
         11    1    4    4    0    0 -0.24509018255E-01  0.22629783414E-01 -0.10401536610E-03  0.33362718915E-01  0.51100000000E-03 0. -1.
</event>
<event>
 8    1  0.1081309E+005  0.1043930E+01  0.7957747E-01            NaN
         13   -1    0    0    0    0  0.00000000000E+00  0.00000000000E+00  0.74505805969E-08  0.10566000000E+00  0.10566000000E+00 0.  1.
     999900   -1    0    0    0    0 -0.00000000000E+00 -0.00000000000E+00 -0.74505805969E-08  0.93827000000E+00  0.93827000000E+00 0.  1.
     999902    2    1    2    0    0 -0.12088745084E-02 -0.54895754935E-02 -0.22535421926E-01  0.10207041080E+01  0.10204398238E+01 0.  0.
     999903    2    3    3    0    0  0.43367984551E-01  0.68007934389E-01  0.94318293456E-01  0.12882756325E+00  0.34565001785E-01 0.  0.
         14    1    1    2    0    0  0.12088745084E-02  0.54895754935E-02  0.22535421926E-01  0.23225891976E-01  0.00000000000E+00 0.  1.
     999901    1    3    3    0    0 -0.44576859059E-01 -0.73497509882E-01 -0.11685371538E+00  0.89187654478E+00  0.88000000000E+00 0.  1.
        -11    1    4    4    0    0  0.28888908039E-01  0.16689341179E-01  0.26836997882E-01  0.42820423783E-01  0.51100000000E-03 0. -1.
         11    1    4    4    0    0  0.14479076512E-01  0.51318593210E-01  0.67481295574E-01  0.86007139465E-01  0.51100000000E-03 0.  1.
</event>
<event>
 8    1  0.1081309E+005  0.1043930E+01  0.7957747E-01            NaN
         13   -1    0    0    0    0  0.00000000000E+00  0.00000000000E+00  0.74505805969E-08  0.10566000000E+00  0.10566000000E+00 0. -1.
     999900   -1    0    0    0    0 -0.00000000000E+00 -0.00000000000E+00 -0.74505805969E-08  0.93827000000E+00  0.93827000000E+00 0.  1.
     999902    2    1    2    0    0  0.18362848210E-01 -0.28872455630E-02 -0.14147485354E-01  0.10205701686E+01  0.10203027920E+01 0.  0.
     999903    2    3    3    0    0  0.41527897638E-01 -0.53927445421E-01  0.10882807569E+00  0.13025297224E+00  0.22125800934E-01 0.  0.
         14    1    1    2    0    0 -0.18362848210E-01  0.28872455630E-02  0.14147485354E-01  0.23359831403E-01  0.00000000000E+00 0. -1.
     999901    1    3    3    0    0 -0.23165049428E-01  0.51040199858E-01 -0.12297556104E+00  0.89031719636E+00  0.88000000000E+00 0.  1.
        -11    1    4    4    0    0  0.27330504900E-02 -0.19378418394E-01  0.27825143002E-01  0.34021939517E-01  0.51100000000E-03 0. -1.
         11    1    4    4    0    0  0.38794847148E-01 -0.34549027027E-01  0.81002932687E-01  0.96231032722E-01  0.51100000000E-03 0.  1.
</event>
<event>
 8    1  0.1081309E+005  0.1043930E+01  0.7957747E-01            NaN
         13   -1    0    0    0    0  0.00000000000E+00  0.00000000000E+00  0.74505805969E-08  0.10566000000E+00  0.10566000000E+00 0.  1.
     999900   -1    0    0    0    0 -0.00000000000E+00 -0.00000000000E+00 -0.74505805969E-08  0.93827000000E+00  0.93827000000E+00 0. -1.
     999902    2    1    2    0    0  0.76299313823E-02 -0.19985861382E-01 -0.14082741239E-01  0.10183180085E+01  0.10179958705E+01 0.  0.
     999903    2    3    3    0    0  0.91676275723E-01 -0.74125755371E-01  0.51810964545E-01  0.13020940220E+00  0.19259938572E-01 0.  0.
         14    1    1    2    0    0 -0.76299313823E-02  0.19985861382E-01  0.14082741239E-01  0.25611991505E-01  0.00000000000E+00 0. -1.
     999901    1    3    3    0    0 -0.84046344340E-01  0.54139893989E-01 -0.65893705784E-01  0.88810860630E+00  0.88000000000E+00 0.  1.
        -11    1    4    4    0    0  0.19526041947E-01 -0.26612914103E-01  0.12568773783E-01  0.35323486615E-01  0.51100000000E-03 0. -1.
         11    1    4    4    0    0  0.72150233775E-01 -0.47512841267E-01  0.39242190762E-01  0.94885915583E-01  0.51100000000E-03 0.  1.
</event>
<event>
 8    1  0.1081309E+005  0.1043930E+01  0.7957747E-01            NaN
         13   -1    0    0    0    0  0.00000000000E+00  0.00000000000E+00  0.74505805969E-08  0.10566000000E+00  0.10566000000E+00 0. -1.
     999900   -1    0    0    0    0 -0.00000000000E+00 -0.00000000000E+00 -0.74505805969E-08  0.93827000000E+00  0.93827000000E+00 0.  1.
     999902    2    1    2    0    0  0.82168762389E-02 -0.22686667865E-01  0.97591660419E-02  0.10179022595E+01  0.10175694407E+01 0.  0.
     999903    2    3    3    0    0 -0.33414837917E-01 -0.11992018008E+00 -0.33826393738E-01  0.13049747218E+00  0.19696810644E-01 0.  0.
         14    1    1    2    0    0 -0.82168762389E-02  0.22686667865E-01 -0.97591660419E-02  0.26027740505E-01  0.00000000000E+00 0. -1.
     999901    1    3    3    0    0  0.41631714156E-01  0.97233512216E-01  0.43585559780E-01  0.88740478731E+00  0.88000000000E+00 0. -1.
        -11    1    4    4    0    0 -0.16868146253E-01 -0.83168722430E-01 -0.15709769730E-01  0.86305438616E-01  0.51100000000E-03 0.  1.
         11    1    4    4    0    0 -0.16546691664E-01 -0.36751457651E-01 -0.18116624008E-01  0.44192033569E-01  0.51100000000E-03 0. -1.
</event>
<event>
 8    1  0.1081309E+005  0.1043930E+01  0.7957747E-01            NaN
         13   -1    0    0    0    0  0.00000000000E+00  0.00000000000E+00  0.74505805969E-08  0.10566000000E+00  0.10566000000E+00 0.  1.
     999900   -1    0    0    0    0 -0.00000000000E+00 -0.00000000000E+00 -0.74505805969E-08  0.93827000000E+00  0.93827000000E+00 0. -1.
     999902    2    1    2    0    0 -0.66860208516E-02  0.23042176952E-01  0.49305470633E-02  0.10194360194E+01  0.10191417185E+01 0.  0.
     999903    2    3    3    0    0 -0.10943437374E+00  0.57036045267E-01  0.42489659604E-01  0.13201081460E+00  0.19811395222E-01 0.  0.
         14    1    1    2    0    0  0.66860208516E-02 -0.23042176952E-01 -0.49305470633E-02  0.24493980646E-01  0.00000000000E+00 0.  1.
     999901    1    3    3    0    0  0.10274835289E+00 -0.33993868314E-01 -0.37559112541E-01  0.88742520476E+00  0.88000000000E+00 0.  1.
        -11    1    4    4    0    0 -0.57309928216E-01  0.19133449450E-01  0.23378812275E-01  0.64786933439E-01  0.51100000000E-03 0.  1.
         11    1    4    4    0    0 -0.52124445528E-01  0.37902595817E-01  0.19110847329E-01  0.67223881158E-01  0.51100000000E-03 0. -1.
</event>
<event>
 8    1  0.1081309E+005  0.1043930E+01  0.7957747E-01            NaN
         13   -1    0    0    0    0  0.00000000000E+00  0.00000000000E+00  0.74505805969E-08  0.10566000000E+00  0.10566000000E+00 0. -1.
     999900   -1    0    0    0    0 -0.00000000000E+00 -0.00000000000E+00 -0.74505805969E-08  0.93827000000E+00  0.93827000000E+00 0.  1.
     999902    2    1    2    0    0 -0.17523860693E-01  0.41167534005E-02 -0.15756291071E-01  0.10200073317E+01  0.10197267588E+01 0.  0.
     999903    2    3    3    0    0  0.10326130316E+00 -0.71718970537E-01 -0.15200106722E-01  0.12852518256E+00  0.21935629499E-01 0.  0.
         14    1    1    2    0    0  0.17523860693E-01 -0.41167534005E-02  0.15756291071E-01  0.23922668339E-01  0.00000000000E+00 0. -1.
     999901    1    3    3    0    0 -0.12078516385E+00  0.75835723938E-01 -0.55618434896E-03  0.89148214911E+00  0.88000000000E+00 0. -1.
        -11    1    4    4    0    0  0.14676253261E-01 -0.16796629733E-01 -0.91645598887E-02  0.24119897577E-01  0.51100000000E-03 0.  1.
         11    1    4    4    0    0  0.88585049898E-01 -0.54922340804E-01 -0.60355468331E-02  0.10440528498E+00  0.51100000000E-03 0. -1.
</event>
<event>
 8    1  0.1081309E+005  0.1043930E+01  0.7957747E-01            NaN
         13   -1    0    0    0    0  0.00000000000E+00  0.00000000000E+00  0.74505805969E-08  0.10566000000E+00  0.10566000000E+00 0.  1.
     999900   -1    0    0    0    0 -0.00000000000E+00 -0.00000000000E+00 -0.74505805969E-08  0.93827000000E+00  0.93827000000E+00 0.  1.
     999902    2    1    2    0    0 -0.12119607004E-01 -0.19900513182E-01  0.26941739847E-02  0.10204742145E+01  0.10202046112E+01 0.  0.
     999903    2    3    3    0    0 -0.10823223707E+00 -0.21118910013E-01 -0.70262005795E-01  0.13223903941E+00  0.19753191726E-01 0.  0.
         14    1    1    2    0    0  0.12119607004E-01  0.19900513182E-01 -0.26941739847E-02  0.23455785476E-01  0.00000000000E+00 0. -1.
     999901    1    3    3    0    0  0.96112630066E-01  0.12183968302E-02  0.72956179780E-01  0.88823517512E+00  0.88000000000E+00 0. -1.
        -11    1    4    4    0    0 -0.38842803665E-01 -0.81756900984E-02 -0.36763375547E-01  0.54105565405E-01  0.51100000000E-03 0. -1.
         11    1    4    4    0    0 -0.69389433405E-01 -0.12943219914E-01 -0.33498630248E-01  0.78133474001E-01  0.51100000000E-03 0.  1.
</event>
<event>
 8    1  0.1081309E+005  0.1043930E+01  0.7957747E-01            NaN
         13   -1    0    0    0    0  0.00000000000E+00  0.00000000000E+00  0.74505805969E-08  0.10566000000E+00  0.10566000000E+00 0.  1.
     999900   -1    0    0    0    0 -0.00000000000E+00 -0.00000000000E+00 -0.74505805969E-08  0.93827000000E+00  0.93827000000E+00 0. -1.
     999902    2    1    2    0    0  0.94587145287E-02 -0.31104822878E-02 -0.21126010420E-01  0.10205751141E+01  0.10203078520E+01 0.  0.
     999903    2    3    3    0    0  0.16202631376E-02  0.16654742297E-01  0.12541141126E+00  0.12820449523E+00  0.20696976304E-01 0.  0.
         14    1    1    2    0    0 -0.94587145287E-02  0.31104822878E-02  0.21126010420E-01  0.23354885931E-01  0.00000000000E+00 0.  1.
     999901    1    3    3    0    0  0.78384513912E-02 -0.19765224585E-01 -0.14653742168E+00  0.89237061884E+00  0.88000000000E+00 0. -1.
        -11    1    4    4    0    0  0.67957317305E-02  0.18429705834E-01  0.76414699604E-01  0.78900592289E-01  0.51100000000E-03 0.  1.
         11    1    4    4    0    0 -0.51754685929E-02 -0.17749635370E-02  0.48996711655E-01  0.49303902936E-01  0.51100000000E-03 0. -1.
</event>
<event>
 8    1  0.1081309E+005  0.1043930E+01  0.7957747E-01            NaN
         13   -1    0    0    0    0  0.00000000000E+00  0.00000000000E+00  0.74505805969E-08  0.10566000000E+00  0.10566000000E+00 0. -1.
     999900   -1    0    0    0    0 -0.00000000000E+00 -0.00000000000E+00 -0.74505805969E-08  0.93827000000E+00  0.93827000000E+00 0. -1.
     999902    2    1    2    0    0 -0.16748721198E-01  0.32537297516E-02  0.18951382536E-01  0.10184297781E+01  0.10181104810E+01 0.  0.
     999903    2    3    3    0    0 -0.12745856973E+00  0.55475922981E-02  0.24232182034E-01  0.13147441322E+00  0.20539228546E-01 0.  0.
         14    1    1    2    0    0  0.16748721198E-01 -0.32537297516E-02 -0.18951382536E-01  0.25500221942E-01  0.00000000000E+00 0.  1.
     999901    1    3    3    0    0  0.11070984853E+00 -0.22938625465E-02 -0.52807994984E-02  0.88695536484E+00  0.88000000000E+00 0.  1.
        -11    1    4    4    0    0 -0.75069337838E-01  0.11831542880E-01  0.19720531957E-01  0.78514657180E-01  0.51100000000E-03 0. -1.
         11    1    4    4    0    0 -0.52389231888E-01 -0.62839505822E-02  0.45116500765E-02  0.52959756043E-01  0.51100000000E-03 0.  1.
</event>
<event>
 8    1  0.1081309E+005  0.1043930E+01  0.7957747E-01            NaN
         13   -1    0    0    0    0  0.00000000000E+00  0.00000000000E+00  0.74505805969E-08  0.10566000000E+00  0.10566000000E+00 0. -1.
     999900   -1    0    0    0    0 -0.00000000000E+00 -0.00000000000E+00 -0.74505805969E-08  0.93827000000E+00  0.93827000000E+00 0.  1.
     999902    2    1    2    0    0 -0.26739292858E-02 -0.56384489003E-02 -0.22577893957E-01  0.10205055833E+01  0.10202367089E+01 0.  0.
     999903    2    3    3    0    0  0.48682661542E-01 -0.24853578089E-01  0.11446698947E+00  0.12821189804E+00  0.18652003727E-01 0.  0.
         14    1    1    2    0    0  0.26739292858E-02  0.56384489003E-02  0.22577893957E-01  0.23424416735E-01  0.00000000000E+00 0. -1.
     999901    1    3    3    0    0 -0.51356590828E-01  0.19215129189E-01 -0.13704488343E+00  0.89229368522E+00  0.88000000000E+00 0.  1.
        -11    1    4    4    0    0  0.97519609321E-02 -0.14461288971E-01  0.33625570037E-01  0.37883633697E-01  0.51100000000E-03 0.  1.
         11    1    4    4    0    0  0.38930700610E-01 -0.10392289118E-01  0.80841419433E-01  0.90328264348E-01  0.51100000000E-03 0. -1.
</event>
<event>
 8    1  0.1081309E+005  0.1043930E+01  0.7957747E-01            NaN
         13   -1    0    0    0    0  0.00000000000E+00  0.00000000000E+00  0.74505805969E-08  0.10566000000E+00  0.10566000000E+00 0.  1.
     999900   -1    0    0    0    0 -0.00000000000E+00 -0.00000000000E+00 -0.74505805969E-08  0.93827000000E+00  0.93827000000E+00 0. -1.
     999902    2    1    2    0    0 -0.41668257016E-02  0.40908002986E-02  0.23598405881E-01  0.10196198819E+01  0.10193300357E+01 0.  0.
     999903    2    3    3    0    0  0.36323587405E-01  0.89115149353E-01  0.88857875139E-01  0.13219246973E+00  0.17838560277E-01 0.  0.
         14    1    1    2    0    0  0.41668257016E-02 -0.40908002986E-02 -0.23598405881E-01  0.24310118133E-01  0.00000000000E+00 0. -1.
     999901    1    3    3    0    0 -0.40490413106E-01 -0.85024349055E-01 -0.65259469258E-01  0.88742741214E+00  0.88000000000E+00 0. -1.
        -11    1    4    4    0    0  0.20507727028E-02  0.99907680669E-02  0.17520125018E-01  0.20278979681E-01  0.51100000000E-03 0.  1.
         11    1    4    4    0    0  0.34272814702E-01  0.79124381286E-01  0.71337750120E-01  0.11191349005E+00  0.51100000000E-03 0. -1.
</event>
<event>
 8    1  0.1081309E+005  0.1043930E+01  0.7957747E-01            NaN
         13   -1    0    0    0    0  0.00000000000E+00  0.00000000000E+00  0.74505805969E-08  0.10566000000E+00  0.10566000000E+00 0. -1.
     999900   -1    0    0    0    0 -0.00000000000E+00 -0.00000000000E+00 -0.74505805969E-08  0.93827000000E+00  0.93827000000E+00 0. -1.
     999902    2    1    2    0    0  0.14154485113E-01  0.18234513468E-01 -0.34696293167E-02  0.10205872226E+01  0.10203202407E+01 0.  0.
     999903    2    3    3    0    0  0.33182468723E-01 -0.13555678454E-01 -0.12495882398E+00  0.13146838638E+00  0.19606026585E-01 0.  0.
         14    1    1    2    0    0 -0.14154485113E-01 -0.18234513468E-01  0.34696293167E-02  0.23342777423E-01  0.00000000000E+00 0. -1.
     999901    1    3    3    0    0 -0.19027983610E-01  0.31790191923E-01  0.12148919466E+00  0.88911883620E+00  0.88000000000E+00 0.  1.
        -11    1    4    4    0    0  0.20270482054E-01  0.17784097178E-03 -0.45692069381E-01  0.49989502852E-01  0.51100000000E-03 0. -1.
         11    1    4    4    0    0  0.12911986670E-01 -0.13733519426E-01 -0.79266754596E-01  0.81478883527E-01  0.51100000000E-03 0.  1.
</event>
<event>
 8    1  0.1081309E+005  0.1043930E+01  0.7957747E-01            NaN
         13   -1    0    0    0    0  0.00000000000E+00  0.00000000000E+00  0.74505805969E-08  0.10566000000E+00  0.10566000000E+00 0.  1.
     999900   -1    0    0    0    0 -0.00000000000E+00 -0.00000000000E+00 -0.74505805969E-08  0.93827000000E+00  0.93827000000E+00 0.  1.
     999902    2    1    2    0    0  0.33715470416E-02 -0.20580836781E-01  0.10520246102E-01  0.10205716236E+01  0.10203042806E+01 0.  0.
     999903    2    3    3    0    0 -0.78617696483E-03  0.12660429480E+00  0.51624343525E-02  0.12832196355E+00  0.20263515599E-01 0.  0.
         14    1    1    2    0    0 -0.33715470416E-02  0.20580836781E-01 -0.10520246102E-01  0.23358376445E-01  0.00000000000E+00 0. -1.
     999901    1    3    3    0    0  0.41577240064E-02 -0.14718513159E+00  0.53578117499E-02  0.89224966000E+00  0.88000000000E+00 0.  1.
        -11    1    4    4    0    0 -0.34009147652E-02  0.40563058890E-01  0.10606077184E-01  0.42067540479E-01  0.51100000000E-03 0. -1.
         11    1    4    4    0    0  0.26147378004E-02  0.86041235914E-01 -0.54436428311E-02  0.86254423073E-01  0.51100000000E-03 0.  1.
</event>
<event>
 8    1  0.1081309E+005  0.1043930E+01  0.7957747E-01            NaN
         13   -1    0    0    0    0  0.00000000000E+00  0.00000000000E+00  0.74505805969E-08  0.10566000000E+00  0.10566000000E+00 0. -1.
     999900   -1    0    0    0    0 -0.00000000000E+00 -0.00000000000E+00 -0.74505805969E-08  0.93827000000E+00  0.93827000000E+00 0. -1.
     999902    2    1    2    0    0 -0.17539407234E-03  0.22814205164E-01 -0.66279437886E-03  0.10211054953E+01  0.10208503683E+01 0.  0.
     999903    2    3    3    0    0  0.83648860529E-04  0.28241117579E-02  0.12976924879E+00  0.13126720162E+00  0.19571348583E-01 0.  0.
         14    1    1    2    0    0  0.17539407234E-03 -0.22814205164E-01  0.66279437886E-03  0.22824504743E-01  0.00000000000E+00 0. -1.
     999901    1    3    3    0    0 -0.25904293287E-03  0.19990093406E-01 -0.13043204317E+00  0.88983829364E+00  0.88000000000E+00 0. -1.
        -11    1    4    4    0    0  0.25048660480E-03 -0.55034381310E-02  0.10468900648E+00  0.10483510754E+00  0.51100000000E-03 0. -1.
         11    1    4    4    0    0 -0.16683774428E-03  0.83275498889E-02  0.25080242311E-01  0.26432094078E-01  0.51100000000E-03 0.  1.
</event>
<event>
 8    1  0.1081309E+005  0.1043930E+01  0.7957747E-01            NaN
         13   -1    0    0    0    0  0.00000000000E+00  0.00000000000E+00  0.74505805969E-08  0.10566000000E+00  0.10566000000E+00 0. -1.
     999900   -1    0    0    0    0 -0.00000000000E+00 -0.00000000000E+00 -0.74505805969E-08  0.93827000000E+00  0.93827000000E+00 0. -1.
     999902    2    1    2    0    0  0.79024662960E-02  0.22099629200E-01 -0.34940296376E-02  0.10202013079E+01  0.10199253198E+01 0.  0.
     999903    2    3    3    0    0 -0.54539655447E-01  0.35873194548E-01 -0.11207013064E+00  0.13122577431E+00  0.19975724219E-01 0.  0.
         14    1    1    2    0    0 -0.79024662960E-02 -0.22099629200E-01  0.34940296376E-02  0.23728692072E-01  0.00000000000E+00 0. -1.
     999901    1    3    3    0    0  0.62442121743E-01 -0.13773565348E-01  0.10857610100E+00  0.88897553362E+00  0.88000000000E+00 0.  1.
        -11    1    4    4    0    0 -0.19518159346E-01  0.21495099496E-02 -0.31654046441E-01  0.37253438960E-01  0.51100000000E-03 0.  1.
         11    1    4    4    0    0 -0.35021496101E-01  0.33723684598E-01 -0.80416084195E-01  0.93972335346E-01  0.51100000000E-03 0. -1.
</event>
<event>
 8    1  0.1081309E+005  0.1043930E+01  0.7957747E-01            NaN
         13   -1    0    0    0    0  0.00000000000E+00  0.00000000000E+00  0.74505805969E-08  0.10566000000E+00  0.10566000000E+00 0. -1.
     999900   -1    0    0    0    0 -0.00000000000E+00 -0.00000000000E+00 -0.74505805969E-08  0.93827000000E+00  0.93827000000E+00 0.  1.
     999902    2    1    2    0    0  0.22472119802E-01  0.28049235392E-02 -0.79618576426E-02  0.10199246893E+01  0.10196421514E+01 0.  0.
     999903    2    3    3    0    0  0.51676010206E-01 -0.93050998419E-01  0.72400814749E-01  0.13059944840E+00  0.22032694104E-01 0.  0.
         14    1    1    2    0    0 -0.22472119802E-01 -0.28049235392E-02  0.79618576426E-02  0.24005310695E-01  0.00000000000E+00 0. -1.
     999901    1    3    3    0    0 -0.29203890404E-01  0.95855921959E-01 -0.80362672392E-01  0.88932524090E+00  0.88000000000E+00 0. -1.
        -11    1    4    4    0    0  0.25815212388E-01 -0.25217748938E-01  0.23484707419E-01  0.43059872918E-01  0.51100000000E-03 0. -1.
         11    1    4    4    0    0  0.25860797817E-01 -0.67833249481E-01  0.48916107330E-01  0.87539575486E-01  0.51100000000E-03 0.  1.
</event>
<event>
 8    1  0.1081309E+005  0.1043930E+01  0.7957747E-01            NaN
         13   -1    0    0    0    0  0.00000000000E+00  0.00000000000E+00  0.74505805969E-08  0.10566000000E+00  0.10566000000E+00 0.  1.
     999900   -1    0    0    0    0 -0.00000000000E+00 -0.00000000000E+00 -0.74505805969E-08  0.93827000000E+00  0.93827000000E+00 0.  1.
     999902    2    1    2    0    0  0.61461317592E-02  0.22952580434E-01 -0.38179349894E-02  0.10198639968E+01  0.10195800113E+01 0.  0.
     999903    2    3    3    0    0 -0.10304922045E-01 -0.96925426789E-01  0.79912395080E-01  0.12764645493E+00  0.20171682910E-01 0.  0.
         14    1    1    2    0    0 -0.61461317592E-02 -0.22952580434E-01  0.38179349894E-02  0.24066003236E-01  0.00000000000E+00 0.  1.
     999901    1    3    3    0    0  0.16451053804E-01  0.11987800722E+00 -0.83730330069E-01  0.89221754184E+00  0.88000000000E+00 0.  1.
        -11    1    4    4    0    0  0.59540586896E-03 -0.40327099696E-01  0.22028610346E-01  0.45958136089E-01  0.51100000000E-03 0. -1.
         11    1    4    4    0    0 -0.10900327914E-01 -0.56598327094E-01  0.57883784734E-01  0.81688318838E-01  0.51100000000E-03 0.  1.
</event>
<event>
 8    1  0.1081309E+005  0.1043930E+01  0.7957747E-01            NaN
         13   -1    0    0    0    0  0.00000000000E+00  0.00000000000E+00  0.74505805969E-08  0.10566000000E+00  0.10566000000E+00 0.  1.
     999900   -1    0    0    0    0 -0.00000000000E+00 -0.00000000000E+00 -0.74505805969E-08  0.93827000000E+00  0.93827000000E+00 0. -1.
     999902    2    1    2    0    0 -0.24746892463E-01 -0.16022549893E-01  0.52172985071E-02  0.10139908785E+01  0.10135487905E+01 0.  0.
     999903    2    3    3    0    0  0.10132098614E+00 -0.67593418985E-02  0.64487670817E-01  0.12298476514E+00  0.25592222133E-01 0.  0.
         14    1    1    2    0    0  0.24746892463E-01  0.16022549893E-01 -0.52172985071E-02  0.29939121486E-01  0.00000000000E+00 0.  1.
     999901    1    3    3    0    0 -0.12606787860E+00 -0.92632079948E-02 -0.59270372309E-01  0.89100611337E+00  0.88000000000E+00 0.  1.
        -11    1    4    4    0    0  0.95302805647E-01  0.14566301661E-03  0.56318435481E-01  0.11070082781E+00  0.51100000000E-03 0.  1.
         11    1    4    4    0    0  0.60181804926E-02 -0.69050049151E-02  0.81692353359E-02  0.12283937329E-01  0.51100000000E-03 0. -1.
</event>
<event>
 8    1  0.1081309E+005  0.1043930E+01  0.7957747E-01            NaN
         13   -1    0    0    0    0  0.00000000000E+00  0.00000000000E+00  0.74505805969E-08  0.10566000000E+00  0.10566000000E+00 0. -1.
     999900   -1    0    0    0    0 -0.00000000000E+00 -0.00000000000E+00 -0.74505805969E-08  0.93827000000E+00  0.93827000000E+00 0.  1.
     999902    2    1    2    0    0  0.16539346185E-01  0.56277601190E-02 -0.15738787088E-01  0.10204155135E+01  0.10201445433E+01 0.  0.
     999903    2    3    3    0    0 -0.61557230866E-01 -0.10240643687E+00 -0.46652893578E-01  0.12983921411E+00  0.20133505796E-01 0.  0.
         14    1    1    2    0    0 -0.16539346185E-01 -0.56277601190E-02  0.15738787088E-01  0.23514486496E-01  0.00000000000E+00 0. -1.
     999901    1    3    3    0    0  0.78096577051E-01  0.10803419699E+00  0.30914106490E-01  0.89057629940E+00  0.88000000000E+00 0. -1.
        -11    1    4    4    0    0 -0.32452834207E-01 -0.45437301341E-01 -0.12121068669E-01  0.57139445464E-01  0.51100000000E-03 0. -1.
         11    1    4    4    0    0 -0.29104396659E-01 -0.56969135533E-01 -0.34531824909E-01  0.72699768643E-01  0.51100000000E-03 0.  1.
</event>
<event>
 8    1  0.1081309E+005  0.1043930E+01  0.7957747E-01            NaN
         13   -1    0    0    0    0  0.00000000000E+00  0.00000000000E+00  0.74505805969E-08  0.10566000000E+00  0.10566000000E+00 0.  1.
     999900   -1    0    0    0    0 -0.00000000000E+00 -0.00000000000E+00 -0.74505805969E-08  0.93827000000E+00  0.93827000000E+00 0.  1.
     999902    2    1    2    0    0 -0.13102586056E-02  0.11399445605E-01  0.20342585236E-01  0.10205743816E+01  0.10203071025E+01 0.  0.
     999903    2    3    3    0    0 -0.12711828937E+00  0.19123317313E-01 -0.17640052200E-01  0.13078227128E+00  0.16372852004E-01 0.  0.
         14    1    1    2    0    0  0.13102586056E-02 -0.11399445605E-01 -0.20342585236E-01  0.23355618421E-01  0.00000000000E+00 0. -1.
     999901    1    3    3    0    0  0.12580803076E+00 -0.77238717081E-02  0.37982637437E-01  0.88979211030E+00  0.88000000000E+00 0. -1.
        -11    1    4    4    0    0 -0.62997033523E-01  0.12183722634E-02 -0.86666221400E-02  0.63604104616E-01  0.51100000000E-03 0.  1.
         11    1    4    4    0    0 -0.64121255847E-01  0.17904945050E-01 -0.89734300605E-02  0.67178166667E-01  0.51100000000E-03 0. -1.
</event>
<event>
 8    1  0.1081309E+005  0.1043930E+01  0.7957747E-01            NaN
         13   -1    0    0    0    0  0.00000000000E+00  0.00000000000E+00  0.74505805969E-08  0.10566000000E+00  0.10566000000E+00 0.  1.
     999900   -1    0    0    0    0 -0.00000000000E+00 -0.00000000000E+00 -0.74505805969E-08  0.93827000000E+00  0.93827000000E+00 0.  1.
     999902    2    1    2    0    0 -0.10463139163E-01 -0.13921567710E-01  0.23699891878E-01  0.10145195902E+01  0.10140932042E+01 0.  0.
     999903    2    3    3    0    0  0.67331515570E-01  0.65919628099E-01 -0.74242165912E-01  0.12209633215E+00  0.22730700983E-01 0.  0.
         14    1    1    2    0    0  0.10463139163E-01  0.13921567710E-01 -0.23699891878E-01  0.29410409785E-01  0.00000000000E+00 0. -1.
     999901    1    3    3    0    0 -0.77794654734E-01 -0.79841195809E-01  0.97942057791E-01  0.89242325807E+00  0.88000000000E+00 0. -1.
        -11    1    4    4    0    0  0.18601630607E-01  0.32127606698E-01 -0.22638449064E-01  0.43485218988E-01  0.51100000000E-03 0.  1.
         11    1    4    4    0    0  0.48729884963E-01  0.33792021401E-01 -0.51603716849E-01  0.78611113161E-01  0.51100000000E-03 0. -1.
</event>
<event>
 8    1  0.1081309E+005  0.1043930E+01  0.7957747E-01            NaN
         13   -1    0    0    0    0  0.00000000000E+00  0.00000000000E+00  0.74505805969E-08  0.10566000000E+00  0.10566000000E+00 0. -1.
     999900   -1    0    0    0    0 -0.00000000000E+00 -0.00000000000E+00 -0.74505805969E-08  0.93827000000E+00  0.93827000000E+00 0.  1.
     999902    2    1    2    0    0 -0.12793257839E-01 -0.17245834638E-01  0.33964217448E-02  0.10221901302E+01  0.10219589230E+01 0.  0.
     999903    2    3    3    0    0 -0.16789112069E-01 -0.12627078546E+00  0.38955418183E-01  0.13474049840E+00  0.20280329303E-01 0.  0.
         14    1    1    2    0    0  0.12793257839E-01  0.17245834638E-01 -0.33964217448E-02  0.21739869806E-01  0.00000000000E+00 0. -1.
     999901    1    3    3    0    0  0.39958542299E-02  0.10902495082E+00 -0.35558996439E-01  0.88744963180E+00  0.88000000000E+00 0. -1.
        -11    1    4    4    0    0 -0.14446948472E-02 -0.81152803368E-01  0.21287478797E-01  0.83912350177E-01  0.51100000000E-03 0. -1.
         11    1    4    4    0    0 -0.15344417222E-01 -0.45117982094E-01  0.17667939386E-01  0.50828148218E-01  0.51100000000E-03 0.  1.
</event>
<event>
 8    1  0.1081309E+005  0.1043930E+01  0.7957747E-01            NaN
         13   -1    0    0    0    0  0.00000000000E+00  0.00000000000E+00  0.74505805969E-08  0.10566000000E+00  0.10566000000E+00 0. -1.
     999900   -1    0    0    0    0 -0.00000000000E+00 -0.00000000000E+00 -0.74505805969E-08  0.93827000000E+00  0.93827000000E+00 0. -1.
     999902    2    1    2    0    0  0.28142700204E-02 -0.70586822228E-02  0.22470148698E-01  0.10202096987E+01  0.10199339080E+01 0.  0.
     999903    2    3    3    0    0  0.30750038090E-01  0.43620002452E-01  0.12005555418E+00  0.13292640259E+00  0.20194626998E-01 0.  0.
         14    1    1    2    0    0 -0.28142700204E-02  0.70586822228E-02 -0.22470148698E-01  0.23720301283E-01  0.00000000000E+00 0.  1.
     999901    1    3    3    0    0 -0.27935768070E-01 -0.50678684675E-01 -0.97585405484E-01  0.88728329612E+00  0.88000000000E+00 0. -1.
        -11    1    4    4    0    0  0.28201548713E-01  0.32937937798E-01  0.75819211813E-01  0.87344427969E-01  0.51100000000E-03 0. -1.
         11    1    4    4    0    0  0.25484893774E-02  0.10682064653E-01  0.44236342369E-01  0.45581974623E-01  0.51100000000E-03 0.  1.
</event>
<event>
 8    1  0.1081309E+005  0.1043930E+01  0.7957747E-01            NaN
         13   -1    0    0    0    0  0.00000000000E+00  0.00000000000E+00  0.74505805969E-08  0.10566000000E+00  0.10566000000E+00 0. -1.
     999900   -1    0    0    0    0 -0.00000000000E+00 -0.00000000000E+00 -0.74505805969E-08  0.93827000000E+00  0.93827000000E+00 0.  1.
     999902    2    1    2    0    0 -0.17178632688E-01 -0.67313626047E-02  0.13942470606E-01  0.10208040589E+01  0.10205420705E+01 0.  0.
     999903    2    3    3    0    0  0.65510554858E-01  0.34053147181E-01  0.10638468184E+00  0.13117130302E+00  0.20903601956E-01 0.  0.
         14    1    1    2    0    0  0.17178632688E-01  0.67313626047E-02 -0.13942470606E-01  0.23125941065E-01  0.00000000000E+00 0.  1.
     999901    1    3    3    0    0 -0.82689187546E-01 -0.40784509785E-01 -0.92442211237E-01  0.88963275591E+00  0.88000000000E+00 0.  1.
        -11    1    4    4    0    0  0.42797362254E-01  0.24347212069E-01  0.86182253664E-01  0.99257457751E-01  0.51100000000E-03 0. -1.
         11    1    4    4    0    0  0.22713192604E-01  0.97059351116E-02  0.20202428179E-01  0.31913845271E-01  0.51100000000E-03 0.  1.
</event>
<event>
 8    1  0.1081309E+005  0.1043930E+01  0.7957747E-01            NaN
         13   -1    0    0    0    0  0.00000000000E+00  0.00000000000E+00  0.74505805969E-08  0.10566000000E+00  0.10566000000E+00 0.  1.
     999900   -1    0    0    0    0 -0.00000000000E+00 -0.00000000000E+00 -0.74505805969E-08  0.93827000000E+00  0.93827000000E+00 0.  1.
     999902    2    1    2    0    0  0.15345025951E-01  0.16284570789E-01  0.98503360427E-02  0.10194823787E+01  0.10191892044E+01 0.  0.
     999903    2    3    3    0    0 -0.12202445966E+00  0.29494605183E-02  0.34056444902E-01  0.12839644768E+00  0.20667323648E-01 0.  0.
         14    1    1    2    0    0 -0.15345025951E-01 -0.16284570789E-01 -0.98503360427E-02  0.24447621303E-01  0.00000000000E+00 0. -1.
     999901    1    3    3    0    0  0.13736948561E+00  0.13335110271E-01 -0.24206108860E-01  0.89108593101E+00  0.88000000000E+00 0. -1.
        -11    1    4    4    0    0 -0.32087354968E-01 -0.17894457020E-02  0.18235933136E-01  0.36954172201E-01  0.51100000000E-03 0.  1.
         11    1    4    4    0    0 -0.89937104689E-01  0.47389062203E-02  0.15820511766E-01  0.91442275483E-01  0.51100000000E-03 0. -1.
</event>
<event>
 8    1  0.1081309E+005  0.1043930E+01  0.7957747E-01            NaN
         13   -1    0    0    0    0  0.00000000000E+00  0.00000000000E+00  0.74505805969E-08  0.10566000000E+00  0.10566000000E+00 0. -1.
     999900   -1    0    0    0    0 -0.00000000000E+00 -0.00000000000E+00 -0.74505805969E-08  0.93827000000E+00  0.93827000000E+00 0. -1.
     999902    2    1    2    0    0  0.16845155043E-01  0.12393681528E-01 -0.99633222989E-02  0.10207647160E+01  0.10205018251E+01 0.  0.
     999903    2    3    3    0    0  0.90440079503E-01  0.95230540050E-01 -0.16303412619E-01  0.13379326509E+00  0.19661454209E-01 0.  0.
         14    1    1    2    0    0 -0.16845155043E-01 -0.12393681528E-01  0.99633222989E-02  0.23165283971E-01  0.00000000000E+00 0. -1.
     999901    1    3    3    0    0 -0.73594924460E-01 -0.82836858523E-01  0.63400903203E-02  0.88697145094E+00  0.88000000000E+00 0. -1.
        -11    1    4    4    0    0  0.73420882872E-01  0.84904648541E-01 -0.90977998324E-02  0.11261641296E+00  0.51100000000E-03 0.  1.
         11    1    4    4    0    0  0.17019196630E-01  0.10325891509E-01 -0.72056127868E-02  0.21176852127E-01  0.51100000000E-03 0. -1.
</event>
<event>
 8    1  0.1081309E+005  0.1043930E+01  0.7957747E-01            NaN
         13   -1    0    0    0    0  0.00000000000E+00  0.00000000000E+00  0.74505805969E-08  0.10566000000E+00  0.10566000000E+00 0.  1.
     999900   -1    0    0    0    0 -0.00000000000E+00 -0.00000000000E+00 -0.74505805969E-08  0.93827000000E+00  0.93827000000E+00 0.  1.
     999902    2    1    2    0    0  0.11886662708E-01 -0.10468393242E-01 -0.12227531595E-01  0.10239201890E+01  0.10237246509E+01 0.  0.
     999903    2    3    3    0    0 -0.88260250029E-01 -0.74058270548E-01 -0.66362788859E-01  0.13431145326E+00  0.19001251526E-01 0.  0.
         14    1    1    2    0    0 -0.11886662708E-01  0.10468393242E-01  0.12227531595E-01  0.20009811001E-01  0.00000000000E+00 0.  1.
     999901    1    3    3    0    0  0.10014691274E+00  0.63589877306E-01  0.54135257264E-01  0.88960873574E+00  0.88000000000E+00 0. -1.
        -11    1    4    4    0    0 -0.82072470983E-01 -0.73465735566E-01 -0.65090863278E-01  0.12794602924E+00  0.51100000000E-03 0.  1.
         11    1    4    4    0    0 -0.61877790459E-02 -0.59253498191E-03 -0.12719255807E-02  0.63654240164E-02  0.51100000000E-03 0. -1.
</event>
<event>
 8    1  0.1081309E+005  0.1043930E+01  0.7957747E-01            NaN
         13   -1    0    0    0    0  0.00000000000E+00  0.00000000000E+00  0.74505805969E-08  0.10566000000E+00  0.10566000000E+00 0. -1.
     999900   -1    0    0    0    0 -0.00000000000E+00 -0.00000000000E+00 -0.74505805969E-08  0.93827000000E+00  0.93827000000E+00 0. -1.
     999902    2    1    2    0    0 -0.22466613386E-03 -0.15184664466E-01 -0.18136670107E-01  0.10202749094E+01  0.10200006507E+01 0.  0.
     999903    2    3    3    0    0  0.11856246097E+00  0.32014886803E-01  0.33059058257E-01  0.12956778478E+00  0.24756804945E-01 0.  0.
         14    1    1    2    0    0  0.22466613386E-03  0.15184664466E-01  0.18136670107E-01  0.23655090624E-01  0.00000000000E+00 0. -1.
     999901    1    3    3    0    0 -0.11878712711E+00 -0.47199551270E-01 -0.51195728364E-01  0.89070712460E+00  0.88000000000E+00 0. -1.
        -11    1    4    4    0    0  0.73391001661E-01  0.16771745303E-01  0.80056688240E-02  0.75709196400E-01  0.51100000000E-03 0. -1.
         11    1    4    4    0    0  0.45171459310E-01  0.15243141501E-01  0.25053389433E-01  0.53858588378E-01  0.51100000000E-03 0.  1.
</event>
<event>
 8    1  0.1081309E+005  0.1043930E+01  0.7957747E-01            NaN
         13   -1    0    0    0    0  0.00000000000E+00  0.00000000000E+00  0.74505805969E-08  0.10566000000E+00  0.10566000000E+00 0.  1.
     999900   -1    0    0    0    0 -0.00000000000E+00 -0.00000000000E+00 -0.74505805969E-08  0.93827000000E+00  0.93827000000E+00 0.  1.
     999902    2    1    2    0    0  0.42721015144E-02  0.19107495227E-01 -0.14108642321E-01  0.10197970140E+01  0.10195114265E+01 0.  0.
     999903    2    3    3    0    0  0.91976627005E-01 -0.67425319865E-01  0.55723486759E-01  0.12847409938E+00  0.19864882579E-01 0.  0.
         14    1    1    2    0    0 -0.42721015144E-02 -0.19107495227E-01  0.14108642321E-01  0.24132986001E-01  0.00000000000E+00 0.  1.
     999901    1    3    3    0    0 -0.87704525490E-01  0.86532815092E-01 -0.69832129080E-01  0.89132291462E+00  0.88000000000E+00 0. -1.
        -11    1    4    4    0    0  0.36247089689E-01 -0.16856673043E-01  0.13574336249E-01  0.42219932053E-01  0.51100000000E-03 0.  1.
         11    1    4    4    0    0  0.55729537316E-01 -0.50568646822E-01  0.42149150510E-01  0.86254167323E-01  0.51100000000E-03 0. -1.
</event>
<event>
 8    1  0.1081309E+005  0.1043930E+01  0.7957747E-01            NaN
         13   -1    0    0    0    0  0.00000000000E+00  0.00000000000E+00  0.74505805969E-08  0.10566000000E+00  0.10566000000E+00 0. -1.
     999900   -1    0    0    0    0 -0.00000000000E+00 -0.00000000000E+00 -0.74505805969E-08  0.93827000000E+00  0.93827000000E+00 0.  1.
     999902    2    1    2    0    0 -0.23421666591E-02  0.15955317598E-01 -0.17346126153E-01  0.10202457015E+01  0.10199707571E+01 0.  0.
     999903    2    3    3    0    0  0.11109235050E+00 -0.34487412745E-01 -0.56118101043E-01  0.13068675190E+00  0.19972327850E-01 0.  0.
         14    1    1    2    0    0  0.23421666591E-02 -0.15955317598E-01  0.17346126153E-01  0.23684298529E-01  0.00000000000E+00 0. -1.
     999901    1    3    3    0    0 -0.11343451716E+00  0.50442730343E-01  0.38771974890E-01  0.88955894957E+00  0.88000000000E+00 0. -1.
        -11    1    4    4    0    0  0.70194183928E-01 -0.30110570354E-01 -0.42183114437E-01  0.87255636889E-01  0.51100000000E-03 0.  1.
         11    1    4    4    0    0  0.40898166572E-01 -0.43768423912E-02 -0.13934986606E-01  0.43431115010E-01  0.51100000000E-03 0. -1.
</event>
<event>
 8    1  0.1081309E+005  0.1043930E+01  0.7957747E-01            NaN
         13   -1    0    0    0    0  0.00000000000E+00  0.00000000000E+00  0.74505805969E-08  0.10566000000E+00  0.10566000000E+00 0.  1.
     999900   -1    0    0    0    0 -0.00000000000E+00 -0.00000000000E+00 -0.74505805969E-08  0.93827000000E+00  0.93827000000E+00 0.  1.
     999902    2    1    2    0    0 -0.40668234255E-02 -0.87198379350E-02  0.21145599471E-01  0.10206983190E+01  0.10204339015E+01 0.  0.
     999903    2    3    3    0    0 -0.10157511370E+00  0.57462249494E-02 -0.77921450987E-01  0.12967002866E+00  0.19800024858E-01 0.  0.
         14    1    1    2    0    0  0.40668234255E-02  0.87198379350E-02 -0.21145599471E-01  0.23231681028E-01  0.00000000000E+00 0. -1.
     999901    1    3    3    0    0  0.97508290276E-01 -0.14466062884E-01  0.99067050458E-01  0.89102829031E+00  0.88000000000E+00 0. -1.
        -11    1    4    4    0    0 -0.36124373373E-01 -0.32336444417E-03 -0.39500496410E-01  0.53531535134E-01  0.51100000000E-03 0.  1.
         11    1    4    4    0    0 -0.65450740329E-01  0.60695893936E-02 -0.38420954577E-01  0.76138493528E-01  0.51100000000E-03 0. -1.
</event>
<event>
 8    1  0.1081309E+005  0.1043930E+01  0.7957747E-01            NaN
         13   -1    0    0    0    0  0.00000000000E+00  0.00000000000E+00  0.74505805969E-08  0.10566000000E+00  0.10566000000E+00 0.  1.
     999900   -1    0    0    0    0 -0.00000000000E+00 -0.00000000000E+00 -0.74505805969E-08  0.93827000000E+00  0.93827000000E+00 0. -1.
     999902    2    1    2    0    0 -0.11466944288E-01 -0.17565410709E-01 -0.10454253095E-01  0.10204922981E+01  0.10202231151E+01 0.  0.
     999903    2    3    3    0    0  0.69460098326E-01 -0.10058408404E+00  0.43299098944E-01  0.13126189529E+00  0.20322646582E-01 0.  0.
         14    1    1    2    0    0  0.11466944288E-01  0.17565410709E-01  0.10454253095E-01  0.23437701945E-01  0.00000000000E+00 0.  1.
     999901    1    3    3    0    0 -0.80927042614E-01  0.83018673331E-01 -0.53753352038E-01  0.88923040277E+00  0.88000000000E+00 0. -1.
        -11    1    4    4    0    0  0.45041410101E-01 -0.51728939156E-01  0.31011270292E-01  0.75276634995E-01  0.51100000000E-03 0. -1.
         11    1    4    4    0    0  0.24418688225E-01 -0.48855144884E-01  0.12287828652E-01  0.55985260294E-01  0.51100000000E-03 0.  1.
</event>
<event>
 8    1  0.1081309E+005  0.1043930E+01  0.7957747E-01            NaN
         13   -1    0    0    0    0  0.00000000000E+00  0.00000000000E+00  0.74505805969E-08  0.10566000000E+00  0.10566000000E+00 0.  1.
     999900   -1    0    0    0    0 -0.00000000000E+00 -0.00000000000E+00 -0.74505805969E-08  0.93827000000E+00  0.93827000000E+00 0. -1.
     999902    2    1    2    0    0 -0.18319819627E-01  0.15779634211E-02  0.15086168311E-01  0.10201455884E+01  0.10198682873E+01 0.  0.
     999903    2    3    3    0    0 -0.46809814596E-01  0.34356169995E-01 -0.11450191425E+00  0.12959566743E+00  0.17687382255E-01 0.  0.
         14    1    1    2    0    0  0.18319819627E-01 -0.15779634211E-02 -0.15086168311E-01  0.23784411576E-01  0.00000000000E+00 0. -1.
     999901    1    3    3    0    0  0.28489994969E-01 -0.32778206574E-01  0.12958808256E+00  0.89054992099E+00  0.88000000000E+00 0.  1.
        -11    1    4    4    0    0 -0.93303612902E-02  0.16861983140E-01 -0.33838546278E-01  0.38944710198E-01  0.51100000000E-03 0. -1.
         11    1    4    4    0    0 -0.37479453305E-01  0.17494186855E-01 -0.80663367971E-01  0.90650957232E-01  0.51100000000E-03 0.  1.
</event>
<event>
 8    1  0.1081309E+005  0.1043930E+01  0.7957747E-01            NaN
         13   -1    0    0    0    0  0.00000000000E+00  0.00000000000E+00  0.74505805969E-08  0.10566000000E+00  0.10566000000E+00 0.  1.
     999900   -1    0    0    0    0 -0.00000000000E+00 -0.00000000000E+00 -0.74505805969E-08  0.93827000000E+00  0.93827000000E+00 0.  1.
     999902    2    1    2    0    0 -0.17077210157E-01 -0.14315836913E-01  0.66313798542E-02  0.10206802797E+01  0.10204154467E+01 0.  0.
     999903    2    3    3    0    0 -0.10193332793E+00 -0.78762077044E-01  0.30881315579E-01  0.13392104637E+00  0.19680520449E-01 0.  0.
         14    1    1    2    0    0  0.17077210157E-01  0.14315836913E-01 -0.66313798542E-02  0.23249720257E-01  0.00000000000E+00 0.  1.
     999901    1    3    3    0    0  0.84856117774E-01  0.64446240131E-01 -0.24249935725E-01  0.88675923337E+00  0.88000000000E+00 0.  1.
        -11    1    4    4    0    0 -0.34580768298E-01 -0.30732007329E-01  0.20363363143E-02  0.46310836714E-01  0.51100000000E-03 0.  1.
         11    1    4    4    0    0 -0.67352559633E-01 -0.48030069715E-01  0.28844979265E-01  0.87610209655E-01  0.51100000000E-03 0. -1.
</event>
<event>
 8    1  0.1081309E+005  0.1043930E+01  0.7957747E-01            NaN
         13   -1    0    0    0    0  0.00000000000E+00  0.00000000000E+00  0.74505805969E-08  0.10566000000E+00  0.10566000000E+00 0. -1.
     999900   -1    0    0    0    0 -0.00000000000E+00 -0.00000000000E+00 -0.74505805969E-08  0.93827000000E+00  0.93827000000E+00 0.  1.
     999902    2    1    2    0    0 -0.24182051181E-03 -0.39326456620E-02 -0.23224863115E-01  0.10203732930E+01  0.10201013374E+01 0.  0.
     999903    2    3    3    0    0  0.71151630189E-01 -0.73834572696E-01 -0.81910549931E-01  0.13277692410E+00  0.20156259077E-01 0.  0.
         14    1    1    2    0    0  0.24182051181E-03  0.39326456620E-02  0.23224863115E-01  0.23556707023E-01  0.00000000000E+00 0. -1.
     999901    1    3    3    0    0 -0.71393450700E-01  0.69901927034E-01  0.58685686816E-01  0.88759636888E+00  0.88000000000E+00 0.  1.
        -11    1    4    4    0    0  0.51654176428E-01 -0.64968570073E-01 -0.67088097190E-01  0.10672461265E+00  0.51100000000E-03 0. -1.
         11    1    4    4    0    0  0.19497453760E-01 -0.88660026228E-02 -0.14822452740E-01  0.26052311450E-01  0.51100000000E-03 0.  1.
</event>
<event>
 8    1  0.1081309E+005  0.1043930E+01  0.7957747E-01            NaN
         13   -1    0    0    0    0  0.00000000000E+00  0.00000000000E+00  0.74505805969E-08  0.10566000000E+00  0.10566000000E+00 0.  1.
     999900   -1    0    0    0    0 -0.00000000000E+00 -0.00000000000E+00 -0.74505805969E-08  0.93827000000E+00  0.93827000000E+00 0.  1.
     999902    2    1    2    0    0 -0.12756030493E-01 -0.19509574582E-01 -0.64503718253E-02  0.10197443201E+01  0.10194574691E+01 0.  0.
     999903    2    3    3    0    0 -0.40031187962E-02 -0.90544162996E-02 -0.12862500931E+00  0.13119912384E+00  0.23891623249E-01 0.  0.
         14    1    1    2    0    0  0.12756030493E-01  0.19509574582E-01  0.64503718253E-02  0.24185679874E-01  0.00000000000E+00 0.  1.
     999901    1    3    3    0    0 -0.87529116967E-02 -0.10455158282E-01  0.12217463749E+00  0.88854519629E+00  0.88000000000E+00 0. -1.
        -11    1    4    4    0    0 -0.60934929155E-02 -0.15160012821E-01 -0.11450326013E+00  0.11566423106E+00  0.51100000000E-03 0.  1.
         11    1    4    4    0    0  0.20903741193E-02  0.61055965210E-02 -0.14121749180E-01  0.15534892782E-01  0.51100000000E-03 0. -1.
</event>
<event>
 8    1  0.1081309E+005  0.1043930E+01  0.7957747E-01            NaN
         13   -1    0    0    0    0  0.00000000000E+00  0.00000000000E+00  0.74505805969E-08  0.10566000000E+00  0.10566000000E+00 0. -1.
     999900   -1    0    0    0    0 -0.00000000000E+00 -0.00000000000E+00 -0.74505805969E-08  0.93827000000E+00  0.93827000000E+00 0.  1.
     999902    2    1    2    0    0 -0.18335605720E-01  0.84056738770E-02  0.12359766021E-01  0.10202738463E+01  0.10199995627E+01 0.  0.
     999903    2    3    3    0    0  0.10573522354E-01 -0.78507012849E-01 -0.99211102701E-01  0.12851288534E+00  0.19939116259E-01 0.  0.
         14    1    1    2    0    0  0.18335605720E-01 -0.84056738770E-02 -0.12359766021E-01  0.23656153671E-01  0.00000000000E+00 0.  1.
     999901    1    3    3    0    0 -0.28909128074E-01  0.86912686726E-01  0.11157086872E+00  0.89176096099E+00  0.88000000000E+00 0. -1.
        -11    1    4    4    0    0  0.11297935532E-01 -0.22405515126E-01 -0.24448565571E-01  0.35037750139E-01  0.51100000000E-03 0. -1.
         11    1    4    4    0    0 -0.72441317739E-03 -0.56101497723E-01 -0.74762537130E-01  0.93475135199E-01  0.51100000000E-03 0.  1.
</event>
<event>
 8    1  0.1081309E+005  0.1043930E+01  0.7957747E-01            NaN
         13   -1    0    0    0    0  0.00000000000E+00  0.00000000000E+00  0.74505805969E-08  0.10566000000E+00  0.10566000000E+00 0. -1.
     999900   -1    0    0    0    0 -0.00000000000E+00 -0.00000000000E+00 -0.74505805969E-08  0.93827000000E+00  0.93827000000E+00 0. -1.
     999902    2    1    2    0    0 -0.11902039235E-01 -0.22036247105E-01 -0.57445068298E-03  0.10188783590E+01  0.10185703342E+01 0.  0.
     999903    2    3    3    0    0 -0.34348385851E-01  0.70147158287E-01 -0.10012925689E+00  0.12819728354E+00  0.17556764950E-01 0.  0.
         14    1    1    2    0    0  0.11902039235E-01  0.22036247105E-01  0.57445068298E-03  0.25051641024E-01  0.00000000000E+00 0.  1.
     999901    1    3    3    0    0  0.22446346616E-01 -0.92183405392E-01  0.99554806203E-01  0.89068107544E+00  0.88000000000E+00 0.  1.
        -11    1    4    4    0    0 -0.17937028169E-01  0.52866792046E-01 -0.75752933214E-01  0.94103149215E-01  0.51100000000E-03 0. -1.
         11    1    4    4    0    0 -0.16411357682E-01  0.17280366241E-01 -0.24376323672E-01  0.34094134322E-01  0.51100000000E-03 0.  1.
</event>
<event>
 8    1  0.1081309E+005  0.1043930E+01  0.7957747E-01            NaN
         13   -1    0    0    0    0  0.00000000000E+00  0.00000000000E+00  0.74505805969E-08  0.10566000000E+00  0.10566000000E+00 0.  1.
     999900   -1    0    0    0    0 -0.00000000000E+00 -0.00000000000E+00 -0.74505805969E-08  0.93827000000E+00  0.93827000000E+00 0. -1.
     999902    2    1    2    0    0  0.82423055325E-02 -0.16148728445E-02  0.21694116197E-01  0.10206667652E+01  0.10204016207E+01 0.  0.
     999903    2    3    3    0    0  0.44603607707E-01  0.19125904257E-01  0.12308570998E+00  0.13385642506E+00  0.20301933253E-01 0.  0.
         14    1    1    2    0    0 -0.82423055325E-02  0.16148728445E-02 -0.21694116197E-01  0.23263234779E-01  0.00000000000E+00 0. -1.
     999901    1    3    3    0    0 -0.36361302175E-01 -0.20740777102E-01 -0.10139159378E+00  0.88681034016E+00  0.88000000000E+00 0. -1.
        -11    1    4    4    0    0  0.23645307566E-01  0.19975984373E-01  0.83495102329E-01  0.89049614011E-01  0.51100000000E-03 0.  1.
         11    1    4    4    0    0  0.20958300141E-01 -0.85008011572E-03  0.39590607651E-01  0.44806811047E-01  0.51100000000E-03 0. -1.
</event>
<event>
 7    1  0.1081309E+005  0.1043930E+01  0.7957747E-01            NaN
         13   -1    0    0    0    0  0.00000000000E+00  0.00000000000E+00  0.74505805969E-08  0.10566000000E+00  0.10566000000E+00 0. -1.
     999900   -1    0    0    0    0 -0.00000000000E+00 -0.00000000000E+00 -0.74505805969E-08  0.93827000000E+00  0.93827000000E+00 0. -1.
     999903    2    1    2    0    0 -0.87912854932E-02  0.11109581599E+00 -0.78679844207E-02  0.11359166030E+00  0.20532731925E-01 0.  0.
         14    1    1    2    0    0 -0.37035800841E-01  0.37271769911E-02  0.18644184600E-01  0.41631094288E-01  0.00000000000E+00 0.  1.
     999901    1    1    2    0    0  0.45827086334E-01 -0.11482299298E+00 -0.10776200180E-01  0.88870724541E+00  0.88000000000E+00 0. -1.
        -11    1    3    3    0    0 -0.64456722167E-02  0.88121231153E-01  0.22182542101E-02  0.88385970850E-01  0.51100000000E-03 0. -1.
         11    1    3    3    0    0 -0.23456132764E-02  0.22974584833E-01 -0.10086238631E-01  0.25205689449E-01  0.51100000000E-03 0.  1.
</event>
<event>
 8    1  0.1081309E+005  0.1043930E+01  0.7957747E-01            NaN
         13   -1    0    0    0    0  0.00000000000E+00  0.00000000000E+00  0.74505805969E-08  0.10566000000E+00  0.10566000000E+00 0. -1.
     999900   -1    0    0    0    0 -0.00000000000E+00 -0.00000000000E+00 -0.74505805969E-08  0.93827000000E+00  0.93827000000E+00 0. -1.
     999902    2    1    2    0    0 -0.19836145118E-02  0.19301026446E-01  0.13788432871E-01  0.10201269492E+01  0.10198492081E+01 0.  0.
     999903    2    3    3    0    0  0.35550288940E-01  0.33734296406E-02  0.12468420127E+00  0.13223035963E+00  0.25758782754E-01 0.  0.
         14    1    1    2    0    0  0.19836145118E-02 -0.19301026446E-01 -0.13788432871E-01  0.23803050843E-01  0.00000000000E+00 0. -1.
     999901    1    3    3    0    0 -0.37533903452E-01  0.15927596806E-01 -0.11089576840E+00  0.88789658953E+00  0.88000000000E+00 0. -1.
        -11    1    4    4    0    0  0.33996608082E-01 -0.70934304076E-03  0.74978915581E-01  0.82330865606E-01  0.51100000000E-03 0. -1.
         11    1    4    4    0    0  0.15536808581E-02  0.40827726814E-02  0.49705285691E-01  0.49899494022E-01  0.51100000000E-03 0.  1.
</event>
<event>
 8    1  0.1081309E+005  0.1043930E+01  0.7957747E-01            NaN
         13   -1    0    0    0    0  0.00000000000E+00  0.00000000000E+00  0.74505805969E-08  0.10566000000E+00  0.10566000000E+00 0.  1.
     999900   -1    0    0    0    0 -0.00000000000E+00 -0.00000000000E+00 -0.74505805969E-08  0.93827000000E+00  0.93827000000E+00 0. -1.
     999902    2    1    2    0    0 -0.15896899111E-01  0.19307441381E-01 -0.26767131698E-04  0.10189202137E+01  0.10186132301E+01 0.  0.
     999903    2    3    3    0    0  0.14971756225E-01 -0.98249988465E-01 -0.76929218999E-01  0.12724392138E+00  0.19892135990E-01 0.  0.
         14    1    1    2    0    0  0.15896899111E-01 -0.19307441381E-01  0.26767131698E-04  0.25009786294E-01  0.00000000000E+00 0. -1.
     999901    1    3    3    0    0 -0.30868655336E-01  0.11755742985E+00  0.76902451867E-01  0.89167629233E+00  0.88000000000E+00 0.  1.
        -11    1    4    4    0    0 -0.25871312065E-02 -0.37423223011E-01 -0.22460434321E-01  0.43725542870E-01  0.51100000000E-03 0.  1.
         11    1    4    4    0    0  0.17558887431E-01 -0.60826765454E-01 -0.54468784678E-01  0.83518378509E-01  0.51100000000E-03 0. -1.
</event>
<event>
 8    1  0.1081309E+005  0.1043930E+01  0.7957747E-01            NaN
         13   -1    0    0    0    0  0.00000000000E+00  0.00000000000E+00  0.74505805969E-08  0.10566000000E+00  0.10566000000E+00 0. -1.
     999900   -1    0    0    0    0 -0.00000000000E+00 -0.00000000000E+00 -0.74505805969E-08  0.93827000000E+00  0.93827000000E+00 0. -1.
     999902    2    1    2    0    0 -0.41071954787E-02 -0.19243064779E-02  0.22645443075E-01  0.10208348035E+01  0.10205735191E+01 0.  0.
     999903    2    3    3    0    0 -0.56972611294E-01  0.65775102196E-02 -0.11351014341E+00  0.12875555991E+00  0.20107199515E-01 0.  0.
         14    1    1    2    0    0  0.41071954787E-02  0.19243064779E-02 -0.22645443075E-01  0.23095196518E-01  0.00000000000E+00 0.  1.
     999901    1    3    3    0    0  0.52865415815E-01 -0.85018166975E-02  0.13615558649E+00  0.89207924357E+00  0.88000000000E+00 0.  1.
        -11    1    4    4    0    0 -0.24326422311E-01  0.10044403847E-01 -0.36172650005E-01  0.44736859528E-01  0.51100000000E-03 0. -1.
         11    1    4    4    0    0 -0.32646188983E-01 -0.34668936272E-02 -0.77337493408E-01  0.84018700384E-01  0.51100000000E-03 0.  1.
</event>
<event>
 7    1  0.1081309E+005  0.1043930E+01  0.7957747E-01            NaN
         13   -1    0    0    0    0  0.00000000000E+00  0.00000000000E+00  0.74505805969E-08  0.10566000000E+00  0.10566000000E+00 0.  1.
     999900   -1    0    0    0    0 -0.00000000000E+00 -0.00000000000E+00 -0.74505805969E-08  0.93827000000E+00  0.93827000000E+00 0. -1.
     999903    2    1    2    0    0 -0.56869982958E-01  0.74269965756E-01  0.47611777706E-01  0.10689387704E+00  0.20228613311E-01 0.  0.
         14    1    1    2    0    0  0.43656371367E-01 -0.53191806820E-02 -0.31494099083E-01  0.54092982180E-01  0.00000000000E+00 0. -1.
     999901    1    1    2    0    0  0.13213611591E-01 -0.68950785074E-01 -0.16117678623E-01  0.88294314078E+00  0.88000000000E+00 0.  1.
        -11    1    3    3    0    0 -0.41927357902E-01  0.59208361044E-01  0.45330507096E-01  0.85549104921E-01  0.51100000000E-03 0.  1.
         11    1    3    3    0    0 -0.14942625057E-01  0.15061604711E-01  0.22812706101E-02  0.21344772115E-01  0.51100000000E-03 0. -1.
</event>
<event>
 8    1  0.1081309E+005  0.1043930E+01  0.7957747E-01            NaN
         13   -1    0    0    0    0  0.00000000000E+00  0.00000000000E+00  0.74505805969E-08  0.10566000000E+00  0.10566000000E+00 0. -1.
     999900   -1    0    0    0    0 -0.00000000000E+00 -0.00000000000E+00 -0.74505805969E-08  0.93827000000E+00  0.93827000000E+00 0.  1.
     999902    2    1    2    0    0 -0.17372744277E-01  0.13697520801E-01 -0.76974306274E-02  0.10205059790E+01  0.10202371139E+01 0.  0.
     999903    2    3    3    0    0 -0.45346393268E-02 -0.10822767432E+00  0.66952517119E-01  0.12887646806E+00  0.19816963141E-01 0.  0.
         14    1    1    2    0    0  0.17372744277E-01 -0.13697520801E-01  0.76974306274E-02  0.23424020963E-01  0.00000000000E+00 0.  1.
     999901    1    3    3    0    0 -0.12838104950E-01  0.12192519512E+00 -0.74649947746E-01  0.89162951098E+00  0.88000000000E+00 0.  1.
        -11    1    4    4    0    0 -0.51143684564E-02 -0.62085520770E-02  0.58086202211E-02  0.99349923741E-02  0.51100000000E-03 0. -1.
         11    1    4    4    0    0  0.57972912969E-03 -0.10201912225E+00  0.61143896898E-01  0.11894147569E+00  0.51100000000E-03 0.  1.
</event>
<event>
 8    1  0.1081309E+005  0.1043930E+01  0.7957747E-01            NaN
         13   -1    0    0    0    0  0.00000000000E+00  0.00000000000E+00  0.74505805969E-08  0.10566000000E+00  0.10566000000E+00 0.  1.
     999900   -1    0    0    0    0 -0.00000000000E+00 -0.00000000000E+00 -0.74505805969E-08  0.93827000000E+00  0.93827000000E+00 0. -1.
     999902    2    1    2    0    0  0.20768062410E-01 -0.21298044007E-02  0.96475024050E-02  0.10209316786E+01  0.10206726065E+01 0.  0.
     999903    2    3    3    0    0 -0.11035759108E+00  0.63313906854E-01 -0.53395462264E-02  0.12868651727E+00  0.18554251887E-01 0.  0.
         14    1    1    2    0    0 -0.20768062410E-01  0.21298044007E-02 -0.96475024050E-02  0.22998321367E-01  0.00000000000E+00 0.  1.
     999901    1    3    3    0    0  0.13112565349E+00 -0.65443711254E-01  0.14987048631E-01  0.89224516136E+00  0.88000000000E+00 0.  1.
        -11    1    4    4    0    0 -0.12645790888E-01  0.13108398500E-02  0.11784525723E-02  0.12778270609E-01  0.51100000000E-03 0.  1.
         11    1    4    4    0    0 -0.97711800194E-01  0.62003067004E-01 -0.65179987987E-02  0.11590824666E+00  0.51100000000E-03 0. -1.
</event>
<event>
 8    1  0.1081309E+005  0.1043930E+01  0.7957747E-01            NaN
         13   -1    0    0    0    0  0.00000000000E+00  0.00000000000E+00  0.74505805969E-08  0.10566000000E+00  0.10566000000E+00 0. -1.
     999900   -1    0    0    0    0 -0.00000000000E+00 -0.00000000000E+00 -0.74505805969E-08  0.93827000000E+00  0.93827000000E+00 0.  1.
     999902    2    1    2    0    0  0.12551685806E-01  0.11313473500E-01 -0.17429971235E-01  0.10196536041E+01  0.10193645712E+01 0.  0.
     999903    2    3    3    0    0 -0.31427882025E-02  0.70034604150E-01 -0.11097365487E+00  0.13261081573E+00  0.18861428300E-01 0.  0.
         14    1    1    2    0    0 -0.12551685806E-01 -0.11313473500E-01  0.17429971235E-01  0.24276395871E-01  0.00000000000E+00 0. -1.
     999901    1    3    3    0    0  0.15694474009E-01 -0.58721130650E-01  0.93543683636E-01  0.88704278840E+00  0.88000000000E+00 0. -1.
        -11    1    4    4    0    0 -0.11103242854E-01  0.41977990917E-01 -0.67139098421E-01  0.79958447840E-01  0.51100000000E-03 0.  1.
         11    1    4    4    0    0  0.79604546520E-02  0.28056613233E-01 -0.43834556451E-01  0.52652367892E-01  0.51100000000E-03 0. -1.
</event>
<event>
 8    1  0.1081309E+005  0.1043930E+01  0.7957747E-01            NaN
         13   -1    0    0    0    0  0.00000000000E+00  0.00000000000E+00  0.74505805969E-08  0.10566000000E+00  0.10566000000E+00 0. -1.
     999900   -1    0    0    0    0 -0.00000000000E+00 -0.00000000000E+00 -0.74505805969E-08  0.93827000000E+00  0.93827000000E+00 0.  1.
     999902    2    1    2    0    0 -0.53478847790E-03 -0.63498476341E-02 -0.23146217840E-01  0.10199226269E+01  0.10196400398E+01 0.  0.
     999903    2    3    3    0    0  0.10448701924E+00  0.55084628763E-01  0.47214376594E-01  0.12876922357E+00  0.20011548293E-01 0.  0.
         14    1    1    2    0    0  0.53478847790E-03  0.63498476341E-02  0.23146217840E-01  0.24007373117E-01  0.00000000000E+00 0. -1.
     999901    1    3    3    0    0 -0.10502180772E+00 -0.61434476397E-01 -0.70360594435E-01  0.89115340331E+00  0.88000000000E+00 0.  1.
        -11    1    4    4    0    0  0.23855801172E-01  0.22473006446E-01  0.14507438454E-01  0.35844973982E-01  0.51100000000E-03 0. -1.
         11    1    4    4    0    0  0.80631218071E-01  0.32611622317E-01  0.32706938140E-01  0.92924249587E-01  0.51100000000E-03 0.  1.
</event>
<event>
 8    1  0.1081309E+005  0.1043930E+01  0.7957747E-01            NaN
         13   -1    0    0    0    0  0.00000000000E+00  0.00000000000E+00  0.74505805969E-08  0.10566000000E+00  0.10566000000E+00 0. -1.
     999900   -1    0    0    0    0 -0.00000000000E+00 -0.00000000000E+00 -0.74505805969E-08  0.93827000000E+00  0.93827000000E+00 0.  1.
     999902    2    1    2    0    0  0.76631693471E-02  0.24207202985E-01  0.16033429723E-02  0.10184882322E+01  0.10181704158E+01 0.  0.
     999903    2    3    3    0    0  0.24247786972E-01  0.74306782005E-01 -0.10285910113E+00  0.13073972073E+00  0.20085488961E-01 0.  0.
         14    1    1    2    0    0 -0.76631693471E-02 -0.24207202985E-01 -0.16033429723E-02  0.25441767813E-01  0.00000000000E+00 0.  1.
     999901    1    3    3    0    0 -0.16584617625E-01 -0.50099579020E-01  0.10446244410E+00  0.88774851145E+00  0.88000000000E+00 0. -1.
        -11    1    4    4    0    0  0.14388510079E-01  0.64196905424E-01 -0.90999599541E-01  0.11229185245E+00  0.51100000000E-03 0. -1.
         11    1    4    4    0    0  0.98592768925E-02  0.10109876582E-01 -0.11859501590E-01  0.18447868286E-01  0.51100000000E-03 0.  1.
</event>
<event>
 7    1  0.1081309E+005  0.1043930E+01  0.7957747E-01            NaN
         13   -1    0    0    0    0  0.00000000000E+00  0.00000000000E+00  0.74505805969E-08  0.10566000000E+00  0.10566000000E+00 0.  1.
     999900   -1    0    0    0    0 -0.00000000000E+00 -0.00000000000E+00 -0.74505805969E-08  0.93827000000E+00  0.93827000000E+00 0. -1.
     999903    2    1    2    0    0 -0.40388349718E-01  0.44044816724E-01 -0.32244625635E-01  0.70956614607E-01  0.20590303565E-01 0.  0.
         14    1    1    2    0    0  0.31022523662E-01  0.21648822382E-01 -0.74982336630E-01  0.83984637234E-01  0.00000000000E+00 0. -1.
     999901    1    1    2    0    0  0.93658260556E-02 -0.65693639106E-01  0.10722696227E+00  0.88898874816E+00  0.88000000000E+00 0.  1.
        -11    1    3    3    0    0 -0.35875976119E-01  0.35331998558E-01 -0.17642876579E-01  0.53356986417E-01  0.51100000000E-03 0.  1.
         11    1    3    3    0    0 -0.45123735991E-02  0.87128181663E-02 -0.14601749057E-01  0.17599628190E-01  0.51100000000E-03 0. -1.
</event>
<event>
 8    1  0.1081309E+005  0.1043930E+01  0.7957747E-01            NaN
         13   -1    0    0    0    0  0.00000000000E+00  0.00000000000E+00  0.74505805969E-08  0.10566000000E+00  0.10566000000E+00 0. -1.
     999900   -1    0    0    0    0 -0.00000000000E+00 -0.00000000000E+00 -0.74505805969E-08  0.93827000000E+00  0.93827000000E+00 0.  1.
     999902    2    1    2    0    0 -0.16228335464E-01  0.17566855282E-01  0.34117972079E-02  0.10197723172E+01  0.10194861379E+01 0.  0.
     999903    2    3    3    0    0 -0.11240279365E+00  0.81513651766E-02  0.66315784904E-01  0.13225043608E+00  0.19787919035E-01 0.  0.
         14    1    1    2    0    0  0.16228335464E-01 -0.17566855282E-01 -0.34117972079E-02  0.24157682766E-01  0.00000000000E+00 0. -1.
     999901    1    3    3    0    0  0.96174458191E-01  0.94154901055E-02 -0.62903987696E-01  0.88752188116E+00  0.88000000000E+00 0.  1.
        -11    1    4    4    0    0 -0.71317863840E-01  0.43898965707E-02  0.52754648011E-01  0.88819045831E-01  0.51100000000E-03 0. -1.
         11    1    4    4    0    0 -0.41084929815E-01  0.37614686058E-02  0.13561136894E-01  0.43431390247E-01  0.51100000000E-03 0.  1.
</event>
<event>
 8    1  0.1081309E+005  0.1043930E+01  0.7957747E-01            NaN
         13   -1    0    0    0    0  0.00000000000E+00  0.00000000000E+00  0.74505805969E-08  0.10566000000E+00  0.10566000000E+00 0. -1.
     999900   -1    0    0    0    0 -0.00000000000E+00 -0.00000000000E+00 -0.74505805969E-08  0.93827000000E+00  0.93827000000E+00 0.  1.
     999902    2    1    2    0    0  0.25727961901E-02  0.54545248316E-02  0.23124504201E-01  0.10200320123E+01  0.10197520249E+01 0.  0.
     999903    2    3    3    0    0  0.70065784153E-02  0.94389604351E-01 -0.85245326066E-01  0.12892420350E+00  0.19904649763E-01 0.  0.
         14    1    1    2    0    0 -0.25727961901E-02 -0.54545248316E-02 -0.23124504201E-01  0.23897987696E-01  0.00000000000E+00 0.  1.
     999901    1    3    3    0    0 -0.44337822252E-02 -0.88935079519E-01  0.10836983027E+00  0.89110780880E+00  0.88000000000E+00 0. -1.
        -11    1    4    4    0    0  0.13169269060E-01  0.77692304934E-01 -0.71876621605E-01  0.10665849121E+00  0.51100000000E-03 0.  1.
         11    1    4    4    0    0 -0.61626906450E-02  0.16697299417E-01 -0.13368704461E-01  0.22265712290E-01  0.51100000000E-03 0. -1.
</event>
<event>
 8    1  0.1081309E+005  0.1043930E+01  0.7957747E-01            NaN
         13   -1    0    0    0    0  0.00000000000E+00  0.00000000000E+00  0.74505805969E-08  0.10566000000E+00  0.10566000000E+00 0. -1.
     999900   -1    0    0    0    0 -0.00000000000E+00 -0.00000000000E+00 -0.74505805969E-08  0.93827000000E+00  0.93827000000E+00 0.  1.
     999902    2    1    2    0    0  0.17425957168E-01  0.13219607900E-01 -0.11258154038E-01  0.10193298364E+01  0.10190329471E+01 0.  0.
     999903    2    3    3    0    0  0.10522053377E+00 -0.69912315015E-01 -0.28443134184E-01  0.13089631170E+00  0.19124330470E-01 0.  0.
         14    1    1    2    0    0 -0.17425957168E-01 -0.13219607900E-01  0.11258154038E-01  0.24600163589E-01  0.00000000000E+00 0.  1.
     999901    1    3    3    0    0 -0.87794576606E-01  0.83131922915E-01  0.17184980146E-01  0.88843352471E+00  0.88000000000E+00 0.  1.
        -11    1    4    4    0    0  0.83820624854E-01 -0.48026142373E-01 -0.16346372757E-01  0.97978939193E-01  0.51100000000E-03 0.  1.
         11    1    4    4    0    0  0.21399908920E-01 -0.21886172642E-01 -0.12096761427E-01  0.32917372506E-01  0.51100000000E-03 0. -1.
</event>
<event>
 8    1  0.1081309E+005  0.1043930E+01  0.7957747E-01            NaN
         13   -1    0    0    0    0  0.00000000000E+00  0.00000000000E+00  0.74505805969E-08  0.10566000000E+00  0.10566000000E+00 0. -1.
     999900   -1    0    0    0    0 -0.00000000000E+00 -0.00000000000E+00 -0.74505805969E-08  0.93827000000E+00  0.93827000000E+00 0. -1.
     999902    2    1    2    0    0  0.19676756459E-01 -0.13170812222E-01  0.17317631150E-03  0.10202514226E+01  0.10199766126E+01 0.  0.
     999903    2    3    3    0    0 -0.10449347383E+00 -0.53587324499E-01  0.50532805578E-01  0.12919147351E+00  0.18611420345E-01 0.  0.
         14    1    1    2    0    0 -0.19676756459E-01  0.13170812222E-01 -0.17317631150E-03  0.23678577435E-01  0.00000000000E+00 0. -1.
     999901    1    3    3    0    0  0.12417023029E+00  0.40416512277E-01 -0.50359629267E-01  0.89105994906E+00  0.88000000000E+00 0.  1.
        -11    1    4    4    0    0 -0.36863871247E-01 -0.11848141150E-01  0.10084146456E-01  0.40015929112E-01  0.51100000000E-03 0. -1.
         11    1    4    4    0    0 -0.67629602583E-01 -0.41739183349E-01  0.40448659122E-01  0.89175544395E-01  0.51100000000E-03 0.  1.
</event>
<event>
 8    1  0.1081309E+005  0.1043930E+01  0.7957747E-01            NaN
         13   -1    0    0    0    0  0.00000000000E+00  0.00000000000E+00  0.74505805969E-08  0.10566000000E+00  0.10566000000E+00 0.  1.
     999900   -1    0    0    0    0 -0.00000000000E+00 -0.00000000000E+00 -0.74505805969E-08  0.93827000000E+00  0.93827000000E+00 0.  1.
     999902    2    1    2    0    0  0.22332763228E-01  0.74800076356E-02  0.13324262362E-02  0.10203402101E+01  0.10200674812E+01 0.  0.
     999903    2    3    3    0    0 -0.90729153291E-01  0.23131116274E-02  0.89188163524E-01  0.12875267971E+00  0.19636554620E-01 0.  0.
         14    1    1    2    0    0 -0.22332763228E-01 -0.74800076356E-02 -0.13324262362E-02  0.23589789895E-01  0.00000000000E+00 0.  1.
     999901    1    3    3    0    0  0.11306191652E+00  0.51668960083E-02 -0.87855737288E-01  0.89158753039E+00  0.88000000000E+00 0. -1.
        -11    1    4    4    0    0 -0.36824067216E-01  0.14569872553E-02  0.23242782778E-01  0.43573189124E-01  0.51100000000E-03 0.  1.
         11    1    4    4    0    0 -0.53905086075E-01  0.85612437206E-03  0.65945380746E-01  0.85179490586E-01  0.51100000000E-03 0. -1.
</event>
<event>
 8    1  0.1081309E+005  0.1043930E+01  0.7957747E-01            NaN
         13   -1    0    0    0    0  0.00000000000E+00  0.00000000000E+00  0.74505805969E-08  0.10566000000E+00  0.10566000000E+00 0. -1.
     999900   -1    0    0    0    0 -0.00000000000E+00 -0.00000000000E+00 -0.74505805969E-08  0.93827000000E+00  0.93827000000E+00 0.  1.
     999902    2    1    2    0    0 -0.17175768724E-01  0.14420731747E-01 -0.11468306254E-01  0.10187409829E+01  0.10184295281E+01 0.  0.
     999903    2    3    3    0    0 -0.11902009839E+00  0.49047285677E-01  0.20122845677E-01  0.13162810020E+00  0.18697801762E-01 0.  0.
         14    1    1    2    0    0  0.17175768724E-01 -0.14420731747E-01  0.11468306254E-01  0.25189017124E-01  0.00000000000E+00 0. -1.
     999901    1    3    3    0    0  0.10184432967E+00 -0.34626553931E-01 -0.31591151930E-01  0.88711288267E+00  0.88000000000E+00 0. -1.
        -11    1    4    4    0    0 -0.43583794493E-01  0.18697006208E-01  0.16560033617E-01  0.50235654847E-01  0.51100000000E-03 0. -1.
         11    1    4    4    0    0 -0.75436303902E-01  0.30350279469E-01  0.35628120599E-02  0.81392445356E-01  0.51100000000E-03 0.  1.
</event>
<event>
 8    1  0.1081309E+005  0.1043930E+01  0.7957747E-01            NaN
         13   -1    0    0    0    0  0.00000000000E+00  0.00000000000E+00  0.74505805969E-08  0.10566000000E+00  0.10566000000E+00 0. -1.
     999900   -1    0    0    0    0 -0.00000000000E+00 -0.00000000000E+00 -0.74505805969E-08  0.93827000000E+00  0.93827000000E+00 0.  1.
     999902    2    1    2    0    0 -0.73735405804E-03  0.99292210107E-02 -0.19247044656E-01  0.10222601627E+01  0.10220304586E+01 0.  0.
     999903    2    3    3    0    0 -0.81237428801E-01  0.96702266320E-01  0.35815394690E-01  0.13263007347E+00  0.18898299980E-01 0.  0.
         14    1    1    2    0    0  0.73735405804E-03 -0.99292210107E-02  0.19247044656E-01  0.21669837306E-01  0.00000000000E+00 0. -1.
     999901    1    3    3    0    0  0.80500074743E-01 -0.86773045309E-01 -0.55062439346E-01  0.88963008922E+00  0.88000000000E+00 0. -1.
        -11    1    4    4    0    0 -0.15728929635E-01  0.14846458431E-01  0.13302374443E-01  0.25397457397E-01  0.51100000000E-03 0. -1.
         11    1    4    4    0    0 -0.65508499166E-01  0.81855807889E-01  0.22513020247E-01  0.10723261607E+00  0.51100000000E-03 0.  1.
</event>
<event>
 8    1  0.1081309E+005  0.1043930E+01  0.7957747E-01            NaN
         13   -1    0    0    0    0  0.00000000000E+00  0.00000000000E+00  0.74505805969E-08  0.10566000000E+00  0.10566000000E+00 0.  1.
     999900   -1    0    0    0    0 -0.00000000000E+00 -0.00000000000E+00 -0.74505805969E-08  0.93827000000E+00  0.93827000000E+00 0.  1.
     999902    2    1    2    0    0  0.12283667566E-01 -0.15483411733E-01 -0.11845791323E-01  0.10208877063E+01  0.10206276312E+01 0.  0.
     999903    2    3    3    0    0 -0.10628629820E+00 -0.19592895423E-02  0.70385026176E-01  0.12903365656E+00  0.19875024879E-01 0.  0.
         14    1    1    2    0    0 -0.12283667566E-01  0.15483411733E-01  0.11845791323E-01  0.23042293719E-01  0.00000000000E+00 0. -1.
     999901    1    3    3    0    0  0.11856996577E+00 -0.13524122191E-01 -0.82230817499E-01  0.89185404972E+00  0.88000000000E+00 0.  1.
        -11    1    4    4    0    0 -0.27867173976E-01  0.77350099397E-02  0.15417374215E-01  0.32777527558E-01  0.51100000000E-03 0. -1.
         11    1    4    4    0    0 -0.78419124225E-01 -0.96942994819E-02  0.54967651961E-01  0.96256128999E-01  0.51100000000E-03 0.  1.
</event>
<event>
 8    1  0.1081309E+005  0.1043930E+01  0.7957747E-01            NaN
         13   -1    0    0    0    0  0.00000000000E+00  0.00000000000E+00  0.74505805969E-08  0.10566000000E+00  0.10566000000E+00 0.  1.
     999900   -1    0    0    0    0 -0.00000000000E+00 -0.00000000000E+00 -0.74505805969E-08  0.93827000000E+00  0.93827000000E+00 0. -1.
     999902    2    1    2    0    0  0.48095213193E-02 -0.23794089268E-01  0.11845765359E-02  0.10196258152E+01  0.10193361121E+01 0.  0.
     999903    2    3    3    0    0  0.81978653236E-03 -0.56715837956E-01  0.11694027264E+00  0.13142587105E+00  0.19503176435E-01 0.  0.
         14    1    1    2    0    0 -0.48095213193E-02  0.23794089268E-01 -0.11845765359E-02  0.24304184845E-01  0.00000000000E+00 0.  1.
     999901    1    3    3    0    0  0.39897347869E-02  0.32921748688E-01 -0.11575569611E+00  0.88819994410E+00  0.88000000000E+00 0. -1.
        -11    1    4    4    0    0 -0.12936992962E-02  0.46306047061E-03  0.10301435568E-01  0.10405228428E-01  0.51100000000E-03 0.  1.
         11    1    4    4    0    0  0.21134858285E-02 -0.57178898426E-01  0.10663883708E+00  0.12102064263E+00  0.51100000000E-03 0. -1.
</event>
<event>
 8    1  0.1081309E+005  0.1043930E+01  0.7957747E-01            NaN
         13   -1    0    0    0    0  0.00000000000E+00  0.00000000000E+00  0.74505805969E-08  0.10566000000E+00  0.10566000000E+00 0. -1.
     999900   -1    0    0    0    0 -0.00000000000E+00 -0.00000000000E+00 -0.74505805969E-08  0.93827000000E+00  0.93827000000E+00 0.  1.
     999902    2    1    2    0    0  0.18327269966E-01 -0.75956740674E-02 -0.15764124188E-01  0.10185904913E+01  0.10182752566E+01 0.  0.
     999903    2    3    3    0    0 -0.33640520397E-01 -0.12085907669E+00  0.21612718179E-01  0.12902527282E+00  0.21019286613E-01 0.  0.
         14    1    1    2    0    0 -0.18327269966E-01  0.75956740674E-02  0.15764124188E-01  0.25339508684E-01  0.00000000000E+00 0. -1.
     999901    1    3    3    0    0  0.51967790363E-01  0.11326340262E+00 -0.37376842367E-01  0.88956521849E+00  0.88000000000E+00 0. -1.
        -11    1    4    4    0    0 -0.22471926511E-01 -0.44325422310E-01  0.11590858252E-01  0.51032731262E-01  0.51100000000E-03 0.  1.
         11    1    4    4    0    0 -0.11168593887E-01 -0.76533654377E-01  0.10021859926E-01  0.77992541561E-01  0.51100000000E-03 0. -1.
</event>
<event>
 8    1  0.1081309E+005  0.1043930E+01  0.7957747E-01            NaN
         13   -1    0    0    0    0  0.00000000000E+00  0.00000000000E+00  0.74505805969E-08  0.10566000000E+00  0.10566000000E+00 0.  1.
     999900   -1    0    0    0    0 -0.00000000000E+00 -0.00000000000E+00 -0.74505805969E-08  0.93827000000E+00  0.93827000000E+00 0.  1.
     999902    2    1    2    0    0 -0.13337950816E-01  0.72375651636E-02 -0.17507569596E-01  0.10207610925E+01  0.10204981184E+01 0.  0.
     999903    2    3    3    0    0  0.59595405429E-01  0.10502718268E-01 -0.11536577454E+00  0.13233204978E+00  0.23250591930E-01 0.  0.
         14    1    1    2    0    0  0.13337950816E-01 -0.72375651636E-02  0.17507569596E-01  0.23168907497E-01  0.00000000000E+00 0.  1.
     999901    1    3    3    0    0 -0.72933356245E-01 -0.32651531045E-02  0.97858204942E-01  0.88842904272E+00  0.88000000000E+00 0. -1.
        -11    1    4    4    0    0  0.81993240950E-02  0.90799776272E-02 -0.33395837589E-01  0.35569902988E-01  0.51100000000E-03 0. -1.
         11    1    4    4    0    0  0.51396081334E-01  0.14227406408E-02 -0.81969936949E-01  0.96762146793E-01  0.51100000000E-03 0.  1.
</event>
<event>
 8    1  0.1081309E+005  0.1043930E+01  0.7957747E-01            NaN
         13   -1    0    0    0    0  0.00000000000E+00  0.00000000000E+00  0.74505805969E-08  0.10566000000E+00  0.10566000000E+00 0.  1.
     999900   -1    0    0    0    0 -0.00000000000E+00 -0.00000000000E+00 -0.74505805969E-08  0.93827000000E+00  0.93827000000E+00 0. -1.
     999902    2    1    2    0    0 -0.21236738285E-01  0.80607938057E-02  0.17241919648E-01  0.10154122995E+01  0.10150117628E+01 0.  0.
     999903    2    3    3    0    0 -0.98045225868E-01  0.56080957176E-01 -0.56195396043E-01  0.12771949271E+00  0.19909952498E-01 0.  0.
         14    1    1    2    0    0  0.21236738285E-01 -0.80607938057E-02 -0.17241919648E-01  0.28517700520E-01  0.00000000000E+00 0. -1.
     999901    1    3    3    0    0  0.76808487583E-01 -0.48020163371E-01  0.73437315691E-01  0.88769280677E+00  0.88000000000E+00 0.  1.
        -11    1    4    4    0    0 -0.32071962048E-01  0.24765581508E-01 -0.28819829400E-01  0.49727140122E-01  0.51100000000E-03 0. -1.
         11    1    4    4    0    0 -0.65973263820E-01  0.31315375668E-01 -0.27375566643E-01  0.77992352589E-01  0.51100000000E-03 0.  1.
</event>
<event>
 8    1  0.1081309E+005  0.1043930E+01  0.7957747E-01            NaN
         13   -1    0    0    0    0  0.00000000000E+00  0.00000000000E+00  0.74505805969E-08  0.10566000000E+00  0.10566000000E+00 0.  1.
     999900   -1    0    0    0    0 -0.00000000000E+00 -0.00000000000E+00 -0.74505805969E-08  0.93827000000E+00  0.93827000000E+00 0.  1.
     999902    2    1    2    0    0  0.16712579697E-01  0.73182984584E-02 -0.14504061944E-01  0.10206225843E+01  0.10203564201E+01 0.  0.
     999903    2    3    3    0    0  0.97835544653E-02 -0.11102020259E+00 -0.68074193398E-01  0.13105989896E+00  0.11018075500E-01 0.  0.
         14    1    1    2    0    0 -0.16712579697E-01 -0.73182984584E-02  0.14504061944E-01  0.23307415672E-01  0.00000000000E+00 0. -1.
     999901    1    3    3    0    0  0.69290252313E-02  0.11833850104E+00  0.53570131454E-01  0.88956268537E+00  0.88000000000E+00 0. -1.
        -11    1    4    4    0    0  0.38257591191E-03 -0.61466409111E-01 -0.34864592670E-01  0.70668711297E-01  0.51100000000E-03 0. -1.
         11    1    4    4    0    0  0.94009785534E-02 -0.49553793474E-01 -0.33209600728E-01  0.60391187660E-01  0.51100000000E-03 0.  1.
</event>
<event>
 8    1  0.1081309E+005  0.1043930E+01  0.7957747E-01            NaN
         13   -1    0    0    0    0  0.00000000000E+00  0.00000000000E+00  0.74505805969E-08  0.10566000000E+00  0.10566000000E+00 0.  1.
     999900   -1    0    0    0    0 -0.00000000000E+00 -0.00000000000E+00 -0.74505805969E-08  0.93827000000E+00  0.93827000000E+00 0.  1.
     999902    2    1    2    0    0  0.12032990946E-01  0.73493587465E-02 -0.18804992368E-01  0.10204260922E+01  0.10201553685E+01 0.  0.
     999903    2    3    3    0    0 -0.10084932129E+00  0.61465372703E-01  0.48055673547E-01  0.12905562597E+00  0.19935626071E-01 0.  0.
         14    1    1    2    0    0 -0.12032990946E-01 -0.73493587465E-02  0.18804992368E-01  0.23503907825E-01  0.00000000000E+00 0.  1.
     999901    1    3    3    0    0  0.11288231224E+00 -0.54116013957E-01 -0.66860665915E-01  0.89137046621E+00  0.88000000000E+00 0.  1.
        -11    1    4    4    0    0 -0.40130024444E-01  0.28464241390E-01  0.29995956420E-01  0.57625085010E-01  0.51100000000E-03 0. -1.
         11    1    4    4    0    0 -0.60719296848E-01  0.33001131313E-01  0.18059717127E-01  0.71430540957E-01  0.51100000000E-03 0.  1.
</event>
<event>
 8    1  0.1081309E+005  0.1043930E+01  0.7957747E-01            NaN
         13   -1    0    0    0    0  0.00000000000E+00  0.00000000000E+00  0.74505805969E-08  0.10566000000E+00  0.10566000000E+00 0.  1.
     999900   -1    0    0    0    0 -0.00000000000E+00 -0.00000000000E+00 -0.74505805969E-08  0.93827000000E+00  0.93827000000E+00 0.  1.
     999902    2    1    2    0    0 -0.10629993244E-01 -0.20486361074E-01 -0.42900441140E-02  0.10204546464E+01  0.10201845878E+01 0.  0.
     999903    2    3    3    0    0 -0.68263719380E-01 -0.10592739931E+00  0.37997989371E-01  0.13343148147E+00  0.21898943911E-01 0.  0.
         14    1    1    2    0    0  0.10629993244E-01  0.20486361074E-01  0.42900441140E-02  0.23475353563E-01  0.00000000000E+00 0. -1.
     999901    1    3    3    0    0  0.57633726136E-01  0.85441038235E-01 -0.42288033485E-01  0.88702316496E+00  0.88000000000E+00 0.  1.
        -11    1    4    4    0    0 -0.50755527475E-01 -0.59197036628E-01  0.21938640109E-01  0.81006035365E-01  0.51100000000E-03 0.  1.
         11    1    4    4    0    0 -0.17508191906E-01 -0.46730362681E-01  0.16059349262E-01  0.52425446109E-01  0.51100000000E-03 0. -1.
</event>
<event>
 8    1  0.1081309E+005  0.1043930E+01  0.7957747E-01            NaN
         13   -1    0    0    0    0  0.00000000000E+00  0.00000000000E+00  0.74505805969E-08  0.10566000000E+00  0.10566000000E+00 0. -1.
     999900   -1    0    0    0    0 -0.00000000000E+00 -0.00000000000E+00 -0.74505805969E-08  0.93827000000E+00  0.93827000000E+00 0. -1.
     999902    2    1    2    0    0 -0.13334566155E-01  0.17669089994E-01  0.71443509087E-02  0.10206695369E+01  0.10204044562E+01 0.  0.
     999903    2    3    3    0    0 -0.20989650596E-01  0.13018948472E+00 -0.34947932073E-02  0.13340822758E+00  0.19891562142E-01 0.  0.
         14    1    1    2    0    0  0.13334566155E-01 -0.17669089994E-01 -0.71443509087E-02  0.23260463144E-01  0.00000000000E+00 0.  1.
     999901    1    3    3    0    0  0.76550844407E-02 -0.11252039472E+00  0.10639144116E-01  0.88726130927E+00  0.88000000000E+00 0. -1.
        -11    1    4    4    0    0  0.71545792652E-03  0.39171788351E-01 -0.68540046415E-02  0.39776618551E-01  0.51100000000E-03 0.  1.
         11    1    4    4    0    0 -0.21705108522E-01  0.91017696364E-01  0.33592114342E-02  0.93631609032E-01  0.51100000000E-03 0. -1.
</event>
<event>
 8    1  0.1081309E+005  0.1043930E+01  0.7957747E-01            NaN
         13   -1    0    0    0    0  0.00000000000E+00  0.00000000000E+00  0.74505805969E-08  0.10566000000E+00  0.10566000000E+00 0. -1.
     999900   -1    0    0    0    0 -0.00000000000E+00 -0.00000000000E+00 -0.74505805969E-08  0.93827000000E+00  0.93827000000E+00 0. -1.
     999902    2    1    2    0    0 -0.22015692906E-01 -0.85476106349E-02  0.34592121151E-02  0.10200612227E+01  0.10197819274E+01 0.  0.
     999903    2    3    3    0    0 -0.46155025659E-01 -0.94745927198E-01 -0.76731973442E-01  0.13189261066E+00  0.20019687397E-01 0.  0.
         14    1    1    2    0    0  0.22015692906E-01  0.85476106349E-02 -0.34592121151E-02  0.23868777308E-01  0.00000000000E+00 0. -1.
     999901    1    3    3    0    0  0.24139332752E-01  0.86198316563E-01  0.80191185557E-01  0.88816861204E+00  0.88000000000E+00 0. -1.
        -11    1    4    4    0    0 -0.22750993889E-01 -0.67861839737E-01 -0.53127327556E-01  0.89138157204E-01  0.51100000000E-03 0.  1.
         11    1    4    4    0    0 -0.23404031770E-01 -0.26884087461E-01 -0.23604645886E-01  0.42754453453E-01  0.51100000000E-03 0. -1.
</event>
<event>
 8    1  0.1081309E+005  0.1043930E+01  0.7957747E-01            NaN
         13   -1    0    0    0    0  0.00000000000E+00  0.00000000000E+00  0.74505805969E-08  0.10566000000E+00  0.10566000000E+00 0.  1.
     999900   -1    0    0    0    0 -0.00000000000E+00 -0.00000000000E+00 -0.74505805969E-08  0.93827000000E+00  0.93827000000E+00 0.  1.
     999902    2    1    2    0    0  0.19480986606E-01 -0.43858976428E-02 -0.12231806049E-01  0.10205128692E+01  0.10202441640E+01 0.  0.
     999903    2    3    3    0    0  0.12328272572E+00 -0.89570844056E-02  0.43432024425E-01  0.13265355665E+00  0.20778968331E-01 0.  0.
         14    1    1    2    0    0 -0.19480986606E-01  0.43858976428E-02  0.12231806049E-01  0.23417130834E-01  0.00000000000E+00 0.  1.
     999901    1    3    3    0    0 -0.10380173912E+00  0.45711867628E-02 -0.55663830474E-01  0.88785931251E+00  0.88000000000E+00 0. -1.
        -11    1    4    4    0    0  0.38321214846E-01 -0.69606263289E-02  0.46220428768E-02  0.39224867463E-01  0.51100000000E-03 0.  1.
         11    1    4    4    0    0  0.84961510875E-01 -0.19964580767E-02  0.38809981548E-01  0.93428689191E-01  0.51100000000E-03 0. -1.
</event>
<event>
 8    1  0.1081309E+005  0.1043930E+01  0.7957747E-01            NaN
         13   -1    0    0    0    0  0.00000000000E+00  0.00000000000E+00  0.74505805969E-08  0.10566000000E+00  0.10566000000E+00 0.  1.
     999900   -1    0    0    0    0 -0.00000000000E+00 -0.00000000000E+00 -0.74505805969E-08  0.93827000000E+00  0.93827000000E+00 0. -1.
     999902    2    1    2    0    0 -0.46296675449E-02 -0.20129348834E-01 -0.11704607291E-01  0.10201892684E+01  0.10199129968E+01 0.  0.
     999903    2    3    3    0    0 -0.90607341714E-01 -0.55520319699E-01  0.74816986760E-01  0.13107135296E+00  0.17027089834E-01 0.  0.
         14    1    1    2    0    0  0.46296675449E-02  0.20129348834E-01  0.11704607291E-01  0.23740731621E-01  0.00000000000E+00 0.  1.
     999901    1    3    3    0    0  0.85977674169E-01  0.35390970865E-01 -0.86521594050E-01  0.88911791541E+00  0.88000000000E+00 0. -1.
        -11    1    4    4    0    0 -0.41228211085E-01 -0.20328722437E-01  0.41238102903E-01  0.61756494373E-01  0.51100000000E-03 0.  1.
         11    1    4    4    0    0 -0.49379130629E-01 -0.35191597262E-01  0.33578883856E-01  0.69314858592E-01  0.51100000000E-03 0. -1.
</event>
<event>
 8    1  0.1081309E+005  0.1043930E+01  0.7957747E-01            NaN
         13   -1    0    0    0    0  0.00000000000E+00  0.00000000000E+00  0.74505805969E-08  0.10566000000E+00  0.10566000000E+00 0.  1.
     999900   -1    0    0    0    0 -0.00000000000E+00 -0.00000000000E+00 -0.74505805969E-08  0.93827000000E+00  0.93827000000E+00 0. -1.
     999902    2    1    2    0    0 -0.84560211423E-03  0.22333710183E-01 -0.95674644583E-02  0.10196185618E+01  0.10193286837E+01 0.  0.
     999903    2    3    3    0    0  0.71853385563E-01 -0.87840897973E-01  0.54271056999E-01  0.12748687645E+00  0.20703228413E-01 0.  0.
         14    1    1    2    0    0  0.84560211423E-03 -0.22333710183E-01  0.95674644583E-02  0.24311438247E-01  0.00000000000E+00 0.  1.
     999901    1    3    3    0    0 -0.72698987677E-01  0.11017460816E+00 -0.63838521457E-01  0.89213168530E+00  0.88000000000E+00 0. -1.
        -11    1    4    4    0    0  0.32688438506E-01 -0.25832545997E-01  0.24469031368E-01  0.48320275886E-01  0.51100000000E-03 0. -1.
         11    1    4    4    0    0  0.39164947057E-01 -0.62008351976E-01  0.29802025631E-01  0.79166600568E-01  0.51100000000E-03 0.  1.
</event>
<event>
 8    1  0.1081309E+005  0.1043930E+01  0.7957747E-01            NaN
         13   -1    0    0    0    0  0.00000000000E+00  0.00000000000E+00  0.74505805969E-08  0.10566000000E+00  0.10566000000E+00 0. -1.
     999900   -1    0    0    0    0 -0.00000000000E+00 -0.00000000000E+00 -0.74505805969E-08  0.93827000000E+00  0.93827000000E+00 0. -1.
     999902    2    1    2    0    0  0.18953200741E-01  0.14654402133E-01 -0.45809832436E-02  0.10195381832E+01  0.10192463619E+01 0.  0.
     999903    2    3    3    0    0  0.10519640472E-01 -0.59389033901E-01 -0.11299409472E+00  0.12975902064E+00  0.20785038156E-01 0.  0.
         14    1    1    2    0    0 -0.18953200741E-01 -0.14654402133E-01  0.45809832436E-02  0.24391816818E-01  0.00000000000E+00 0.  1.
     999901    1    3    3    0    0  0.84335602693E-02  0.74043436034E-01  0.10841311148E+00  0.88977916254E+00  0.88000000000E+00 0.  1.
        -11    1    4    4    0    0 -0.61290030639E-02 -0.22384178084E-01 -0.41077953790E-01  0.47183424162E-01  0.51100000000E-03 0.  1.
         11    1    4    4    0    0  0.16648643536E-01 -0.37004855817E-01 -0.71916140932E-01  0.82575596475E-01  0.51100000000E-03 0. -1.
</event>
<event>
 8    1  0.1081309E+005  0.1043930E+01  0.7957747E-01            NaN
         13   -1    0    0    0    0  0.00000000000E+00  0.00000000000E+00  0.74505805969E-08  0.10566000000E+00  0.10566000000E+00 0.  1.
     999900   -1    0    0    0    0 -0.00000000000E+00 -0.00000000000E+00 -0.74505805969E-08  0.93827000000E+00  0.93827000000E+00 0.  1.
     999902    2    1    2    0    0  0.25565783682E-01  0.24970437514E-02  0.67076773979E-03  0.10182338047E+01  0.10179095179E+01 0.  0.
     999903    2    3    3    0    0  0.49784624792E-01  0.96290917881E-01  0.69466522733E-01  0.13024917704E+00  0.19718027431E-01 0.  0.
         14    1    1    2    0    0 -0.25565783682E-01 -0.24970437514E-02 -0.67076773979E-03  0.25696195285E-01  0.00000000000E+00 0.  1.
     999901    1    3    3    0    0 -0.24218841110E-01 -0.93793874129E-01 -0.68795754993E-01  0.88798462768E+00  0.88000000000E+00 0. -1.
        -11    1    4    4    0    0  0.34592100567E-02  0.23820481630E-01  0.17391690091E-01  0.29700395360E-01  0.51100000000E-03 0. -1.
         11    1    4    4    0    0  0.46325414736E-01  0.72470436251E-01  0.52074832643E-01  0.10054878168E+00  0.51100000000E-03 0.  1.
</event>
<event>
 8    1  0.1081309E+005  0.1043930E+01  0.7957747E-01            NaN
         13   -1    0    0    0    0  0.00000000000E+00  0.00000000000E+00  0.74505805969E-08  0.10566000000E+00  0.10566000000E+00 0.  1.
     999900   -1    0    0    0    0 -0.00000000000E+00 -0.00000000000E+00 -0.74505805969E-08  0.93827000000E+00  0.93827000000E+00 0. -1.
     999902    2    1    2    0    0 -0.25234630058E-01  0.47458020037E-02 -0.15688992314E-02  0.10182050970E+01  0.10178800759E+01 0.  0.
     999903    2    3    3    0    0 -0.51590332548E-01 -0.11478062925E+00  0.21963154054E-01  0.12942225041E+00  0.20774587836E-01 0.  0.
         14    1    1    2    0    0  0.25234630058E-01 -0.47458020037E-02  0.15688992314E-02  0.25724903025E-01  0.00000000000E+00 0.  1.
     999901    1    3    3    0    0  0.26355702489E-01  0.11952643126E+00 -0.23532053285E-01  0.88878284657E+00  0.88000000000E+00 0. -1.
        -11    1    4    4    0    0 -0.20628287447E-01 -0.27766275685E-01  0.48473731604E-03  0.34597520137E-01  0.51100000000E-03 0. -1.
         11    1    4    4    0    0 -0.30962045101E-01 -0.87014353570E-01  0.21478416738E-01  0.94824730269E-01  0.51100000000E-03 0.  1.
</event>
<event>
 8    1  0.1081309E+005  0.1043930E+01  0.7957747E-01            NaN
         13   -1    0    0    0    0  0.00000000000E+00  0.00000000000E+00  0.74505805969E-08  0.10566000000E+00  0.10566000000E+00 0. -1.
     999900   -1    0    0    0    0 -0.00000000000E+00 -0.00000000000E+00 -0.74505805969E-08  0.93827000000E+00  0.93827000000E+00 0.  1.
     999902    2    1    2    0    0  0.16473476048E-01  0.38245229660E-02 -0.15791996297E-01  0.10207915140E+01  0.10205292379E+01 0.  0.
     999903    2    3    3    0    0 -0.13433931248E-01 -0.12712821354E+00 -0.16193244854E-01  0.13059870720E+00  0.21254363271E-01 0.  0.
         14    1    1    2    0    0 -0.16473476048E-01 -0.38245229660E-02  0.15791996297E-01  0.23138486037E-01  0.00000000000E+00 0.  1.
     999901    1    3    3    0    0  0.29907407296E-01  0.13095273650E+00  0.40124855617E-03  0.89019280676E+00  0.88000000000E+00 0. -1.
        -11    1    4    4    0    0 -0.16495274693E-01 -0.56757724738E-01 -0.57003443759E-02  0.59382560164E-01  0.51100000000E-03 0.  1.
         11    1    4    4    0    0  0.30613434451E-02 -0.70370488799E-01 -0.10492900478E-01  0.71216147038E-01  0.51100000000E-03 0. -1.
</event>
<event>
 8    1  0.1081309E+005  0.1043930E+01  0.7957747E-01            NaN
         13   -1    0    0    0    0  0.00000000000E+00  0.00000000000E+00  0.74505805969E-08  0.10566000000E+00  0.10566000000E+00 0.  1.
     999900   -1    0    0    0    0 -0.00000000000E+00 -0.00000000000E+00 -0.74505805969E-08  0.93827000000E+00  0.93827000000E+00 0. -1.
     999902    2    1    2    0    0  0.10039020852E-01  0.11379827779E-01  0.18111621410E-01  0.10203013468E+01  0.10200277080E+01 0.  0.
     999903    2    3    3    0    0  0.41097929063E-01 -0.73815631392E-01  0.99275819806E-01  0.13192611692E+00  0.20273744491E-01 0.  0.
         14    1    1    2    0    0 -0.10039020852E-01 -0.11379827779E-01 -0.18111621410E-01  0.23628653158E-01  0.00000000000E+00 0. -1.
     999901    1    3    3    0    0 -0.31058908211E-01  0.85195459171E-01 -0.81164198396E-01  0.88837522992E+00  0.88000000000E+00 0. -1.
        -11    1    4    4    0    0  0.31562123250E-01 -0.51616041618E-01  0.56427783098E-01  0.82732939043E-01  0.51100000000E-03 0. -1.
         11    1    4    4    0    0  0.95358058129E-02 -0.22199589773E-01  0.42848036708E-01  0.49193177874E-01  0.51100000000E-03 0.  1.
</event>
<event>
 8    1  0.1081309E+005  0.1043930E+01  0.7957747E-01            NaN
         13   -1    0    0    0    0  0.00000000000E+00  0.00000000000E+00  0.74505805969E-08  0.10566000000E+00  0.10566000000E+00 0.  1.
     999900   -1    0    0    0    0 -0.00000000000E+00 -0.00000000000E+00 -0.74505805969E-08  0.93827000000E+00  0.93827000000E+00 0.  1.
     999902    2    1    2    0    0  0.91668828725E-02  0.16246209010E-01 -0.14057072743E-01  0.10205725099E+01  0.10203051875E+01 0.  0.
     999903    2    3    3    0    0 -0.72180164087E-02 -0.98115099217E-01 -0.83148869219E-01  0.13033622101E+00  0.19877716177E-01 0.  0.
         14    1    1    2    0    0 -0.91668828725E-02 -0.16246209010E-01  0.14057072743E-01  0.23357490082E-01  0.00000000000E+00 0. -1.
     999901    1    3    3    0    0  0.16384899281E-01  0.11436130823E+00  0.69091796475E-01  0.89023628891E+00  0.88000000000E+00 0. -1.
        -11    1    4    4    0    0 -0.10449268765E-01 -0.27150726638E-01 -0.20217811947E-01  0.35431203983E-01  0.51100000000E-03 0. -1.
         11    1    4    4    0    0  0.32312523566E-02 -0.70964372579E-01 -0.62931057271E-01  0.94905017030E-01  0.51100000000E-03 0.  1.
</event>
<event>
 8    1  0.1081309E+005  0.1043930E+01  0.7957747E-01            NaN
         13   -1    0    0    0    0  0.00000000000E+00  0.00000000000E+00  0.74505805969E-08  0.10566000000E+00  0.10566000000E+00 0.  1.
     999900   -1    0    0    0    0 -0.00000000000E+00 -0.00000000000E+00 -0.74505805969E-08  0.93827000000E+00  0.93827000000E+00 0. -1.
     999902    2    1    2    0    0  0.13462701705E-01 -0.16417209726E-01 -0.11307967340E-01  0.10198750787E+01  0.10195913578E+01 0.  0.
     999903    2    3    3    0    0 -0.83746230498E-01 -0.62957393320E-01  0.72217193428E-01  0.12937408621E+00  0.23350945566E-01 0.  0.
         14    1    1    2    0    0 -0.13462701705E-01  0.16417209726E-01  0.11307967340E-01  0.24054921279E-01  0.00000000000E+00 0.  1.
     999901    1    3    3    0    0  0.97208932203E-01  0.46540183594E-01 -0.83525160768E-01  0.89050099252E+00  0.88000000000E+00 0. -1.
        -11    1    4    4    0    0 -0.41229991093E-01 -0.37101689753E-01  0.25243610241E-01  0.60942173633E-01  0.51100000000E-03 0.  1.
         11    1    4    4    0    0 -0.42516239405E-01 -0.25855703567E-01  0.46973583187E-01  0.68431912573E-01  0.51100000000E-03 0. -1.
</event>
<event>
 8    1  0.1081309E+005  0.1043930E+01  0.7957747E-01            NaN
         13   -1    0    0    0    0  0.00000000000E+00  0.00000000000E+00  0.74505805969E-08  0.10566000000E+00  0.10566000000E+00 0. -1.
     999900   -1    0    0    0    0 -0.00000000000E+00 -0.00000000000E+00 -0.74505805969E-08  0.93827000000E+00  0.93827000000E+00 0.  1.
     999902    2    1    2    0    0 -0.81782882000E-02  0.34650309851E-02  0.21874857757E-01  0.10203206747E+01  0.10200474886E+01 0.  0.
     999903    2    3    3    0    0  0.75220920612E-01 -0.65731480202E-01 -0.77661660185E-01  0.12810371480E+00  0.20010344715E-01 0.  0.
         14    1    1    2    0    0  0.81782882000E-02 -0.34650309851E-02 -0.21874857757E-01  0.23609325265E-01  0.00000000000E+00 0.  1.
     999901    1    3    3    0    0 -0.83399208812E-01  0.69196511187E-01  0.99536517942E-01  0.89221695993E+00  0.88000000000E+00 0. -1.
        -11    1    4    4    0    0  0.31454062285E-01 -0.37559712768E-01 -0.45843676544E-01  0.67096899015E-01  0.51100000000E-03 0.  1.
         11    1    4    4    0    0  0.43766858327E-01 -0.28171767434E-01 -0.31817983641E-01  0.61006815785E-01  0.51100000000E-03 0. -1.
</event>
<event>
 8    1  0.1081309E+005  0.1043930E+01  0.7957747E-01            NaN
         13   -1    0    0    0    0  0.00000000000E+00  0.00000000000E+00  0.74505805969E-08  0.10566000000E+00  0.10566000000E+00 0. -1.
     999900   -1    0    0    0    0 -0.00000000000E+00 -0.00000000000E+00 -0.74505805969E-08  0.93827000000E+00  0.93827000000E+00 0. -1.
     999902    2    1    2    0    0 -0.15686472720E-02  0.81186870743E-02 -0.20993901526E-01  0.10213663648E+01  0.10211171007E+01 0.  0.
     999903    2    3    3    0    0  0.58002515473E-01  0.74383679535E-01  0.87518470548E-01  0.13023522539E+00  0.20112375861E-01 0.  0.
         14    1    1    2    0    0  0.15686472720E-02 -0.81186870743E-02  0.20993901526E-01  0.22563635243E-01  0.00000000000E+00 0. -1.
     999901    1    3    3    0    0 -0.59571162745E-01 -0.66264992461E-01 -0.10851237207E+00  0.89113113937E+00  0.88000000000E+00 0. -1.
        -11    1    4    4    0    0  0.31796616698E-02  0.24346020389E-02  0.11127926436E-01  0.11837626586E-01  0.51100000000E-03 0.  1.
         11    1    4    4    0    0  0.54822853804E-01  0.71949077496E-01  0.76390544112E-01  0.11839759880E+00  0.51100000000E-03 0. -1.
</event>
<event>
 8    1  0.1081309E+005  0.1043930E+01  0.7957747E-01            NaN
         13   -1    0    0    0    0  0.00000000000E+00  0.00000000000E+00  0.74505805969E-08  0.10566000000E+00  0.10566000000E+00 0. -1.
     999900   -1    0    0    0    0 -0.00000000000E+00 -0.00000000000E+00 -0.74505805969E-08  0.93827000000E+00  0.93827000000E+00 0. -1.
     999902    2    1    2    0    0  0.23758751233E-02 -0.16680553423E-01 -0.15942196929E-01  0.10207343261E+01  0.10204707371E+01 0.  0.
     999903    2    3    3    0    0 -0.58585947703E-01  0.22602747865E-01  0.11074528820E+00  0.12870896743E+00  0.18928337459E-01 0.  0.
         14    1    1    2    0    0 -0.23758751233E-02  0.16680553423E-01  0.15942196929E-01  0.23195673907E-01  0.00000000000E+00 0. -1.
     999901    1    3    3    0    0  0.60961822827E-01 -0.39283301288E-01 -0.12668748513E+00  0.89202535866E+00  0.88000000000E+00 0. -1.
        -11    1    4    4    0    0 -0.32739282277E-01  0.22029375232E-01  0.72451250362E-01  0.82502113774E-01  0.51100000000E-03 0. -1.
         11    1    4    4    0    0 -0.25846665427E-01  0.57337263267E-03  0.38294037842E-01  0.46206853659E-01  0.51100000000E-03 0.  1.
</event>
<event>
 8    1  0.1081309E+005  0.1043930E+01  0.7957747E-01            NaN
         13   -1    0    0    0    0  0.00000000000E+00  0.00000000000E+00  0.74505805969E-08  0.10566000000E+00  0.10566000000E+00 0.  1.
     999900   -1    0    0    0    0 -0.00000000000E+00 -0.00000000000E+00 -0.74505805969E-08  0.93827000000E+00  0.93827000000E+00 0. -1.
     999902    2    1    2    0    0  0.55119168617E-02  0.37588368007E-02 -0.23381936954E-01  0.10196148801E+01  0.10193249132E+01 0.  0.
     999903    2    3    3    0    0  0.11177211110E+00 -0.16193712259E-01  0.59446831104E-01  0.12913751488E+00  0.19680723693E-01 0.  0.
         14    1    1    2    0    0 -0.55119168617E-02 -0.37588368007E-02  0.23381936954E-01  0.24315119932E-01  0.00000000000E+00 0. -1.
     999901    1    3    3    0    0 -0.10626019424E+00  0.19952549060E-01 -0.82828768058E-01  0.89047736519E+00  0.88000000000E+00 0. -1.
        -11    1    4    4    0    0  0.31897525025E-01 -0.32810848018E-02  0.27141529362E-01  0.42013585390E-01  0.51100000000E-03 0. -1.
         11    1    4    4    0    0  0.79874586074E-01 -0.12912627457E-01  0.32305301742E-01  0.87123929491E-01  0.51100000000E-03 0.  1.
</event>
<event>
 8    1  0.1081309E+005  0.1043930E+01  0.7957747E-01            NaN
         13   -1    0    0    0    0  0.00000000000E+00  0.00000000000E+00  0.74505805969E-08  0.10566000000E+00  0.10566000000E+00 0. -1.
     999900   -1    0    0    0    0 -0.00000000000E+00 -0.00000000000E+00 -0.74505805969E-08  0.93827000000E+00  0.93827000000E+00 0. -1.
     999902    2    1    2    0    0  0.13078540868E-01 -0.17510676189E-02 -0.20778757054E-01  0.10193155487E+01  0.10190183102E+01 0.  0.
     999903    2    3    3    0    0  0.11992702524E+00 -0.21609467298E-01  0.41293110011E-01  0.13046017724E+00  0.21570267807E-01 0.  0.
         14    1    1    2    0    0 -0.13078540868E-01  0.17510676189E-02  0.20778757054E-01  0.24614451319E-01  0.00000000000E+00 0. -1.
     999901    1    3    3    0    0 -0.10684848437E+00  0.19858399680E-01 -0.62071867065E-01  0.88885537144E+00  0.88000000000E+00 0. -1.
        -11    1    4    4    0    0  0.10388756366E-01 -0.84771407543E-02  0.50122708453E-02  0.14323831688E-01  0.51100000000E-03 0.  1.
         11    1    4    4    0    0  0.10953826887E+00 -0.13132326544E-01  0.36280839166E-01  0.11613634556E+00  0.51100000000E-03 0. -1.
</event>
<event>
 8    1  0.1081309E+005  0.1043930E+01  0.7957747E-01            NaN
         13   -1    0    0    0    0  0.00000000000E+00  0.00000000000E+00  0.74505805969E-08  0.10566000000E+00  0.10566000000E+00 0. -1.
     999900   -1    0    0    0    0 -0.00000000000E+00 -0.00000000000E+00 -0.74505805969E-08  0.93827000000E+00  0.93827000000E+00 0.  1.
     999902    2    1    2    0    0 -0.33984216521E-02  0.14624957485E-01 -0.30684806734E-01  0.10097686766E+01  0.10091906580E+01 0.  0.
     999903    2    3    3    0    0 -0.11309208650E+00 -0.34423301687E-01  0.11644625082E-01  0.12059478325E+00  0.20801940465E-01 0.  0.
         14    1    1    2    0    0  0.33984216521E-02 -0.14624957485E-01  0.30684806734E-01  0.34161323386E-01  0.00000000000E+00 0. -1.
     999901    1    3    3    0    0  0.10969366485E+00  0.49048259172E-01 -0.42329431816E-01  0.88917389336E+00  0.88000000000E+00 0. -1.
        -11    1    4    4    0    0 -0.25886344793E-01 -0.61814728810E-02  0.11324864643E-01  0.28927964566E-01  0.51100000000E-03 0. -1.
         11    1    4    4    0    0 -0.87205741706E-01 -0.28241828806E-01  0.31976043901E-03  0.91666818688E-01  0.51100000000E-03 0.  1.
</event>
<event>
 8    1  0.1081309E+005  0.1043930E+01  0.7957747E-01            NaN
         13   -1    0    0    0    0  0.00000000000E+00  0.00000000000E+00  0.74505805969E-08  0.10566000000E+00  0.10566000000E+00 0. -1.
     999900   -1    0    0    0    0 -0.00000000000E+00 -0.00000000000E+00 -0.74505805969E-08  0.93827000000E+00  0.93827000000E+00 0.  1.
     999902    2    1    2    0    0  0.14275815955E-02  0.23364571051E-01 -0.54608431909E-02  0.10198933202E+01  0.10196100345E+01 0.  0.
     999903    2    3    3    0    0  0.43902231537E-01  0.32752595380E-01  0.11664610203E+00  0.13039776819E+00  0.19928030330E-01 0.  0.
         14    1    1    2    0    0 -0.14275815955E-02 -0.23364571051E-01  0.54608431909E-02  0.24036679845E-01  0.00000000000E+00 0. -1.
     999901    1    3    3    0    0 -0.42474649942E-01 -0.93880243294E-02 -0.12210694522E+00  0.88949555196E+00  0.88000000000E+00 0.  1.
        -11    1    4    4    0    0  0.25966025407E-01  0.26767738664E-01  0.92421385831E-01  0.99663032207E-01  0.51100000000E-03 0.  1.
         11    1    4    4    0    0  0.17936206130E-01  0.59848567161E-02  0.24224716199E-01  0.30734735987E-01  0.51100000000E-03 0. -1.
</event>
<event>
 8    1  0.1081309E+005  0.1043930E+01  0.7957747E-01            NaN
         13   -1    0    0    0    0  0.00000000000E+00  0.00000000000E+00  0.74505805969E-08  0.10566000000E+00  0.10566000000E+00 0. -1.
     999900   -1    0    0    0    0 -0.00000000000E+00 -0.00000000000E+00 -0.74505805969E-08  0.93827000000E+00  0.93827000000E+00 0.  1.
     999902    2    1    2    0    0  0.73074492911E-02 -0.20627683492E-02 -0.22143506097E-01  0.10205208417E+01  0.10202523216E+01 0.  0.
     999903    2    3    3    0    0  0.10978710703E+00 -0.63045751250E-01 -0.32929727888E-01  0.13241198183E+00  0.20508299154E-01 0.  0.
         14    1    1    2    0    0 -0.73074492911E-02  0.20627683492E-02  0.22143506097E-01  0.23409158265E-01  0.00000000000E+00 0. -1.
     999901    1    3    3    0    0 -0.10247965774E+00  0.60982982901E-01  0.10786221791E-01  0.88810885990E+00  0.88000000000E+00 0. -1.
        -11    1    4    4    0    0  0.55458297871E-01 -0.43033044299E-01 -0.21274206883E-01  0.73350655784E-01  0.51100000000E-03 0. -1.
         11    1    4    4    0    0  0.54328809157E-01 -0.20012706951E-01 -0.11655521005E-01  0.59061326050E-01  0.51100000000E-03 0.  1.
</event>
<event>
 8    1  0.1081309E+005  0.1043930E+01  0.7957747E-01            NaN
         13   -1    0    0    0    0  0.00000000000E+00  0.00000000000E+00  0.74505805969E-08  0.10566000000E+00  0.10566000000E+00 0.  1.
     999900   -1    0    0    0    0 -0.00000000000E+00 -0.00000000000E+00 -0.74505805969E-08  0.93827000000E+00  0.93827000000E+00 0. -1.
     999902    2    1    2    0    0  0.21920865314E-02  0.11976644742E-01  0.20026713419E-01  0.10204925404E+01  0.10202233630E+01 0.  0.
     999903    2    3    3    0    0  0.35283210429E-01 -0.91309954210E-01  0.85935236860E-01  0.13138789106E+00  0.17190122336E-01 0.  0.
         14    1    1    2    0    0 -0.21920865314E-02 -0.11976644742E-01 -0.20026713419E-01  0.23437459611E-01  0.00000000000E+00 0. -1.
     999901    1    3    3    0    0 -0.33091123897E-01  0.10328659895E+00 -0.65908523440E-01  0.88910464933E+00  0.88000000000E+00 0. -1.
        -11    1    4    4    0    0  0.22244988969E-01 -0.39401701737E-01  0.46680242233E-01  0.65012612391E-01  0.51100000000E-03 0. -1.
         11    1    4    4    0    0  0.13038221460E-01 -0.51908252473E-01  0.39254994627E-01  0.66375278665E-01  0.51100000000E-03 0.  1.
</event>
<event>
 8    1  0.1081309E+005  0.1043930E+01  0.7957747E-01            NaN
         13   -1    0    0    0    0  0.00000000000E+00  0.00000000000E+00  0.74505805969E-08  0.10566000000E+00  0.10566000000E+00 0.  1.
     999900   -1    0    0    0    0 -0.00000000000E+00 -0.00000000000E+00 -0.74505805969E-08  0.93827000000E+00  0.93827000000E+00 0.  1.
     999902    2    1    2    0    0 -0.19427905278E-01 -0.34651931368E-02 -0.11704966320E-01  0.10209853426E+01  0.10207274918E+01 0.  0.
     999903    2    3    3    0    0  0.49786337182E-01 -0.62508020087E-01  0.99704842847E-01  0.12930781548E+00  0.19837427070E-01 0.  0.
         14    1    1    2    0    0  0.19427905278E-01  0.34651931368E-02  0.11704966320E-01  0.22944657407E-01  0.00000000000E+00 0.  1.
     999901    1    3    3    0    0 -0.69214242460E-01  0.59042826950E-01 -0.11140980917E+00  0.89167752711E+00  0.88000000000E+00 0.  1.
        -11    1    4    4    0    0  0.13211309851E-01 -0.26576431651E-01  0.48371941255E-01  0.56753424998E-01  0.51100000000E-03 0. -1.
         11    1    4    4    0    0  0.36575027331E-01 -0.35931588435E-01  0.51332901592E-01  0.72554390485E-01  0.51100000000E-03 0.  1.
</event>
<event>
 8    1  0.1081309E+005  0.1043930E+01  0.7957747E-01            NaN
         13   -1    0    0    0    0  0.00000000000E+00  0.00000000000E+00  0.74505805969E-08  0.10566000000E+00  0.10566000000E+00 0. -1.
     999900   -1    0    0    0    0 -0.00000000000E+00 -0.00000000000E+00 -0.74505805969E-08  0.93827000000E+00  0.93827000000E+00 0. -1.
     999902    2    1    2    0    0  0.20837805280E-02 -0.23791660521E-01  0.46441558880E-02  0.10195999068E+01  0.10193095783E+01 0.  0.
     999903    2    3    3    0    0 -0.21070459450E-01 -0.10172388496E+00 -0.78501435119E-01  0.13194978442E+00  0.21367200563E-01 0.  0.
         14    1    1    2    0    0 -0.20837805280E-02  0.23791660521E-01 -0.46441558880E-02  0.24330093209E-01  0.00000000000E+00 0.  1.
     999901    1    3    3    0    0  0.23154239978E-01  0.77932224442E-01  0.83145591007E-01  0.88765012237E+00  0.88000000000E+00 0. -1.
        -11    1    4    4    0    0 -0.13362515911E-01 -0.39676532368E-01 -0.43137197984E-01  0.60115414189E-01  0.51100000000E-03 0.  1.
         11    1    4    4    0    0 -0.77079435396E-02 -0.62047352596E-01 -0.35364237135E-01  0.71834370234E-01  0.51100000000E-03 0. -1.
</event>
<event>
 8    1  0.1081309E+005  0.1043930E+01  0.7957747E-01            NaN
         13   -1    0    0    0    0  0.00000000000E+00  0.00000000000E+00  0.74505805969E-08  0.10566000000E+00  0.10566000000E+00 0.  1.
     999900   -1    0    0    0    0 -0.00000000000E+00 -0.00000000000E+00 -0.74505805969E-08  0.93827000000E+00  0.93827000000E+00 0.  1.
     999902    2    1    2    0    0  0.15508161457E-01 -0.50485681064E-02 -0.70702802643E-02  0.10261541744E+01  0.10260001997E+01 0.  0.
     999903    2    3    3    0    0  0.61302108705E-01  0.75922335061E-01 -0.94262719722E-01  0.13696583990E+00  0.18762501893E-01 0.  0.
         14    1    1    2    0    0 -0.15508161457E-01  0.50485681064E-02  0.70702802643E-02  0.17775825571E-01  0.00000000000E+00 0. -1.
     999901    1    3    3    0    0 -0.45793947248E-01 -0.80970903167E-01  0.87192439458E-01  0.88918833453E+00  0.88000000000E+00 0. -1.
        -11    1    4    4    0    0  0.33227089548E-01  0.31962751420E-01 -0.54428871892E-01  0.71333163217E-01  0.51100000000E-03 0. -1.
         11    1    4    4    0    0  0.28075019157E-01  0.43959583641E-01 -0.39833847830E-01  0.65632676683E-01  0.51100000000E-03 0.  1.
</event>
<event>
 8    1  0.1081309E+005  0.1043930E+01  0.7957747E-01            NaN
         13   -1    0    0    0    0  0.00000000000E+00  0.00000000000E+00  0.74505805969E-08  0.10566000000E+00  0.10566000000E+00 0.  1.
     999900   -1    0    0    0    0 -0.00000000000E+00 -0.00000000000E+00 -0.74505805969E-08  0.93827000000E+00  0.93827000000E+00 0.  1.
     999902    2    1    2    0    0  0.89892708305E-02 -0.13661684477E-01  0.15739112076E-01  0.10212326816E+01  0.10209804218E+01 0.  0.
     999903    2    3    3    0    0 -0.60784322586E-01  0.31996544256E-03 -0.11202279101E+00  0.12916376906E+00  0.20960374099E-01 0.  0.
         14    1    1    2    0    0 -0.89892708305E-02  0.13661684477E-01 -0.15739112076E-01  0.22697318383E-01  0.00000000000E+00 0. -1.
     999901    1    3    3    0    0  0.69773593416E-01 -0.13981649920E-01  0.12776190308E+00  0.89206891256E+00  0.88000000000E+00 0. -1.
        -11    1    4    4    0    0 -0.21437658606E-01 -0.76379581639E-02 -0.28347878744E-01  0.36356223150E-01  0.51100000000E-03 0.  1.
         11    1    4    4    0    0 -0.39346663980E-01  0.79579236065E-02 -0.83674912263E-01  0.92807545910E-01  0.51100000000E-03 0. -1.
</event>
<event>
 8    1  0.1081309E+005  0.1043930E+01  0.7957747E-01            NaN
         13   -1    0    0    0    0  0.00000000000E+00  0.00000000000E+00  0.74505805969E-08  0.10566000000E+00  0.10566000000E+00 0.  1.
     999900   -1    0    0    0    0 -0.00000000000E+00 -0.00000000000E+00 -0.74505805969E-08  0.93827000000E+00  0.93827000000E+00 0. -1.
     999902    2    1    2    0    0 -0.61902552167E-02  0.87062805322E-02  0.21203860125E-01  0.10201871639E+01  0.10199108428E+01 0.  0.
     999903    2    3    3    0    0  0.12555868199E+00  0.98894441388E-03 -0.23245472727E-01  0.12923650148E+00  0.19893734655E-01 0.  0.
         14    1    1    2    0    0  0.61902552167E-02 -0.87062805322E-02 -0.21203860125E-01  0.23742836068E-01  0.00000000000E+00 0.  1.
     999901    1    3    3    0    0 -0.13174893721E+00  0.77173361183E-02  0.44449332851E-01  0.89095066245E+00  0.88000000000E+00 0. -1.
        -11    1    4    4    0    0  0.50167159439E-01  0.10132572771E-01 -0.92184913814E-02  0.52006294057E-01  0.51100000000E-03 0.  1.
         11    1    4    4    0    0  0.75391522551E-01 -0.91436283574E-02 -0.14026981345E-01  0.77230207424E-01  0.51100000000E-03 0. -1.
</event>
<event>
 8    1  0.1081309E+005  0.1043930E+01  0.7957747E-01            NaN
         13   -1    0    0    0    0  0.00000000000E+00  0.00000000000E+00  0.74505805969E-08  0.10566000000E+00  0.10566000000E+00 0.  1.
     999900   -1    0    0    0    0 -0.00000000000E+00 -0.00000000000E+00 -0.74505805969E-08  0.93827000000E+00  0.93827000000E+00 0. -1.
     999902    2    1    2    0    0 -0.23675069964E-01 -0.42355953532E-02 -0.52842244638E-03  0.10198732247E+01  0.10195894596E+01 0.  0.
     999903    2    3    3    0    0 -0.32089996594E-01 -0.97338952720E-01  0.80155910834E-01  0.13125125349E+00  0.17241864849E-01 0.  0.
         14    1    1    2    0    0  0.23675069964E-01  0.42355953532E-02  0.52842244638E-03  0.24056775263E-01  0.00000000000E+00 0.  1.
     999901    1    3    3    0    0  0.84149266299E-02  0.93103357367E-01 -0.80684333280E-01  0.88862197125E+00  0.88000000000E+00 0. -1.
        -11    1    4    4    0    0 -0.17203516552E-01 -0.70758835523E-01  0.49662540743E-01  0.88144216262E-01  0.51100000000E-03 0.  1.
         11    1    4    4    0    0 -0.14886480041E-01 -0.26580117197E-01  0.30493370091E-01  0.43107037230E-01  0.51100000000E-03 0. -1.
</event>
<event>
 8    1  0.1081309E+005  0.1043930E+01  0.7957747E-01            NaN
         13   -1    0    0    0    0  0.00000000000E+00  0.00000000000E+00  0.74505805969E-08  0.10566000000E+00  0.10566000000E+00 0.  1.
     999900   -1    0    0    0    0 -0.00000000000E+00 -0.00000000000E+00 -0.74505805969E-08  0.93827000000E+00  0.93827000000E+00 0.  1.
     999902    2    1    2    0    0 -0.16449834771E-01 -0.79871468727E-03 -0.13724000529E-01  0.10224921083E+01  0.10222673468E+01 0.  0.
     999903    2    3    3    0    0  0.10198541026E-01 -0.24916294530E-01  0.12635626262E+00  0.13068816478E+00  0.19714444888E-01 0.  0.
         14    1    1    2    0    0  0.16449834771E-01  0.79871468727E-03  0.13724000529E-01  0.21437891680E-01  0.00000000000E+00 0.  1.
     999901    1    3    3    0    0 -0.26648375797E-01  0.24117579842E-01 -0.14008026315E+00  0.89180394354E+00  0.88000000000E+00 0.  1.
        -11    1    4    4    0    0  0.15183958192E-01 -0.19944029506E-01  0.81171504333E-01  0.84955230186E-01  0.51100000000E-03 0. -1.
         11    1    4    4    0    0 -0.49854171663E-02 -0.49722650239E-02  0.45184758290E-01  0.45732934594E-01  0.51100000000E-03 0.  1.
</event>
<event>
 8    1  0.1081309E+005  0.1043930E+01  0.7957747E-01            NaN
         13   -1    0    0    0    0  0.00000000000E+00  0.00000000000E+00  0.74505805969E-08  0.10566000000E+00  0.10566000000E+00 0. -1.
     999900   -1    0    0    0    0 -0.00000000000E+00 -0.00000000000E+00 -0.74505805969E-08  0.93827000000E+00  0.93827000000E+00 0. -1.
     999902    2    1    2    0    0  0.16463376854E-02  0.12020775261E-01  0.20816262101E-01  0.10198358880E+01  0.10195512308E+01 0.  0.
     999903    2    3    3    0    0  0.10447514864E+00 -0.69074727763E-01  0.28913337961E-01  0.13010794777E+00  0.20142548557E-01 0.  0.
         14    1    1    2    0    0 -0.16463376854E-02 -0.12020775261E-01 -0.20816262101E-01  0.24094112009E-01  0.00000000000E+00 0.  1.
     999901    1    3    3    0    0 -0.10282881095E+00  0.81095503025E-01 -0.80970758604E-02  0.88972794022E+00  0.88000000000E+00 0. -1.
        -11    1    4    4    0    0  0.63976489186E-01 -0.53715983552E-01  0.19098126805E-01  0.85693626520E-01  0.51100000000E-03 0.  1.
         11    1    4    4    0    0  0.40498659451E-01 -0.15358744211E-01  0.98152111558E-02  0.44414321250E-01  0.51100000000E-03 0. -1.
</event>
<event>
 8    1  0.1081309E+005  0.1043930E+01  0.7957747E-01            NaN
         13   -1    0    0    0    0  0.00000000000E+00  0.00000000000E+00  0.74505805969E-08  0.10566000000E+00  0.10566000000E+00 0.  1.
     999900   -1    0    0    0    0 -0.00000000000E+00 -0.00000000000E+00 -0.74505805969E-08  0.93827000000E+00  0.93827000000E+00 0. -1.
     999902    2    1    2    0    0  0.13521475530E-02 -0.17520072448E-01 -0.15820777308E-01  0.10202851647E+01  0.10200111465E+01 0.  0.
     999903    2    3    3    0    0 -0.42948251445E-01  0.75672228973E-01 -0.95529895851E-01  0.13067801884E+00  0.19492179613E-01 0.  0.
         14    1    1    2    0    0 -0.13521475530E-02  0.17520072448E-01  0.15820777308E-01  0.23644835297E-01  0.00000000000E+00 0.  1.
     999901    1    3    3    0    0  0.44300398998E-01 -0.93192301421E-01  0.79709118543E-01  0.88960714587E+00  0.88000000000E+00 0.  1.
        -11    1    4    4    0    0 -0.22077114733E-01  0.36867785181E-01 -0.33008977629E-01  0.54189356004E-01  0.51100000000E-03 0.  1.
         11    1    4    4    0    0 -0.20871136712E-01  0.38804443792E-01 -0.62520918222E-01  0.76488662833E-01  0.51100000000E-03 0. -1.
</event>
<event>
 8    1  0.1081309E+005  0.1043930E+01  0.7957747E-01            NaN
         13   -1    0    0    0    0  0.00000000000E+00  0.00000000000E+00  0.74505805969E-08  0.10566000000E+00  0.10566000000E+00 0.  1.
     999900   -1    0    0    0    0 -0.00000000000E+00 -0.00000000000E+00 -0.74505805969E-08  0.93827000000E+00  0.93827000000E+00 0. -1.
     999902    2    1    2    0    0 -0.24368243234E-02  0.28436654529E-02 -0.23998912511E-01  0.10196406536E+01  0.10193513085E+01 0.  0.
     999903    2    3    3    0    0  0.28047225590E-01  0.13677744890E-01  0.12189578572E+00  0.12704224585E+00  0.17533456208E-01 0.  0.
         14    1    1    2    0    0  0.24368243234E-02 -0.28436654529E-02  0.23998912511E-01  0.24289346383E-01  0.00000000000E+00 0.  1.
     999901    1    3    3    0    0 -0.30484049914E-01 -0.10834079437E-01 -0.14589469823E+00  0.89259840777E+00  0.88000000000E+00 0. -1.
        -11    1    4    4    0    0  0.34273762025E-02  0.45748704310E-03  0.46525164517E-01  0.46656277781E-01  0.51100000000E-03 0. -1.
         11    1    4    4    0    0  0.24619849388E-01  0.13220257847E-01  0.75370621199E-01  0.80385968069E-01  0.51100000000E-03 0.  1.
</event>
<event>
 8    1  0.1081309E+005  0.1043930E+01  0.7957747E-01            NaN
         13   -1    0    0    0    0  0.00000000000E+00  0.00000000000E+00  0.74505805969E-08  0.10566000000E+00  0.10566000000E+00 0. -1.
     999900   -1    0    0    0    0 -0.00000000000E+00 -0.00000000000E+00 -0.74505805969E-08  0.93827000000E+00  0.93827000000E+00 0.  1.
     999902    2    1    2    0    0 -0.22530908201E-01 -0.34419981868E-02 -0.69224773914E-02  0.10201096333E+01  0.10198314832E+01 0.  0.
     999903    2    3    3    0    0 -0.29837612761E-01  0.10891703183E+00  0.61910536823E-01  0.13026924122E+00  0.19594838110E-01 0.  0.
         14    1    1    2    0    0  0.22530908201E-01  0.34419981868E-02  0.69224773914E-02  0.23820366687E-01  0.00000000000E+00 0.  1.
     999901    1    3    3    0    0  0.73067045599E-02 -0.11235903001E+00 -0.68833014215E-01  0.88984039209E+00  0.88000000000E+00 0.  1.
        -11    1    4    4    0    0 -0.12474684419E-01  0.27130146686E-01  0.84863418223E-02  0.31047410988E-01  0.51100000000E-03 0. -1.
         11    1    4    4    0    0 -0.17362928342E-01  0.81786885142E-01  0.53424195001E-01  0.99221830230E-01  0.51100000000E-03 0.  1.
</event>
<event>
 8    1  0.1081309E+005  0.1043930E+01  0.7957747E-01            NaN
         13   -1    0    0    0    0  0.00000000000E+00  0.00000000000E+00  0.74505805969E-08  0.10566000000E+00  0.10566000000E+00 0.  1.
     999900   -1    0    0    0    0 -0.00000000000E+00 -0.00000000000E+00 -0.74505805969E-08  0.93827000000E+00  0.93827000000E+00 0. -1.
     999902    2    1    2    0    0  0.41517564861E-03  0.19416386527E-01 -0.26437406456E-01  0.10111259622E+01  0.10105936901E+01 0.  0.
     999903    2    3    3    0    0  0.19374373166E-01 -0.11658056083E+00  0.51272008717E-03  0.12006988641E+00  0.21216060947E-01 0.  0.
         14    1    1    2    0    0 -0.41517564861E-03 -0.19416386527E-01  0.26437406456E-01  0.32804037811E-01  0.00000000000E+00 0.  1.
     999901    1    3    3    0    0 -0.18959197517E-01  0.13599694736E+00 -0.26950126543E-01  0.89105607578E+00  0.88000000000E+00 0. -1.
        -11    1    4    4    0    0  0.91872735838E-02 -0.13794041665E-01 -0.23004672156E-02  0.16740216599E-01  0.51100000000E-03 0.  1.
         11    1    4    4    0    0  0.10187099582E-01 -0.10278651916E+00  0.28131873028E-02  0.10332966981E+00  0.51100000000E-03 0. -1.
</event>
<event>
 8    1  0.1081309E+005  0.1043930E+01  0.7957747E-01            NaN
         13   -1    0    0    0    0  0.00000000000E+00  0.00000000000E+00  0.74505805969E-08  0.10566000000E+00  0.10566000000E+00 0.  1.
     999900   -1    0    0    0    0 -0.00000000000E+00 -0.00000000000E+00 -0.74505805969E-08  0.93827000000E+00  0.93827000000E+00 0.  1.
     999902    2    1    2    0    0  0.22983751243E-01  0.54860738234E-02  0.29181133241E-02  0.10201210686E+01  0.10198431887E+01 0.  0.
     999903    2    3    3    0    0  0.45470341709E-01 -0.80108998932E-01 -0.90623553962E-01  0.13074926408E+00  0.19943365792E-01 0.  0.
         14    1    1    2    0    0 -0.22983751243E-01 -0.54860738234E-02 -0.29181133241E-02  0.23808931361E-01  0.00000000000E+00 0. -1.
     999901    1    3    3    0    0 -0.22486590467E-01  0.85595072755E-01  0.93541667286E-01  0.88937180456E+00  0.88000000000E+00 0. -1.
        -11    1    4    4    0    0  0.23628393069E-01 -0.23441847817E-01 -0.36490917663E-01  0.49393009435E-01  0.51100000000E-03 0.  1.
         11    1    4    4    0    0  0.21841948640E-01 -0.56667151114E-01 -0.54132636299E-01  0.81356254642E-01  0.51100000000E-03 0. -1.
</event>
<event>
 8    1  0.1081309E+005  0.1043930E+01  0.7957747E-01            NaN
         13   -1    0    0    0    0  0.00000000000E+00  0.00000000000E+00  0.74505805969E-08  0.10566000000E+00  0.10566000000E+00 0. -1.
     999900   -1    0    0    0    0 -0.00000000000E+00 -0.00000000000E+00 -0.74505805969E-08  0.93827000000E+00  0.93827000000E+00 0.  1.
     999902    2    1    2    0    0 -0.19402192672E-01 -0.32838080636E-02  0.13711273246E-01  0.10199460994E+01  0.10196640712E+01 0.  0.
     999903    2    3    3    0    0  0.99886325673E-01  0.34116145655E-01  0.71611399069E-01  0.12922676550E+00  0.20740660385E-01 0.  0.
         14    1    1    2    0    0  0.19402192672E-01  0.32838080636E-02 -0.13711273246E-01  0.23983900640E-01  0.00000000000E+00 0.  1.
     999901    1    3    3    0    0 -0.11928851835E+00 -0.37399953719E-01 -0.57900125823E-01  0.89071933386E+00  0.88000000000E+00 0.  1.
        -11    1    4    4    0    0  0.33210056693E-01  0.15243247304E-01  0.36065030323E-01  0.51344055032E-01  0.51100000000E-03 0.  1.
         11    1    4    4    0    0  0.66676268980E-01  0.18872898351E-01  0.35546368746E-01  0.77882710465E-01  0.51100000000E-03 0. -1.
</event>
<event>
 8    1  0.1081309E+005  0.1043930E+01  0.7957747E-01            NaN
         13   -1    0    0    0    0  0.00000000000E+00  0.00000000000E+00  0.74505805969E-08  0.10566000000E+00  0.10566000000E+00 0.  1.
     999900   -1    0    0    0    0 -0.00000000000E+00 -0.00000000000E+00 -0.74505805969E-08  0.93827000000E+00  0.93827000000E+00 0.  1.
     999902    2    1    2    0    0  0.14550506493E-02 -0.74475945646E-02 -0.21563379593E-01  0.10210703592E+01  0.10208144373E+01 0.  0.
     999903    2    3    3    0    0  0.96028512335E-02 -0.12539178881E+00 -0.36220932855E-01  0.13304329686E+00  0.23942585684E-01 0.  0.
         14    1    1    2    0    0 -0.14550506493E-02  0.74475945646E-02  0.21563379593E-01  0.22859640781E-01  0.00000000000E+00 0.  1.
     999901    1    3    3    0    0 -0.81478005842E-02  0.11794419425E+00  0.14657553262E-01  0.88802706236E+00  0.88000000000E+00 0. -1.
        -11    1    4    4    0    0  0.72796844892E-02 -0.86410912084E-01 -0.13221396297E-01  0.87720613168E-01  0.51100000000E-03 0. -1.
         11    1    4    4    0    0  0.23231667443E-02 -0.38980876729E-01 -0.22999536558E-01  0.45322683694E-01  0.51100000000E-03 0.  1.
</event>
<event>
 8    1  0.1081309E+005  0.1043930E+01  0.7957747E-01            NaN
         13   -1    0    0    0    0  0.00000000000E+00  0.00000000000E+00  0.74505805969E-08  0.10566000000E+00  0.10566000000E+00 0.  1.
     999900   -1    0    0    0    0 -0.00000000000E+00 -0.00000000000E+00 -0.74505805969E-08  0.93827000000E+00  0.93827000000E+00 0.  1.
     999902    2    1    2    0    0 -0.22907376377E-01  0.96288362720E-02 -0.55293887204E-02  0.10184734386E+01  0.10181552478E+01 0.  0.
     999903    2    3    3    0    0 -0.81981593893E-01  0.19337497055E-01 -0.99172198369E-01  0.13148245943E+00  0.18910094629E-01 0.  0.
         14    1    1    2    0    0  0.22907376377E-01 -0.96288362720E-02  0.55293887204E-02  0.25456561434E-01  0.00000000000E+00 0.  1.
     999901    1    3    3    0    0  0.59074217515E-01 -0.97086607828E-02  0.93642809649E-01  0.88699097914E+00  0.88000000000E+00 0. -1.
        -11    1    4    4    0    0 -0.32307532689E-01  0.19586383699E-02 -0.49295899138E-01  0.58974229334E-01  0.51100000000E-03 0. -1.
         11    1    4    4    0    0 -0.49674061204E-01  0.17378858685E-01 -0.49876299231E-01  0.72508230096E-01  0.51100000000E-03 0.  1.
</event>
<event>
 8    1  0.1081309E+005  0.1043930E+01  0.7957747E-01            NaN
         13   -1    0    0    0    0  0.00000000000E+00  0.00000000000E+00  0.74505805969E-08  0.10566000000E+00  0.10566000000E+00 0. -1.
     999900   -1    0    0    0    0 -0.00000000000E+00 -0.00000000000E+00 -0.74505805969E-08  0.93827000000E+00  0.93827000000E+00 0.  1.
     999902    2    1    2    0    0 -0.56788823945E-02 -0.21020619501E-01 -0.10713528763E-01  0.10196628236E+01  0.10193740129E+01 0.  0.
     999903    2    3    3    0    0 -0.11270358332E+00  0.25780771104E-01  0.54921956028E-01  0.12952088349E+00  0.19811414745E-01 0.  0.
         14    1    1    2    0    0  0.56788823945E-02  0.21020619501E-01  0.10713528763E-01  0.24267176351E-01  0.00000000000E+00 0.  1.
     999901    1    3    3    0    0  0.10702470092E+00 -0.46801390605E-01 -0.65635484791E-01  0.89014194016E+00  0.88000000000E+00 0. -1.
        -11    1    4    4    0    0 -0.16319680852E-01  0.10949029780E-01  0.70515271581E-02  0.20885363116E-01  0.51100000000E-03 0.  1.
         11    1    4    4    0    0 -0.96383902466E-01  0.14831741323E-01  0.47870428870E-01  0.10863552037E+00  0.51100000000E-03 0. -1.
</event>
<event>
 8    1  0.1081309E+005  0.1043930E+01  0.7957747E-01            NaN
         13   -1    0    0    0    0  0.00000000000E+00  0.00000000000E+00  0.74505805969E-08  0.10566000000E+00  0.10566000000E+00 0. -1.
     999900   -1    0    0    0    0 -0.00000000000E+00 -0.00000000000E+00 -0.74505805969E-08  0.93827000000E+00  0.93827000000E+00 0. -1.
     999902    2    1    2    0    0  0.13667314575E-01  0.79512036530E-02  0.17905967243E-01  0.10200419111E+01  0.10197621584E+01 0.  0.
     999903    2    3    3    0    0 -0.29617092012E-01  0.11760915615E+00 -0.42031587417E-01  0.13015938132E+00  0.21580650003E-01 0.  0.
         14    1    1    2    0    0 -0.13667314575E-01 -0.79512036530E-02 -0.17905967243E-01  0.23888088876E-01  0.00000000000E+00 0.  1.
     999901    1    3    3    0    0  0.43284406588E-01 -0.10965795250E+00  0.59937554660E-01  0.88988252981E+00  0.88000000000E+00 0.  1.
        -11    1    4    4    0    0 -0.14121399315E-01  0.22317363637E-01 -0.12316441163E-01  0.29145059311E-01  0.51100000000E-03 0.  1.
         11    1    4    4    0    0 -0.15495692697E-01  0.95291792512E-01 -0.29715146254E-01  0.10101432201E+00  0.51100000000E-03 0. -1.
</event>
<event>
 8    1  0.1081309E+005  0.1043930E+01  0.7957747E-01            NaN
         13   -1    0    0    0    0  0.00000000000E+00  0.00000000000E+00  0.74505805969E-08  0.10566000000E+00  0.10566000000E+00 0.  1.
     999900   -1    0    0    0    0 -0.00000000000E+00 -0.00000000000E+00 -0.74505805969E-08  0.93827000000E+00  0.93827000000E+00 0. -1.
     999902    2    1    2    0    0 -0.22902179841E-01  0.75809946367E-02 -0.46633281455E-02  0.10193591239E+01  0.10190629498E+01 0.  0.
     999903    2    3    3    0    0  0.12498787985E+00 -0.14691565045E-02  0.11011283075E-01  0.12683513634E+00  0.18487155706E-01 0.  0.
         14    1    1    2    0    0  0.22902179841E-01 -0.75809946367E-02  0.46633281455E-02  0.24570876064E-01  0.00000000000E+00 0. -1.
     999901    1    3    3    0    0 -0.14789005969E+00  0.90501511412E-02 -0.15674611221E-01  0.89252398759E+00  0.88000000000E+00 0. -1.
        -11    1    4    4    0    0  0.89398070006E-01 -0.87074539608E-02  0.11156918447E-01  0.90512831275E-01  0.51100000000E-03 0. -1.
         11    1    4    4    0    0  0.35589809844E-01  0.72382974563E-02 -0.14563537171E-03  0.36322305068E-01  0.51100000000E-03 0.  1.
</event>
<event>
 8    1  0.1081309E+005  0.1043930E+01  0.7957747E-01            NaN
         13   -1    0    0    0    0  0.00000000000E+00  0.00000000000E+00  0.74505805969E-08  0.10566000000E+00  0.10566000000E+00 0.  1.
     999900   -1    0    0    0    0 -0.00000000000E+00 -0.00000000000E+00 -0.74505805969E-08  0.93827000000E+00  0.93827000000E+00 0.  1.
     999902    2    1    2    0    0  0.12476516767E-01  0.75149222840E-02 -0.19322198627E-01  0.10197332050E+01  0.10194460871E+01 0.  0.
     999903    2    3    3    0    0 -0.33660630901E-01  0.21599489357E-02  0.12114860768E+00  0.12738273600E+00  0.20289722426E-01 0.  0.
         14    1    1    2    0    0 -0.12476516767E-01 -0.75149222840E-02  0.19322198627E-01  0.24196794981E-01  0.00000000000E+00 0.  1.
     999901    1    3    3    0    0  0.46137147668E-01  0.53549733483E-02 -0.14047080631E+00  0.89235046902E+00  0.88000000000E+00 0.  1.
        -11    1    4    4    0    0 -0.22142436285E-01  0.42060375262E-02  0.10524965272E+00  0.10763702316E+00  0.51100000000E-03 0.  1.
         11    1    4    4    0    0 -0.11518194616E-01 -0.20460885905E-02  0.15898954962E-01  0.19745712842E-01  0.51100000000E-03 0. -1.
</event>
<event>
 8    1  0.1081309E+005  0.1043930E+01  0.7957747E-01            NaN
         13   -1    0    0    0    0  0.00000000000E+00  0.00000000000E+00  0.74505805969E-08  0.10566000000E+00  0.10566000000E+00 0.  1.
     999900   -1    0    0    0    0 -0.00000000000E+00 -0.00000000000E+00 -0.74505805969E-08  0.93827000000E+00  0.93827000000E+00 0. -1.
     999902    2    1    2    0    0  0.22422315076E-02  0.23628597258E-01 -0.16098867807E-03  0.10201947071E+01  0.10199185636E+01 0.  0.
     999903    2    3    3    0    0  0.22764508128E-01  0.12058877597E+00  0.48249738148E-01  0.13330912343E+00  0.19580843638E-01 0.  0.
         14    1    1    2    0    0 -0.22422315076E-02 -0.23628597258E-01  0.16098867807E-03  0.23735292875E-01  0.00000000000E+00 0.  1.
     999901    1    3    3    0    0 -0.20522276620E-01 -0.96960178715E-01 -0.48410726826E-01  0.88688558369E+00  0.88000000000E+00 0.  1.
        -11    1    4    4    0    0  0.10138925295E-01  0.56614431923E-01  0.33101981085E-01  0.66362594742E-01  0.51100000000E-03 0. -1.
         11    1    4    4    0    0  0.12625582833E-01  0.63974344049E-01  0.15147757063E-01  0.66946528689E-01  0.51100000000E-03 0.  1.
</event>
<event>
 8    1  0.1081309E+005  0.1043930E+01  0.7957747E-01            NaN
         13   -1    0    0    0    0  0.00000000000E+00  0.00000000000E+00  0.74505805969E-08  0.10566000000E+00  0.10566000000E+00 0.  1.
     999900   -1    0    0    0    0 -0.00000000000E+00 -0.00000000000E+00 -0.74505805969E-08  0.93827000000E+00  0.93827000000E+00 0.  1.
     999902    2    1    2    0    0 -0.29605096864E-01 -0.18884745295E-02  0.52894412759E-02  0.10137968574E+01  0.10133489338E+01 0.  0.
     999903    2    3    3    0    0  0.29858562141E-01 -0.10912165229E+00 -0.46222232543E-01  0.12380341149E+00  0.19791947449E-01 0.  0.
         14    1    1    2    0    0  0.29605096864E-01  0.18884745295E-02 -0.52894412759E-02  0.30133142640E-01  0.00000000000E+00 0. -1.
     999901    1    3    3    0    0 -0.59463659005E-01  0.10723317776E+00  0.51511673819E-01  0.88999344587E+00  0.88000000000E+00 0. -1.
        -11    1    4    4    0    0  0.27776950877E-01 -0.90987392563E-01 -0.45684940762E-01  0.10553501570E+00  0.51100000000E-03 0. -1.
         11    1    4    4    0    0  0.20816112633E-02 -0.18134259725E-01 -0.53729178115E-03  0.18268395788E-01  0.51100000000E-03 0.  1.
</event>
<event>
 8    1  0.1081309E+005  0.1043930E+01  0.7957747E-01            NaN
         13   -1    0    0    0    0  0.00000000000E+00  0.00000000000E+00  0.74505805969E-08  0.10566000000E+00  0.10566000000E+00 0. -1.
     999900   -1    0    0    0    0 -0.00000000000E+00 -0.00000000000E+00 -0.74505805969E-08  0.93827000000E+00  0.93827000000E+00 0. -1.
     999902    2    1    2    0    0  0.20700381850E-01  0.68822102447E-02  0.14478644386E-01  0.10177479113E+01  0.10174110817E+01 0.  0.
     999903    2    3    3    0    0 -0.16168214076E-01  0.52367548026E-01  0.11614124869E+00  0.12996218576E+00  0.19940131562E-01 0.  0.
         14    1    1    2    0    0 -0.20700381850E-01 -0.68822102447E-02 -0.14478644386E-01  0.26182088722E-01  0.00000000000E+00 0.  1.
     999901    1    3    3    0    0  0.36868595926E-01 -0.45485337781E-01 -0.10166260431E+00  0.88778572552E+00  0.88000000000E+00 0. -1.
        -11    1    4    4    0    0 -0.47377655020E-02  0.53462830828E-04  0.90291069334E-02  0.10209562833E-01  0.51100000000E-03 0.  1.
         11    1    4    4    0    0 -0.11430448574E-01  0.52314085195E-01  0.10711214176E+00  0.11975262293E+00  0.51100000000E-03 0. -1.
</event>
<event>
 8    1  0.1081309E+005  0.1043930E+01  0.7957747E-01            NaN
         13   -1    0    0    0    0  0.00000000000E+00  0.00000000000E+00  0.74505805969E-08  0.10566000000E+00  0.10566000000E+00 0.  1.
     999900   -1    0    0    0    0 -0.00000000000E+00 -0.00000000000E+00 -0.74505805969E-08  0.93827000000E+00  0.93827000000E+00 0.  1.
     999902    2    1    2    0    0  0.11536181560E-01 -0.13341633596E-01 -0.15817025645E-01  0.10202390529E+01  0.10199639524E+01 0.  0.
     999903    2    3    3    0    0  0.11958039978E+00 -0.53176662186E-01 -0.10477866587E-01  0.13272066485E+00  0.19436043278E-01 0.  0.
         14    1    1    2    0    0 -0.11536181560E-01  0.13341633596E-01  0.15817025645E-01  0.23690947052E-01  0.00000000000E+00 0.  1.
     999901    1    3    3    0    0 -0.10804421822E+00  0.39835028590E-01 -0.53391590583E-02  0.88751838810E+00  0.88000000000E+00 0.  1.
        -11    1    4    4    0    0  0.62506309874E-01 -0.34060415806E-01 -0.13490436158E-01  0.72452768668E-01  0.51100000000E-03 0.  1.
         11    1    4    4    0    0  0.57074089901E-01 -0.19116246379E-01  0.30125695716E-02  0.60267896181E-01  0.51100000000E-03 0. -1.
</event>
<event>
 8    1  0.1081309E+005  0.1043930E+01  0.7957747E-01            NaN
         13   -1    0    0    0    0  0.00000000000E+00  0.00000000000E+00  0.74505805969E-08  0.10566000000E+00  0.10566000000E+00 0.  1.
     999900   -1    0    0    0    0 -0.00000000000E+00 -0.00000000000E+00 -0.74505805969E-08  0.93827000000E+00  0.93827000000E+00 0.  1.
     999902    2    1    2    0    0  0.11650864807E-01  0.18861160694E-01  0.11585901677E-01  0.10189156211E+01  0.10186085233E+01 0.  0.
     999903    2    3    3    0    0 -0.33266110521E-01  0.11445125077E+00  0.52142891650E-01  0.13167277418E+00  0.20325240424E-01 0.  0.
         14    1    1    2    0    0 -0.11650864807E-01 -0.18861160694E-01 -0.11585901677E-01  0.25014378888E-01  0.00000000000E+00 0.  1.
     999901    1    3    3    0    0  0.44916975328E-01 -0.95590090078E-01 -0.40556989973E-01  0.88724284693E+00  0.88000000000E+00 0. -1.
        -11    1    4    4    0    0 -0.76963808026E-02  0.22203871277E-01  0.19533276057E-02  0.23586495858E-01  0.51100000000E-03 0. -1.
         11    1    4    4    0    0 -0.25569729719E-01  0.92247379496E-01  0.50189564044E-01  0.10808627832E+00  0.51100000000E-03 0.  1.
</event>
<event>
 8    1  0.1081309E+005  0.1043930E+01  0.7957747E-01            NaN
         13   -1    0    0    0    0  0.00000000000E+00  0.00000000000E+00  0.74505805969E-08  0.10566000000E+00  0.10566000000E+00 0.  1.
     999900   -1    0    0    0    0 -0.00000000000E+00 -0.00000000000E+00 -0.74505805969E-08  0.93827000000E+00  0.93827000000E+00 0.  1.
     999902    2    1    2    0    0 -0.15677061248E-01 -0.11915318737E-01 -0.13314218323E-01  0.10201599878E+01  0.10198830263E+01 0.  0.
     999903    2    3    3    0    0  0.66616979770E-01 -0.66882141050E-01  0.85809390068E-01  0.12908246566E+00  0.19697429562E-01 0.  0.
         14    1    1    2    0    0  0.15677061248E-01  0.11915318737E-01  0.13314218323E-01  0.23770012191E-01  0.00000000000E+00 0. -1.
     999901    1    3    3    0    0 -0.82294041018E-01  0.54966822313E-01 -0.99123608392E-01  0.89107752215E+00  0.88000000000E+00 0.  1.
        -11    1    4    4    0    0  0.49430915197E-01 -0.42606232340E-01  0.48202530130E-01  0.81132308258E-01  0.51100000000E-03 0.  1.
         11    1    4    4    0    0  0.17186064573E-01 -0.24275908710E-01  0.37606859939E-01  0.47950157400E-01  0.51100000000E-03 0. -1.
</event>
<event>
 8    1  0.1081309E+005  0.1043930E+01  0.7957747E-01            NaN
         13   -1    0    0    0    0  0.00000000000E+00  0.00000000000E+00  0.74505805969E-08  0.10566000000E+00  0.10566000000E+00 0.  1.
     999900   -1    0    0    0    0 -0.00000000000E+00 -0.00000000000E+00 -0.74505805969E-08  0.93827000000E+00  0.93827000000E+00 0. -1.
     999902    2    1    2    0    0 -0.44714899896E-02  0.33345327153E-02  0.22631301880E-01  0.10206214360E+01  0.10203552452E+01 0.  0.
     999903    2    3    3    0    0 -0.19332257442E-01  0.63293615120E-01  0.11453433350E+00  0.13368169667E+00  0.19309701722E-01 0.  0.
         14    1    1    2    0    0  0.44714899896E-02 -0.33345327153E-02 -0.22631301880E-01  0.23308564004E-01  0.00000000000E+00 0. -1.
     999901    1    3    3    0    0  0.14860767452E-01 -0.59959082404E-01 -0.91903031625E-01  0.88693973932E+00  0.88000000000E+00 0. -1.
        -11    1    4    4    0    0  0.29161696222E-02  0.20105302125E-01  0.35680609881E-01  0.41062078141E-01  0.51100000000E-03 0.  1.
         11    1    4    4    0    0 -0.22248427064E-01  0.43188312995E-01  0.78853723624E-01  0.92619618529E-01  0.51100000000E-03 0. -1.
</event>
<event>
 8    1  0.1081309E+005  0.1043930E+01  0.7957747E-01            NaN
         13   -1    0    0    0    0  0.00000000000E+00  0.00000000000E+00  0.74505805969E-08  0.10566000000E+00  0.10566000000E+00 0.  1.
     999900   -1    0    0    0    0 -0.00000000000E+00 -0.00000000000E+00 -0.74505805969E-08  0.93827000000E+00  0.93827000000E+00 0.  1.
     999902    2    1    2    0    0  0.10005103954E-01  0.18523831259E-01 -0.11726871051E-01  0.10198311632E+01  0.10195463930E+01 0.  0.
     999903    2    3    3    0    0 -0.14631230431E-01  0.82644382227E-01 -0.10081688675E+00  0.13266972079E+00  0.19825320785E-01 0.  0.
         14    1    1    2    0    0 -0.10005103954E-01 -0.18523831259E-01  0.11726871051E-01  0.24098836783E-01  0.00000000000E+00 0. -1.
     999901    1    3    3    0    0  0.24636334385E-01 -0.64120550968E-01  0.89090015696E-01  0.88716144242E+00  0.88000000000E+00 0. -1.
        -11    1    4    4    0    0 -0.11452672836E-01  0.28496146650E-01 -0.47813149645E-01  0.56829151752E-01  0.51100000000E-03 0.  1.
         11    1    4    4    0    0 -0.31785575958E-02  0.54148235577E-01 -0.53003737102E-01  0.75840569040E-01  0.51100000000E-03 0. -1.
</event>
<event>
 8    1  0.1081309E+005  0.1043930E+01  0.7957747E-01            NaN
         13   -1    0    0    0    0  0.00000000000E+00  0.00000000000E+00  0.74505805969E-08  0.10566000000E+00  0.10566000000E+00 0.  1.
     999900   -1    0    0    0    0 -0.00000000000E+00 -0.00000000000E+00 -0.74505805969E-08  0.93827000000E+00  0.93827000000E+00 0. -1.
     999902    2    1    2    0    0 -0.18238417340E-01 -0.60355352192E-02  0.14099314362E-01  0.10201002241E+01  0.10198218516E+01 0.  0.
     999903    2    3    3    0    0  0.72570995619E-01 -0.41125309821E-01 -0.95172135760E-01  0.12801396621E+00  0.19287291316E-01 0.  0.
         14    1    1    2    0    0  0.18238417340E-01  0.60355352192E-02 -0.14099314362E-01  0.23829775868E-01  0.00000000000E+00 0. -1.
     999901    1    3    3    0    0 -0.90809412959E-01  0.35089774602E-01  0.10927145012E+00  0.89208625792E+00  0.88000000000E+00 0.  1.
        -11    1    4    4    0    0  0.46966674023E-01 -0.16869633061E-01 -0.62024232372E-01  0.79609795319E-01  0.51100000000E-03 0. -1.
         11    1    4    4    0    0  0.25604321596E-01 -0.24255676760E-01 -0.33147903389E-01  0.48404170890E-01  0.51100000000E-03 0.  1.
</event>
<event>
 8    1  0.1081309E+005  0.1043930E+01  0.7957747E-01            NaN
         13   -1    0    0    0    0  0.00000000000E+00  0.00000000000E+00  0.74505805969E-08  0.10566000000E+00  0.10566000000E+00 0. -1.
     999900   -1    0    0    0    0 -0.00000000000E+00 -0.00000000000E+00 -0.74505805969E-08  0.93827000000E+00  0.93827000000E+00 0. -1.
     999902    2    1    2    0    0 -0.12218620467E-01 -0.27898840234E-02 -0.19726825782E-01  0.10205585261E+01  0.10202908798E+01 0.  0.
     999903    2    3    3    0    0 -0.42700035272E-01  0.84108871687E-01 -0.91441772833E-01  0.13285162396E+00  0.19757552014E-01 0.  0.
         14    1    1    2    0    0  0.12218620467E-01  0.27898840234E-02  0.19726825782E-01  0.23371473946E-01  0.00000000000E+00 0. -1.
     999901    1    3    3    0    0  0.30481414805E-01 -0.86898755710E-01  0.71714947051E-01  0.88770690209E+00  0.88000000000E+00 0. -1.
        -11    1    4    4    0    0 -0.28991645438E-01  0.72877960688E-01 -0.71048441678E-01  0.10582936665E+00  0.51100000000E-03 0.  1.
         11    1    4    4    0    0 -0.13708389834E-01  0.11230910999E-01 -0.20393331156E-01  0.27022257314E-01  0.51100000000E-03 0. -1.
</event>
<event>
 8    1  0.1081309E+005  0.1043930E+01  0.7957747E-01            NaN
         13   -1    0    0    0    0  0.00000000000E+00  0.00000000000E+00  0.74505805969E-08  0.10566000000E+00  0.10566000000E+00 0.  1.
     999900   -1    0    0    0    0 -0.00000000000E+00 -0.00000000000E+00 -0.74505805969E-08  0.93827000000E+00  0.93827000000E+00 0. -1.
     999902    2    1    2    0    0  0.18400131645E-01  0.18161213011E-01 -0.41713200738E-02  0.10177423232E+01  0.10174053480E+01 0.  0.
     999903    2    3    3    0    0 -0.12671339625E-01 -0.62694050253E-01  0.10727197932E+00  0.12649453565E+00  0.20061984364E-01 0.  0.
         14    1    1    2    0    0 -0.18400131645E-01 -0.18161213011E-01  0.41713200738E-02  0.26187676753E-01  0.00000000000E+00 0.  1.
     999901    1    3    3    0    0  0.31071471270E-01  0.80855263264E-01 -0.11144329939E+00  0.89124778760E+00  0.88000000000E+00 0. -1.
        -11    1    4    4    0    0  0.32913843951E-02 -0.22887254578E-01  0.27586681337E-01  0.35999246403E-01  0.51100000000E-03 0.  1.
         11    1    4    4    0    0 -0.15962724020E-01 -0.39806795675E-01  0.79685297980E-01  0.90495289243E-01  0.51100000000E-03 0. -1.
</event>
<event>
 8    1  0.1081309E+005  0.1043930E+01  0.7957747E-01            NaN
         13   -1    0    0    0    0  0.00000000000E+00  0.00000000000E+00  0.74505805969E-08  0.10566000000E+00  0.10566000000E+00 0. -1.
     999900   -1    0    0    0    0 -0.00000000000E+00 -0.00000000000E+00 -0.74505805969E-08  0.93827000000E+00  0.93827000000E+00 0.  1.
     999902    2    1    2    0    0  0.42585626531E-02 -0.12132650635E-01 -0.19856501631E-01  0.10202737699E+01  0.10199994844E+01 0.  0.
     999903    2    3    3    0    0 -0.10089316424E+00 -0.23110201314E-01  0.74348831481E-01  0.12895338017E+00  0.19690442384E-01 0.  0.
         14    1    1    2    0    0 -0.42585626531E-02  0.12132650635E-01  0.19856501631E-01  0.23656230138E-01  0.00000000000E+00 0. -1.
     999901    1    3    3    0    0  0.10515172689E+00  0.10977550679E-01 -0.94205333112E-01  0.89132038969E+00  0.88000000000E+00 0.  1.
        -11    1    4    4    0    0 -0.48558515731E-01 -0.23040294732E-02  0.28694453555E-01  0.56452376279E-01  0.51100000000E-03 0. -1.
         11    1    4    4    0    0 -0.52334648506E-01 -0.20806171841E-01  0.45654377927E-01  0.72501003895E-01  0.51100000000E-03 0.  1.
</event>
<event>
 8    1  0.1081309E+005  0.1043930E+01  0.7957747E-01            NaN
         13   -1    0    0    0    0  0.00000000000E+00  0.00000000000E+00  0.74505805969E-08  0.10566000000E+00  0.10566000000E+00 0.  1.
     999900   -1    0    0    0    0 -0.00000000000E+00 -0.00000000000E+00 -0.74505805969E-08  0.93827000000E+00  0.93827000000E+00 0.  1.
     999902    2    1    2    0    0 -0.11173766715E-01  0.55011201271E-02  0.20707145399E-01  0.10197659512E+01  0.10194796192E+01 0.  0.
     999903    2    3    3    0    0 -0.11015651836E+00 -0.68786660017E-01 -0.24506794917E-02  0.13080445355E+00  0.15418693340E-01 0.  0.
         14    1    1    2    0    0  0.11173766715E-01 -0.55011201271E-02 -0.20707145399E-01  0.24164048830E-01  0.00000000000E+00 0. -1.
     999901    1    3    3    0    0  0.98982751646E-01  0.74287780144E-01  0.23157824891E-01  0.88896149762E+00  0.88000000000E+00 0.  1.
        -11    1    4    4    0    0 -0.90068098623E-01 -0.58182147222E-01 -0.76362944220E-02  0.10749883143E+00  0.51100000000E-03 0. -1.
         11    1    4    4    0    0 -0.20088419737E-01 -0.10604512795E-01  0.51856149303E-02  0.23305622119E-01  0.51100000000E-03 0.  1.
</event>
<event>
 8    1  0.1081309E+005  0.1043930E+01  0.7957747E-01            NaN
         13   -1    0    0    0    0  0.00000000000E+00  0.00000000000E+00  0.74505805969E-08  0.10566000000E+00  0.10566000000E+00 0. -1.
     999900   -1    0    0    0    0 -0.00000000000E+00 -0.00000000000E+00 -0.74505805969E-08  0.93827000000E+00  0.93827000000E+00 0.  1.
     999902    2    1    2    0    0  0.64659262746E-02 -0.85316606393E-02  0.21296532574E-01  0.10200943180E+01  0.10198158059E+01 0.  0.
     999903    2    3    3    0    0  0.38878239605E-01 -0.21795959821E-01  0.12416756775E+00  0.13341007345E+00  0.19851484487E-01 0.  0.
         14    1    1    2    0    0 -0.64659262746E-02  0.85316606393E-02 -0.21296532574E-01  0.23835681981E-01  0.00000000000E+00 0.  1.
     999901    1    3    3    0    0 -0.32412313331E-01  0.13264299182E-01 -0.10287103518E+00  0.88668424457E+00  0.88000000000E+00 0.  1.
        -11    1    4    4    0    0  0.18153986124E-01 -0.48740563318E-03  0.35284919107E-01  0.39687421355E-01  0.51100000000E-03 0. -1.
         11    1    4    4    0    0  0.20724253481E-01 -0.21308554188E-01  0.88882648647E-01  0.93722652094E-01  0.51100000000E-03 0.  1.
</event>
<event>
 8    1  0.1081309E+005  0.1043930E+01  0.7957747E-01            NaN
         13   -1    0    0    0    0  0.00000000000E+00  0.00000000000E+00  0.74505805969E-08  0.10566000000E+00  0.10566000000E+00 0. -1.
     999900   -1    0    0    0    0 -0.00000000000E+00 -0.00000000000E+00 -0.74505805969E-08  0.93827000000E+00  0.93827000000E+00 0.  1.
     999902    2    1    2    0    0  0.15095724552E-01 -0.15996000004E-01 -0.85170424142E-02  0.10203441371E+01  0.10200715001E+01 0.  0.
     999903    2    3    3    0    0 -0.27686000511E-01  0.87466696261E-01 -0.89407445017E-01  0.12957028101E+00  0.19437821810E-01 0.  0.
         14    1    1    2    0    0 -0.15095724552E-01  0.15996000004E-01  0.85170424142E-02  0.23585862871E-01  0.00000000000E+00 0.  1.
     999901    1    3    3    0    0  0.42781725062E-01 -0.10346269626E+00  0.80890402603E-01  0.89077385612E+00  0.88000000000E+00 0. -1.
        -11    1    4    4    0    0  0.28408472865E-03  0.25217913391E-01 -0.19588177375E-01  0.31937151937E-01  0.51100000000E-03 0. -1.
         11    1    4    4    0    0 -0.27970085239E-01  0.62248782869E-01 -0.69819267642E-01  0.97633129070E-01  0.51100000000E-03 0.  1.
</event>
<event>
 8    1  0.1081309E+005  0.1043930E+01  0.7957747E-01            NaN
         13   -1    0    0    0    0  0.00000000000E+00  0.00000000000E+00  0.74505805969E-08  0.10566000000E+00  0.10566000000E+00 0. -1.
     999900   -1    0    0    0    0 -0.00000000000E+00 -0.00000000000E+00 -0.74505805969E-08  0.93827000000E+00  0.93827000000E+00 0. -1.
     999902    2    1    2    0    0  0.26103719046E-01 -0.17980716900E-01 -0.19391356150E-01  0.10067717570E+01  0.10060857994E+01 0.  0.
     999903    2    3    3    0    0 -0.63755395717E-01  0.43129489672E-01  0.80278801191E-01  0.11450315501E+00  0.27228353334E-01 0.  0.
         14    1    1    2    0    0 -0.26103719046E-01  0.17980716900E-01  0.19391356150E-01  0.37158242984E-01  0.00000000000E+00 0. -1.
     999901    1    3    3    0    0  0.89859114763E-01 -0.61110206572E-01 -0.99670157341E-01  0.89226860200E+00  0.88000000000E+00 0. -1.
        -11    1    4    4    0    0 -0.16135725776E-01  0.29016890536E-02  0.30874169689E-01  0.34960791191E-01  0.51100000000E-03 0. -1.
         11    1    4    4    0    0 -0.47619669941E-01  0.40227800619E-01  0.49404631502E-01  0.79542363824E-01  0.51100000000E-03 0.  1.
</event>
<event>
 8    1  0.1081309E+005  0.1043930E+01  0.7957747E-01            NaN
         13   -1    0    0    0    0  0.00000000000E+00  0.00000000000E+00  0.74505805969E-08  0.10566000000E+00  0.10566000000E+00 0. -1.
     999900   -1    0    0    0    0 -0.00000000000E+00 -0.00000000000E+00 -0.74505805969E-08  0.93827000000E+00  0.93827000000E+00 0. -1.
     999902    2    1    2    0    0 -0.23393444875E-01 -0.94303368892E-03 -0.30456774136E-02  0.10203202832E+01  0.10200470879E+01 0.  0.
     999903    2    3    3    0    0  0.69731338184E-01  0.89119890890E-01 -0.60976430909E-01  0.12895081560E+00  0.10265146846E-01 0.  0.
         14    1    1    2    0    0  0.23393444875E-01  0.94303368892E-03  0.30456774136E-02  0.23609716783E-01  0.00000000000E+00 0.  1.
     999901    1    3    3    0    0 -0.93124783059E-01 -0.90062924579E-01  0.57930753495E-01  0.89136946762E+00  0.88000000000E+00 0. -1.
        -11    1    4    4    0    0  0.27534914435E-01  0.40749535480E-01 -0.30699259547E-01  0.57977597505E-01  0.51100000000E-03 0.  1.
         11    1    4    4    0    0  0.42196423749E-01  0.48370355410E-01 -0.30277171362E-01  0.70973218092E-01  0.51100000000E-03 0. -1.
</event>
<event>
 7    1  0.1081309E+005  0.1043930E+01  0.7957747E-01            NaN
         13   -1    0    0    0    0  0.00000000000E+00  0.00000000000E+00  0.74505805969E-08  0.10566000000E+00  0.10566000000E+00 0.  1.
     999900   -1    0    0    0    0 -0.00000000000E+00 -0.00000000000E+00 -0.74505805969E-08  0.93827000000E+00  0.93827000000E+00 0. -1.
     999902    2    1    2    0    0 -0.33892428726E-02  0.22398684654E-01  0.41412248699E-02  0.10209009361E+01  0.10206411630E+01 0.  0.
         14    1    1    2    0    0  0.33892428726E-02 -0.22398684654E-01 -0.41412248699E-02  0.23029063917E-01  0.00000000000E+00 0. -1.
     999901    1    3    3    0    0  0.42301966832E-01 -0.88535048924E-01  0.49579985110E-01  0.88684050776E+00  0.88000000000E+00 0.  1.
        -11    1    3    3    0    0 -0.10921038058E-01  0.71891435304E-01 -0.17557213848E-01  0.74807515809E-01  0.51100000000E-03 0.  1.
         11    1    3    3    0    0 -0.34770171646E-01  0.39042298274E-01 -0.27881546392E-01  0.59252912511E-01  0.51100000000E-03 0. -1.
</event>
<event>
 8    1  0.1081309E+005  0.1043930E+01  0.7957747E-01            NaN
         13   -1    0    0    0    0  0.00000000000E+00  0.00000000000E+00  0.74505805969E-08  0.10566000000E+00  0.10566000000E+00 0.  1.
     999900   -1    0    0    0    0 -0.00000000000E+00 -0.00000000000E+00 -0.74505805969E-08  0.93827000000E+00  0.93827000000E+00 0.  1.
     999902    2    1    2    0    0  0.11958338962E-01 -0.17736932948E-01 -0.31459912316E-01  0.10058862522E+01  0.10051665661E+01 0.  0.
     999903    2    3    3    0    0 -0.87262765719E-01 -0.20618845847E-01 -0.75710932660E-01  0.11920069025E+00  0.20898137386E-01 0.  0.
         14    1    1    2    0    0 -0.11958338962E-01  0.17736932948E-01  0.31459912316E-01  0.38043747765E-01  0.00000000000E+00 0.  1.
     999901    1    3    3    0    0  0.99221104681E-01  0.28819128990E-02  0.44251020344E-01  0.88668556199E+00  0.88000000000E+00 0.  1.
        -11    1    4    4    0    0 -0.66484248284E-01 -0.76050693305E-02 -0.61329184332E-01  0.90771814576E-01  0.51100000000E-03 0. -1.
         11    1    4    4    0    0 -0.20778517434E-01 -0.13013776516E-01 -0.14381748327E-01  0.28428875671E-01  0.51100000000E-03 0.  1.
</event>
<event>
 8    1  0.1081309E+005  0.1043930E+01  0.7957747E-01            NaN
         13   -1    0    0    0    0  0.00000000000E+00  0.00000000000E+00  0.74505805969E-08  0.10566000000E+00  0.10566000000E+00 0.  1.
     999900   -1    0    0    0    0 -0.00000000000E+00 -0.00000000000E+00 -0.74505805969E-08  0.93827000000E+00  0.93827000000E+00 0. -1.
     999902    2    1    2    0    0 -0.11422562183E-01 -0.12691613887E-01  0.15940459879E-01  0.10205708422E+01  0.10203034812E+01 0.  0.
     999903    2    3    3    0    0 -0.80609596777E-02 -0.49030628077E-02  0.13162423545E+00  0.13295904769E+00  0.16252689317E-01 0.  0.
         14    1    1    2    0    0  0.11422562183E-01  0.12691613887E-01 -0.15940459879E-01  0.23359157756E-01  0.00000000000E+00 0. -1.
     999901    1    3    3    0    0 -0.33616025056E-02 -0.77885510797E-02 -0.11568377557E+00  0.88761179455E+00  0.88000000000E+00 0. -1.
        -11    1    4    4    0    0 -0.37044622362E-02  0.47694160750E-02  0.21936192967E-01  0.22758032714E-01  0.51100000000E-03 0. -1.
         11    1    4    4    0    0 -0.43564974415E-02 -0.96724788827E-02  0.10968804248E+00  0.11020101498E+00  0.51100000000E-03 0.  1.
</event>
<event>
 8    1  0.1081309E+005  0.1043930E+01  0.7957747E-01            NaN
         13   -1    0    0    0    0  0.00000000000E+00  0.00000000000E+00  0.74505805969E-08  0.10566000000E+00  0.10566000000E+00 0. -1.
     999900   -1    0    0    0    0 -0.00000000000E+00 -0.00000000000E+00 -0.74505805969E-08  0.93827000000E+00  0.93827000000E+00 0.  1.
     999902    2    1    2    0    0 -0.19762589666E-02  0.29212644266E-02  0.22809462627E-01  0.10208494677E+01  0.10205885188E+01 0.  0.
     999903    2    3    3    0    0 -0.11272893993E+00  0.57678462958E-01 -0.27288649269E-01  0.13080771142E+00  0.18203516129E-01 0.  0.
         14    1    1    2    0    0  0.19762589666E-02 -0.29212644266E-02 -0.22809462627E-01  0.23080532288E-01  0.00000000000E+00 0.  1.
     999901    1    3    3    0    0  0.11075268097E+00 -0.54757198531E-01  0.50098111897E-01  0.89004175629E+00  0.88000000000E+00 0. -1.
        -11    1    4    4    0    0 -0.15606188967E-01  0.68269436009E-02  0.24445874380E-02  0.17216196495E-01  0.51100000000E-03 0.  1.
         11    1    4    4    0    0 -0.97122750967E-01  0.50851519357E-01 -0.29733236707E-01  0.11359151492E+00  0.51100000000E-03 0. -1.
</event>
<event>
 8    1  0.1081309E+005  0.1043930E+01  0.7957747E-01            NaN
         13   -1    0    0    0    0  0.00000000000E+00  0.00000000000E+00  0.74505805969E-08  0.10566000000E+00  0.10566000000E+00 0. -1.
     999900   -1    0    0    0    0 -0.00000000000E+00 -0.00000000000E+00 -0.74505805969E-08  0.93827000000E+00  0.93827000000E+00 0. -1.
     999902    2    1    2    0    0  0.19049328728E-01 -0.12494296835E-01  0.76933808405E-02  0.10198847824E+01  0.10196012931E+01 0.  0.
     999903    2    3    3    0    0  0.18406670538E-01 -0.72674976932E-02  0.12836618846E+00  0.13163388381E+00  0.21400443494E-01 0.  0.
         14    1    1    2    0    0 -0.19049328728E-01  0.12494296835E-01 -0.76933808405E-02  0.24045217553E-01  0.00000000000E+00 0.  1.
     999901    1    3    3    0    0  0.64265819002E-03 -0.52267991416E-02 -0.12067280762E+00  0.88825089864E+00  0.88000000000E+00 0. -1.
        -11    1    4    4    0    0  0.21078546612E-01 -0.10828453213E-01  0.92489427151E-01  0.95478352426E-01  0.51100000000E-03 0.  1.
         11    1    4    4    0    0 -0.26718760739E-02  0.35609555199E-02  0.35876761314E-01  0.36155531379E-01  0.51100000000E-03 0. -1.
</event>
<event>
 8    1  0.1181757E+005  0.1043930E+01  0.7957747E-01            NaN
         13   -1    0    0    0    0  0.00000000000E+00  0.00000000000E+00  0.74505805969E-08  0.10566000000E+00  0.10566000000E+00 0.  1.
     999900   -1    0    0    0    0 -0.00000000000E+00 -0.00000000000E+00 -0.74505805969E-08  0.93827000000E+00  0.93827000000E+00 0. -1.
     999902    2    1    2    0    0  0.22306938631E-01 -0.44487357980E-02  0.58849243612E-02  0.10204348282E+01  0.10201643081E+01 0.  0.
     999903    2    3    3    0    0 -0.44288249769E-01  0.10910506996E+00 -0.48706121337E-01  0.12896998418E+00  0.19889826674E-01 0.  0.
         14    1    1    2    0    0 -0.22306938631E-01  0.44487357980E-02 -0.58849243612E-02  0.23495171760E-01  0.00000000000E+00 0. -1.
     999901    1    3    3    0    0  0.66595188400E-01 -0.11355380576E+00  0.54591045698E-01  0.89146484406E+00  0.88000000000E+00 0.  1.
        -11    1    4    4    0    0 -0.19537188315E-01  0.48916334750E-01 -0.11195398732E-01  0.53852647163E-01  0.51100000000E-03 0.  1.
         11    1    4    4    0    0 -0.24751061454E-01  0.60188735213E-01 -0.37510722605E-01  0.75117337020E-01  0.51100000000E-03 0. -1.
</event>
<event>
 8    1  0.1081309E+005  0.1043930E+01  0.7957747E-01            NaN
         13   -1    0    0    0    0  0.00000000000E+00  0.00000000000E+00  0.74505805969E-08  0.10566000000E+00  0.10566000000E+00 0. -1.
     999900   -1    0    0    0    0 -0.00000000000E+00 -0.00000000000E+00 -0.74505805969E-08  0.93827000000E+00  0.93827000000E+00 0. -1.
     999902    2    1    2    0    0  0.33476320791E-02 -0.36884357586E-02 -0.23007822705E-01  0.10203891609E+01  0.10201175759E+01 0.  0.
     999903    2    3    3    0    0 -0.26804885090E-02  0.87398864439E-02 -0.13179827386E+00  0.13358243807E+00  0.19746192922E-01 0.  0.
         14    1    1    2    0    0 -0.33476320791E-02  0.36884357586E-02  0.23007822705E-01  0.23540839078E-01  0.00000000000E+00 0.  1.
     999901    1    3    3    0    0  0.60281205881E-02 -0.12428322203E-01  0.10879045116E+00  0.88680672285E+00  0.88000000000E+00 0.  1.
        -11    1    4    4    0    0 -0.42963515264E-02  0.83102378977E-03 -0.56005021438E-02  0.71257267868E-02  0.51100000000E-03 0.  1.
         11    1    4    4    0    0  0.16158630174E-02  0.79088626542E-02 -0.12619777172E+00  0.12645671128E+00  0.51100000000E-03 0. -1.
</event>
<event>
 8    1  0.1081309E+005  0.1043930E+01  0.7957747E-01            NaN
         13   -1    0    0    0    0  0.00000000000E+00  0.00000000000E+00  0.74505805969E-08  0.10566000000E+00  0.10566000000E+00 0. -1.
     999900   -1    0    0    0    0 -0.00000000000E+00 -0.00000000000E+00 -0.74505805969E-08  0.93827000000E+00  0.93827000000E+00 0.  1.
     999902    2    1    2    0    0  0.12609525845E-01  0.14190941439E-01 -0.13194715667E-01  0.10208111012E+01  0.10205492741E+01 0.  0.
     999903    2    3    3    0    0 -0.70592697437E-01  0.42874355355E-01  0.98030423494E-01  0.12945461819E+00  0.18083002011E-01 0.  0.
         14    1    1    2    0    0 -0.12609525845E-01 -0.14190941439E-01  0.13194715667E-01  0.23118898817E-01  0.00000000000E+00 0. -1.
     999901    1    3    3    0    0  0.83202223282E-01 -0.28683413915E-01 -0.11122513916E+00  0.89135648299E+00  0.88000000000E+00 0.  1.
        -11    1    4    4    0    0 -0.47547138753E-01  0.19362756461E-01  0.54505088450E-01  0.74877984276E-01  0.51100000000E-03 0.  1.
         11    1    4    4    0    0 -0.23045558684E-01  0.23511598894E-01  0.43525335044E-01  0.54576633914E-01  0.51100000000E-03 0. -1.
</event>
<event>
 8    1  0.1081309E+005  0.1043930E+01  0.7957747E-01            NaN
         13   -1    0    0    0    0  0.00000000000E+00  0.00000000000E+00  0.74505805969E-08  0.10566000000E+00  0.10566000000E+00 0.  1.
     999900   -1    0    0    0    0 -0.00000000000E+00 -0.00000000000E+00 -0.74505805969E-08  0.93827000000E+00  0.93827000000E+00 0.  1.
     999902    2    1    2    0    0 -0.16016318844E-01 -0.16320149499E-01 -0.73298382339E-02  0.10199175808E+01  0.10196348735E+01 0.  0.
     999903    2    3    3    0    0  0.49494109914E-02  0.11718972046E+00  0.46679976843E-01  0.12796382225E+00  0.20923487161E-01 0.  0.
         14    1    1    2    0    0  0.16016318844E-01  0.16320149499E-01  0.73298382339E-02  0.24012419235E-01  0.00000000000E+00 0.  1.
     999901    1    3    3    0    0 -0.20965729835E-01 -0.13350986996E+00 -0.54009815077E-01  0.89195375852E+00  0.88000000000E+00 0.  1.
        -11    1    4    4    0    0 -0.74527810812E-02  0.64724434550E-01  0.27845456153E-01  0.70854971054E-01  0.51100000000E-03 0. -1.
         11    1    4    4    0    0  0.12402192073E-01  0.52465285913E-01  0.18834520691E-01  0.57108851195E-01  0.51100000000E-03 0.  1.
</event>
<event>
 8    1  0.1081309E+005  0.1043930E+01  0.7957747E-01            NaN
         13   -1    0    0    0    0  0.00000000000E+00  0.00000000000E+00  0.74505805969E-08  0.10566000000E+00  0.10566000000E+00 0.  1.
     999900   -1    0    0    0    0 -0.00000000000E+00 -0.00000000000E+00 -0.74505805969E-08  0.93827000000E+00  0.93827000000E+00 0. -1.
     999902    2    1    2    0    0 -0.79677633676E-02 -0.14448523995E-01 -0.16651689036E-01  0.10204880750E+01  0.10202187939E+01 0.  0.
     999903    2    3    3    0    0 -0.32057058272E-01  0.11338419246E+00 -0.51229707669E-01  0.13025375930E+00  0.21399270530E-01 0.  0.
         14    1    1    2    0    0  0.79677633676E-02  0.14448523995E-01  0.16651689036E-01  0.23441924974E-01  0.00000000000E+00 0.  1.
     999901    1    3    3    0    0  0.24089294904E-01 -0.12783271645E+00  0.34578018633E-01  0.89023431573E+00  0.88000000000E+00 0. -1.
        -11    1    4    4    0    0 -0.27358499177E-01  0.67112750955E-01 -0.23947023050E-01  0.76330399265E-01  0.51100000000E-03 0.  1.
         11    1    4    4    0    0 -0.46985590946E-02  0.46271441503E-01 -0.27282684620E-01  0.53923360034E-01  0.51100000000E-03 0. -1.
</event>
<event>
 8    1  0.1081309E+005  0.1043930E+01  0.7957747E-01            NaN
         13   -1    0    0    0    0  0.00000000000E+00  0.00000000000E+00  0.74505805969E-08  0.10566000000E+00  0.10566000000E+00 0.  1.
     999900   -1    0    0    0    0 -0.00000000000E+00 -0.00000000000E+00 -0.74505805969E-08  0.93827000000E+00  0.93827000000E+00 0.  1.
     999902    2    1    2    0    0  0.21323449091E-01 -0.41557050487E-02 -0.98216683786E-02  0.10200883445E+01  0.10198096911E+01 0.  0.
     999903    2    3    3    0    0 -0.98348324326E-02 -0.73925093778E-01 -0.10660853113E+00  0.13149040232E+00  0.19044778113E-01 0.  0.
         14    1    1    2    0    0 -0.21323449091E-01  0.41557050487E-02  0.98216683786E-02  0.23841655465E-01  0.00000000000E+00 0.  1.
     999901    1    3    3    0    0  0.31158281523E-01  0.69769388729E-01  0.96786862750E-01  0.88859794222E+00  0.88000000000E+00 0. -1.
        -11    1    4    4    0    0  0.20213589613E-02 -0.68914630573E-02 -0.20467095778E-01  0.21696573132E-01  0.51100000000E-03 0.  1.
         11    1    4    4    0    0 -0.11856191394E-01 -0.67033630721E-01 -0.86141435351E-01  0.10979382919E+00  0.51100000000E-03 0. -1.
</event>
<event>
 8    1  0.1081309E+005  0.1043930E+01  0.7957747E-01            NaN
         13   -1    0    0    0    0  0.00000000000E+00  0.00000000000E+00  0.74505805969E-08  0.10566000000E+00  0.10566000000E+00 0. -1.
     999900   -1    0    0    0    0 -0.00000000000E+00 -0.00000000000E+00 -0.74505805969E-08  0.93827000000E+00  0.93827000000E+00 0.  1.
     999902    2    1    2    0    0 -0.13554308450E-01  0.15727493623E-01 -0.11365562065E-01  0.10202604133E+01  0.10199858144E+01 0.  0.
     999903    2    3    3    0    0  0.40301100516E-02  0.13087309357E+00  0.39007975828E-03  0.13250711645E+00  0.20346383961E-01 0.  0.
         14    1    1    2    0    0  0.13554308450E-01 -0.15727493623E-01  0.11365562065E-01  0.23669586694E-01  0.00000000000E+00 0. -1.
     999901    1    3    3    0    0 -0.17584418502E-01 -0.11514559995E+00 -0.11755641823E-01  0.88775329685E+00  0.88000000000E+00 0. -1.
        -11    1    4    4    0    0  0.10894022505E-01  0.76817075270E-01 -0.50024367958E-02  0.77748493711E-01  0.51100000000E-03 0. -1.
         11    1    4    4    0    0 -0.68639124534E-02  0.54056018300E-01  0.53925165541E-02  0.54758622740E-01  0.51100000000E-03 0.  1.
</event>
<event>
 8    1  0.1081309E+005  0.1043930E+01  0.7957747E-01            NaN
         13   -1    0    0    0    0  0.00000000000E+00  0.00000000000E+00  0.74505805969E-08  0.10566000000E+00  0.10566000000E+00 0. -1.
     999900   -1    0    0    0    0 -0.00000000000E+00 -0.00000000000E+00 -0.74505805969E-08  0.93827000000E+00  0.93827000000E+00 0.  1.
     999902    2    1    2    0    0  0.50691335485E-02 -0.14076442089E-01  0.18223733192E-01  0.10203514761E+01  0.10200790107E+01 0.  0.
     999903    2    3    3    0    0 -0.77279931149E-02 -0.11395636680E+00 -0.60845639168E-01  0.13108676218E+00  0.20875152724E-01 0.  0.
         14    1    1    2    0    0 -0.50691335485E-02  0.14076442089E-01 -0.18223733192E-01  0.23578523878E-01  0.00000000000E+00 0.  1.
     999901    1    3    3    0    0  0.12797126663E-01  0.99879924714E-01  0.79069372360E-01  0.88926471394E+00  0.88000000000E+00 0. -1.
        -11    1    4    4    0    0 -0.13553340914E-01 -0.90489235067E-01 -0.43429321467E-01  0.10128357121E+00  0.51100000000E-03 0.  1.
         11    1    4    4    0    0  0.58253477994E-02 -0.23467131736E-01 -0.17416317701E-01  0.29803190972E-01  0.51100000000E-03 0. -1.
</event>
<event>
 8    1  0.1081309E+005  0.1043930E+01  0.7957747E-01            NaN
         13   -1    0    0    0    0  0.00000000000E+00  0.00000000000E+00  0.74505805969E-08  0.10566000000E+00  0.10566000000E+00 0.  1.
     999900   -1    0    0    0    0 -0.00000000000E+00 -0.00000000000E+00 -0.74505805969E-08  0.93827000000E+00  0.93827000000E+00 0.  1.
     999902    2    1    2    0    0 -0.19578083049E-01 -0.29535447177E-02 -0.12176906408E-01  0.10206856069E+01  0.10204208966E+01 0.  0.
     999903    2    3    3    0    0  0.10510359160E+00  0.13293573791E-01  0.69179113872E-01  0.12803321602E+00  0.19577296483E-01 0.  0.
         14    1    1    2    0    0  0.19578083049E-01  0.29535447177E-02  0.12176906408E-01  0.23244393129E-01  0.00000000000E+00 0.  1.
     999901    1    3    3    0    0 -0.12468167465E+00 -0.16247118509E-01 -0.81356020280E-01  0.89265239085E+00  0.88000000000E+00 0.  1.
        -11    1    4    4    0    0  0.61692157643E-01  0.14933655701E-01  0.33257891523E-01  0.71660901870E-01  0.51100000000E-03 0.  1.
         11    1    4    4    0    0  0.43411433956E-01 -0.16400819096E-02  0.35921222349E-01  0.56372314152E-01  0.51100000000E-03 0. -1.
</event>
<event>
 8    1  0.1081309E+005  0.1043930E+01  0.7957747E-01            NaN
         13   -1    0    0    0    0  0.00000000000E+00  0.00000000000E+00  0.74505805969E-08  0.10566000000E+00  0.10566000000E+00 0.  1.
     999900   -1    0    0    0    0 -0.00000000000E+00 -0.00000000000E+00 -0.74505805969E-08  0.93827000000E+00  0.93827000000E+00 0.  1.
     999902    2    1    2    0    0 -0.71927182265E-02 -0.93930761329E-02  0.20155124748E-01  0.10205592035E+01  0.10202915729E+01 0.  0.
     999903    2    3    3    0    0 -0.86400000054E-02  0.10509024610E+00  0.75794696121E-01  0.13139988843E+00  0.20062036150E-01 0.  0.
         14    1    1    2    0    0  0.71927182265E-02  0.93930761329E-02 -0.20155124748E-01  0.23370796485E-01  0.00000000000E+00 0. -1.
     999901    1    3    3    0    0  0.14472817789E-02 -0.11448332223E+00 -0.55639571372E-01  0.88915931508E+00  0.88000000000E+00 0. -1.
        -11    1    4    4    0    0  0.34803855126E-02  0.26352714333E-01  0.27438085957E-01  0.38205867587E-01  0.51100000000E-03 0.  1.
         11    1    4    4    0    0 -0.12120385518E-01  0.78737531768E-01  0.48356610163E-01  0.93194020846E-01  0.51100000000E-03 0. -1.
</event>
<event>
 8    1  0.1081309E+005  0.1043930E+01  0.7957747E-01            NaN
         13   -1    0    0    0    0  0.00000000000E+00  0.00000000000E+00  0.74505805969E-08  0.10566000000E+00  0.10566000000E+00 0. -1.
     999900   -1    0    0    0    0 -0.00000000000E+00 -0.00000000000E+00 -0.74505805969E-08  0.93827000000E+00  0.93827000000E+00 0.  1.
     999902    2    1    2    0    0  0.19222064671E-01 -0.11707567033E-01  0.79613291993E-02  0.10200566329E+01  0.10197772289E+01 0.  0.
     999903    2    3    3    0    0 -0.59555717241E-01  0.64717500595E-01 -0.90517128984E-01  0.12778720235E+00  0.20024487679E-01 0.  0.
         14    1    1    2    0    0 -0.19222064671E-01  0.11707567033E-01 -0.79613291993E-02  0.23873367142E-01  0.00000000000E+00 0.  1.
     999901    1    3    3    0    0  0.78777781912E-01 -0.76425067628E-01  0.98478458183E-01  0.89226943050E+00  0.88000000000E+00 0. -1.
        -11    1    4    4    0    0 -0.30881734849E-01  0.46960280011E-01 -0.51779574514E-01  0.76422083875E-01  0.51100000000E-03 0. -1.
         11    1    4    4    0    0 -0.28673982392E-01  0.17757220584E-01 -0.38737554470E-01  0.51365118480E-01  0.51100000000E-03 0.  1.
</event>
<event>
 8    1  0.1081309E+005  0.1043930E+01  0.7957747E-01            NaN
         13   -1    0    0    0    0  0.00000000000E+00  0.00000000000E+00  0.74505805969E-08  0.10566000000E+00  0.10566000000E+00 0.  1.
     999900   -1    0    0    0    0 -0.00000000000E+00 -0.00000000000E+00 -0.74505805969E-08  0.93827000000E+00  0.93827000000E+00 0.  1.
     999902    2    1    2    0    0 -0.37400822947E-02  0.10064881937E-01  0.19123315520E-01  0.10219984870E+01  0.10217631410E+01 0.  0.
     999903    2    3    3    0    0  0.12972726810E+00 -0.11056780110E-02 -0.62869735048E-02  0.13150199754E+00  0.20563625852E-01 0.  0.
         14    1    1    2    0    0  0.37400822947E-02 -0.10064881937E-01 -0.19123315520E-01  0.21931512954E-01  0.00000000000E+00 0. -1.
     999901    1    3    3    0    0 -0.13346735040E+00  0.11170559948E-01  0.25410289025E-01  0.89049648950E+00  0.88000000000E+00 0. -1.
        -11    1    4    4    0    0  0.58030395382E-01 -0.87349313515E-02  0.32193136727E-02  0.58774577118E-01  0.51100000000E-03 0. -1.
         11    1    4    4    0    0  0.71696872721E-01  0.76292533405E-02 -0.95062871775E-02  0.72727420423E-01  0.51100000000E-03 0.  1.
</event>
<event>
 8    1  0.1081309E+005  0.1043930E+01  0.7957747E-01            NaN
         13   -1    0    0    0    0  0.00000000000E+00  0.00000000000E+00  0.74505805969E-08  0.10566000000E+00  0.10566000000E+00 0.  1.
     999900   -1    0    0    0    0 -0.00000000000E+00 -0.00000000000E+00 -0.74505805969E-08  0.93827000000E+00  0.93827000000E+00 0.  1.
     999902    2    1    2    0    0  0.72055366316E-02 -0.21348868747E-01 -0.33544673679E-02  0.10211496048E+01  0.10208954741E+01 0.  0.
     999903    2    3    3    0    0 -0.18581271581E-01 -0.90184273808E-01  0.93597554720E-01  0.13277864226E+00  0.19778743512E-01 0.  0.
         14    1    1    2    0    0 -0.72055366316E-02  0.21348868747E-01  0.33544673679E-02  0.22780395217E-01  0.00000000000E+00 0.  1.
     999901    1    3    3    0    0  0.25786808213E-01  0.68835405062E-01 -0.96952022088E-01  0.88837096252E+00  0.88000000000E+00 0.  1.
        -11    1    4    4    0    0 -0.89524459837E-02 -0.48683867454E-01  0.36344218810E-01  0.61411958129E-01  0.51100000000E-03 0. -1.
         11    1    4    4    0    0 -0.96288255977E-02 -0.41500406354E-01  0.57253335910E-01  0.71366684131E-01  0.51100000000E-03 0.  1.
</event>
<event>
 8    1  0.1081309E+005  0.1043930E+01  0.7957747E-01            NaN
         13   -1    0    0    0    0  0.00000000000E+00  0.00000000000E+00  0.74505805969E-08  0.10566000000E+00  0.10566000000E+00 0. -1.
     999900   -1    0    0    0    0 -0.00000000000E+00 -0.00000000000E+00 -0.74505805969E-08  0.93827000000E+00  0.93827000000E+00 0.  1.
     999902    2    1    2    0    0  0.14632841634E-02 -0.33335113805E-02 -0.23027028297E-01  0.10206169665E+01  0.10203506725E+01 0.  0.
     999903    2    3    3    0    0 -0.16881166654E-02  0.38888886445E-01 -0.12614841570E+00  0.13358445146E+00  0.20400677967E-01 0.  0.
         14    1    1    2    0    0 -0.14632841634E-02  0.33335113805E-02  0.23027028297E-01  0.23313033498E-01  0.00000000000E+00 0. -1.
     999901    1    3    3    0    0  0.31514008288E-02 -0.42222397826E-01  0.10312138740E+00  0.88703251504E+00  0.88000000000E+00 0. -1.
        -11    1    4    4    0    0 -0.66905421497E-02  0.12728921368E-01 -0.23671996768E-01  0.27702226362E-01  0.51100000000E-03 0. -1.
         11    1    4    4    0    0  0.50024254843E-02  0.26159965077E-01 -0.10247641893E+00  0.10588222510E+00  0.51100000000E-03 0.  1.
</event>
<event>
 8    1  0.1081309E+005  0.1043930E+01  0.7957747E-01            NaN
         13   -1    0    0    0    0  0.00000000000E+00  0.00000000000E+00  0.74505805969E-08  0.10566000000E+00  0.10566000000E+00 0.  1.
     999900   -1    0    0    0    0 -0.00000000000E+00 -0.00000000000E+00 -0.74505805969E-08  0.93827000000E+00  0.93827000000E+00 0.  1.
     999902    2    1    2    0    0  0.13614339614E-01 -0.27915196599E-02 -0.19877306251E-01  0.10196761317E+01  0.10193876414E+01 0.  0.
     999903    2    3    3    0    0  0.73993089308E-01 -0.81185795379E-01  0.66458640629E-01  0.12993170117E+00  0.19984629562E-01 0.  0.
         14    1    1    2    0    0 -0.13614339614E-01  0.27915196599E-02  0.19877306251E-01  0.24253868329E-01  0.00000000000E+00 0.  1.
     999901    1    3    3    0    0 -0.60378749694E-01  0.78394275719E-01 -0.86335946880E-01  0.88974443050E+00  0.88000000000E+00 0.  1.
        -11    1    4    4    0    0  0.94846716890E-02 -0.17795462235E-01  0.19364449332E-01  0.27962126030E-01  0.51100000000E-03 0.  1.
         11    1    4    4    0    0  0.64508417619E-01 -0.63390333144E-01  0.47094191297E-01  0.10196957514E+00  0.51100000000E-03 0. -1.
</event>
<event>
 8    1  0.1081309E+005  0.1043930E+01  0.7957747E-01            NaN
         13   -1    0    0    0    0  0.00000000000E+00  0.00000000000E+00  0.74505805969E-08  0.10566000000E+00  0.10566000000E+00 0. -1.
     999900   -1    0    0    0    0 -0.00000000000E+00 -0.00000000000E+00 -0.74505805969E-08  0.93827000000E+00  0.93827000000E+00 0. -1.
     999902    2    1    2    0    0  0.22111654700E-03 -0.69914133349E-02  0.22761696025E-01  0.10201177435E+01  0.10198397850E+01 0.  0.
     999903    2    3    3    0    0 -0.34958951007E-01  0.10356595969E+00  0.69889587208E-01  0.13125239488E+00  0.19864553800E-01 0.  0.
         14    1    1    2    0    0 -0.22111654700E-03  0.69914133349E-02 -0.22761696025E-01  0.23812256485E-01  0.00000000000E+00 0.  1.
     999901    1    3    3    0    0  0.35180067554E-01 -0.11055737303E+00 -0.47127891182E-01  0.88886534864E+00  0.88000000000E+00 0.  1.
        -11    1    4    4    0    0 -0.27743427524E-01  0.86256974893E-01  0.48400971738E-01  0.10272720513E+00  0.51100000000E-03 0.  1.
         11    1    4    4    0    0 -0.72155234827E-02  0.17308984801E-01  0.21488615470E-01  0.28525189742E-01  0.51100000000E-03 0. -1.
</event>
<event>
 8    1  0.1081309E+005  0.1043930E+01  0.7957747E-01            NaN
         13   -1    0    0    0    0  0.00000000000E+00  0.00000000000E+00  0.74505805969E-08  0.10566000000E+00  0.10566000000E+00 0. -1.
     999900   -1    0    0    0    0 -0.00000000000E+00 -0.00000000000E+00 -0.74505805969E-08  0.93827000000E+00  0.93827000000E+00 0.  1.
     999902    2    1    2    0    0  0.16527338200E-01 -0.13602201683E-01  0.10625057906E-01  0.10200330409E+01  0.10197530779E+01 0.  0.
     999903    2    3    3    0    0 -0.64916669911E-01 -0.48727054921E-01 -0.98130890655E-01  0.12891310615E+00  0.20010430333E-01 0.  0.
         14    1    1    2    0    0 -0.16527338200E-01  0.13602201683E-01 -0.10625057906E-01  0.23896959098E-01  0.00000000000E+00 0.  1.
     999901    1    3    3    0    0  0.81444008111E-01  0.35124853237E-01  0.10875594856E+00  0.89111993476E+00  0.88000000000E+00 0. -1.
        -11    1    4    4    0    0 -0.56535450780E-01 -0.32955201249E-01 -0.81305710154E-01  0.10437040820E+00  0.51100000000E-03 0.  1.
         11    1    4    4    0    0 -0.83812191310E-02 -0.15771853672E-01 -0.16825180501E-01  0.24542697942E-01  0.51100000000E-03 0. -1.
</event>
<event>
 8    1  0.1081309E+005  0.1043930E+01  0.7957747E-01            NaN
         13   -1    0    0    0    0  0.00000000000E+00  0.00000000000E+00  0.74505805969E-08  0.10566000000E+00  0.10566000000E+00 0.  1.
     999900   -1    0    0    0    0 -0.00000000000E+00 -0.00000000000E+00 -0.74505805969E-08  0.93827000000E+00  0.93827000000E+00 0.  1.
     999902    2    1    2    0    0  0.21261510572E-02 -0.16392946956E-01  0.15326525092E-01  0.10213877818E+01  0.10211389961E+01 0.  0.
     999903    2    3    3    0    0 -0.43421488634E-01 -0.78590384265E-01 -0.93592585419E-01  0.13132796288E+00  0.20629774961E-01 0.  0.
         14    1    1    2    0    0 -0.21261510572E-02  0.16392946956E-01 -0.15326525092E-01  0.22542218161E-01  0.00000000000E+00 0.  1.
     999901    1    3    3    0    0  0.45547639691E-01  0.62197437309E-01  0.10891911051E+00  0.89005981896E+00  0.88000000000E+00 0. -1.
        -11    1    4    4    0    0 -0.45432628380E-01 -0.71290264653E-01 -0.85915434376E-01  0.12053276957E+00  0.51100000000E-03 0. -1.
         11    1    4    4    0    0  0.20111397461E-02 -0.73001196122E-02 -0.76771510427E-02  0.10795193308E-01  0.51100000000E-03 0.  1.
</event>
<event>
 8    1  0.1081309E+005  0.1043930E+01  0.7957747E-01            NaN
         13   -1    0    0    0    0  0.00000000000E+00  0.00000000000E+00  0.74505805969E-08  0.10566000000E+00  0.10566000000E+00 0.  1.
     999900   -1    0    0    0    0 -0.00000000000E+00 -0.00000000000E+00 -0.74505805969E-08  0.93827000000E+00  0.93827000000E+00 0.  1.
     999902    2    1    2    0    0  0.22767319505E-01  0.53914846513E-02  0.43272852931E-02  0.10201362121E+01  0.10198586897E+01 0.  0.
     999903    2    3    3    0    0  0.43447830721E-02  0.30749700552E-02 -0.12832011350E+00  0.13000134115E+00  0.20148562991E-01 0.  0.
         14    1    1    2    0    0 -0.22767319505E-01 -0.53914846513E-02 -0.43272852931E-02  0.23793787891E-01  0.00000000000E+00 0. -1.
     999901    1    3    3    0    0  0.18422536433E-01  0.23165145961E-02  0.13264739880E+00  0.89013487096E+00  0.88000000000E+00 0. -1.
        -11    1    4    4    0    0  0.10227106959E-01 -0.32756864708E-02 -0.46683019257E-01  0.47905002313E-01  0.51100000000E-03 0. -1.
         11    1    4    4    0    0 -0.58823238867E-02  0.63506565260E-02 -0.81637094247E-01  0.82096338838E-01  0.51100000000E-03 0.  1.
</event>
<event>
 8    1  0.1081309E+005  0.1043930E+01  0.7957747E-01            NaN
         13   -1    0    0    0    0  0.00000000000E+00  0.00000000000E+00  0.74505805969E-08  0.10566000000E+00  0.10566000000E+00 0.  1.
     999900   -1    0    0    0    0 -0.00000000000E+00 -0.00000000000E+00 -0.74505805969E-08  0.93827000000E+00  0.93827000000E+00 0.  1.
     999902    2    1    2    0    0  0.15805187454E-01  0.99528921265E-03 -0.17227160975E-01  0.10205297943E+01  0.10202614819E+01 0.  0.
     999903    2    3    3    0    0  0.10362094106E+00  0.79422818340E-01  0.35044654436E-02  0.13244630486E+00  0.22010426895E-01 0.  0.
         14    1    1    2    0    0 -0.15805187454E-01 -0.99528921265E-03  0.17227160975E-01  0.23400205690E-01  0.00000000000E+00 0.  1.
     999901    1    3    3    0    0 -0.87815753609E-01 -0.78427529128E-01 -0.20731626418E-01  0.88808348945E+00  0.88000000000E+00 0.  1.
        -11    1    4    4    0    0  0.24897346473E-01  0.14182894216E-01  0.90455721982E-02  0.30051885916E-01  0.51100000000E-03 0. -1.
         11    1    4    4    0    0  0.78723594590E-01  0.65239924125E-01 -0.55411067546E-02  0.10239441894E+00  0.51100000000E-03 0.  1.
</event>
<event>
 8    1  0.1081309E+005  0.1043930E+01  0.7957747E-01            NaN
         13   -1    0    0    0    0  0.00000000000E+00  0.00000000000E+00  0.74505805969E-08  0.10566000000E+00  0.10566000000E+00 0.  1.
     999900   -1    0    0    0    0 -0.00000000000E+00 -0.00000000000E+00 -0.74505805969E-08  0.93827000000E+00  0.93827000000E+00 0. -1.
     999902    2    1    2    0    0  0.38560149348E-03 -0.23727954430E-01  0.27501842914E-02  0.10200400853E+01  0.10197602893E+01 0.  0.
     999903    2    3    3    0    0 -0.33847174938E-01 -0.66053496428E-01  0.10759715700E+00  0.13214582237E+00  0.19408104875E-01 0.  0.
         14    1    1    2    0    0 -0.38560149348E-03  0.23727954430E-01 -0.27501842914E-02  0.23889914683E-01  0.00000000000E+00 0.  1.
     999901    1    3    3    0    0  0.34232776431E-01  0.42325541998E-01 -0.10484697270E+00  0.88789426295E+00  0.88000000000E+00 0.  1.
        -11    1    4    4    0    0 -0.29417454444E-01 -0.36932990750E-01  0.68232410110E-01  0.82978041325E-01  0.51100000000E-03 0.  1.
         11    1    4    4    0    0 -0.44297204939E-02 -0.29120505678E-01  0.39364746885E-01  0.49167781045E-01  0.51100000000E-03 0. -1.
</event>
<event>
 8    1  0.1081309E+005  0.1043930E+01  0.7957747E-01            NaN
         13   -1    0    0    0    0  0.00000000000E+00  0.00000000000E+00  0.74505805969E-08  0.10566000000E+00  0.10566000000E+00 0. -1.
     999900   -1    0    0    0    0 -0.00000000000E+00 -0.00000000000E+00 -0.74505805969E-08  0.93827000000E+00  0.93827000000E+00 0.  1.
     999902    2    1    2    0    0  0.17667285851E-01  0.15791342636E-01  0.27395525289E-02  0.10200761819E+01  0.10197972407E+01 0.  0.
     999903    2    3    3    0    0  0.38214931825E-01 -0.10558932846E+00 -0.60366755548E-01  0.12926875083E+00  0.21372352858E-01 0.  0.
         14    1    1    2    0    0 -0.17667285851E-01 -0.15791342636E-01 -0.27395525289E-02  0.23853818136E-01  0.00000000000E+00 0. -1.
     999901    1    3    3    0    0 -0.20547645974E-01  0.12138067109E+00  0.63106308077E-01  0.89080743104E+00  0.88000000000E+00 0. -1.
        -11    1    4    4    0    0  0.84012685540E-02 -0.26187820197E-01 -0.25689973436E-01  0.37638000692E-01  0.51100000000E-03 0. -1.
         11    1    4    4    0    0  0.29813663271E-01 -0.79401508261E-01 -0.34676782112E-01  0.91630750136E-01  0.51100000000E-03 0.  1.
</event>
<event>
 8    1  0.1081309E+005  0.1043930E+01  0.7957747E-01            NaN
         13   -1    0    0    0    0  0.00000000000E+00  0.00000000000E+00  0.74505805969E-08  0.10566000000E+00  0.10566000000E+00 0.  1.
     999900   -1    0    0    0    0 -0.00000000000E+00 -0.00000000000E+00 -0.74505805969E-08  0.93827000000E+00  0.93827000000E+00 0. -1.
     999902    2    1    2    0    0  0.95106164363E-02  0.21916687813E-01  0.19510517945E-02  0.10199591921E+01  0.10196774754E+01 0.  0.
     999903    2    3    3    0    0  0.57885099156E-01  0.10251665036E+00  0.58953214507E-01  0.13311890707E+00  0.19616666749E-01 0.  0.
         14    1    1    2    0    0 -0.95106164363E-02 -0.21916687813E-01 -0.19510517945E-02  0.23970807929E-01  0.00000000000E+00 0.  1.
     999901    1    3    3    0    0 -0.48374482720E-01 -0.80599962547E-01 -0.57002162712E-01  0.88684028500E+00  0.88000000000E+00 0. -1.
        -11    1    4    4    0    0  0.57357188096E-01  0.10142449500E+00  0.54802936666E-01  0.12876489506E+00  0.51100000000E-03 0. -1.
         11    1    4    4    0    0  0.52791105982E-03  0.10921553571E-02  0.41502778407E-02  0.43540120081E-02  0.51100000000E-03 0.  1.
</event>
<event>
 8    1  0.1081309E+005  0.1043930E+01  0.7957747E-01            NaN
         13   -1    0    0    0    0  0.00000000000E+00  0.00000000000E+00  0.74505805969E-08  0.10566000000E+00  0.10566000000E+00 0. -1.
     999900   -1    0    0    0    0 -0.00000000000E+00 -0.00000000000E+00 -0.74505805969E-08  0.93827000000E+00  0.93827000000E+00 0. -1.
     999902    2    1    2    0    0  0.92874176257E-02 -0.21615340308E-01  0.23102665315E-02  0.10202907023E+01  0.10200168140E+01 0.  0.
     999903    2    3    3    0    0 -0.78853948299E-01 -0.12751450375E-01  0.10081659221E+00  0.13037443373E+00  0.21282928751E-01 0.  0.
         14    1    1    2    0    0 -0.92874176257E-02  0.21615340308E-01 -0.23102665315E-02  0.23639297668E-01  0.00000000000E+00 0.  1.
     999901    1    3    3    0    0  0.88141365925E-01 -0.88638899336E-02 -0.98506325675E-01  0.88991626861E+00  0.88000000000E+00 0. -1.
        -11    1    4    4    0    0 -0.49373082056E-01 -0.11567674789E-01  0.78161216612E-01  0.93171611744E-01  0.51100000000E-03 0.  1.
         11    1    4    4    0    0 -0.29480866243E-01 -0.11837755855E-02  0.22655375594E-01  0.37202821982E-01  0.51100000000E-03 0. -1.
</event>
<event>
 8    1  0.1081309E+005  0.1043930E+01  0.7957747E-01            NaN
         13   -1    0    0    0    0  0.00000000000E+00  0.00000000000E+00  0.74505805969E-08  0.10566000000E+00  0.10566000000E+00 0. -1.
     999900   -1    0    0    0    0 -0.00000000000E+00 -0.00000000000E+00 -0.74505805969E-08  0.93827000000E+00  0.93827000000E+00 0. -1.
     999902    2    1    2    0    0  0.65087291133E-02 -0.17085333625E-01  0.15162623992E-01  0.10201775823E+01  0.10199010354E+01 0.  0.
     999903    2    3    3    0    0  0.40708366014E-01 -0.12434523876E+00 -0.88079214019E-02  0.13268172910E+00  0.20197828907E-01 0.  0.
         14    1    1    2    0    0 -0.65087291133E-02  0.17085333625E-01 -0.15162623992E-01  0.23752417690E-01  0.00000000000E+00 0.  1.
     999901    1    3    3    0    0 -0.34199636901E-01  0.10725990513E+00  0.23970545394E-01  0.88749585321E+00  0.88000000000E+00 0.  1.
        -11    1    4    4    0    0  0.12303706359E-01 -0.44932910627E-01 -0.12573796442E-01  0.48256700317E-01  0.51100000000E-03 0. -1.
         11    1    4    4    0    0  0.28404659656E-01 -0.79412328133E-01  0.37658750397E-02  0.84425028786E-01  0.51100000000E-03 0.  1.
</event>
<event>
 8    1  0.1081309E+005  0.1043930E+01  0.7957747E-01            NaN
         13   -1    0    0    0    0  0.00000000000E+00  0.00000000000E+00  0.74505805969E-08  0.10566000000E+00  0.10566000000E+00 0. -1.
     999900   -1    0    0    0    0 -0.00000000000E+00 -0.00000000000E+00 -0.74505805969E-08  0.93827000000E+00  0.93827000000E+00 0.  1.
     999902    2    1    2    0    0  0.43607660896E-02 -0.27348872033E-01  0.19505309470E-01  0.10100562022E+01  0.10094880372E+01 0.  0.
     999903    2    3    3    0    0  0.88287908777E-01  0.48391220381E-01 -0.60621674871E-01  0.11921353340E+00  0.20010348178E-01 0.  0.
         14    1    1    2    0    0 -0.43607660896E-02  0.27348872033E-01 -0.19505309470E-01  0.33873797836E-01  0.00000000000E+00 0.  1.
     999901    1    3    3    0    0 -0.83927142688E-01 -0.75740092414E-01  0.80126984340E-01  0.89084266877E+00  0.88000000000E+00 0. -1.
        -11    1    4    4    0    0  0.19478317533E-01  0.20409906546E-01 -0.13862149641E-01  0.31438661753E-01  0.51100000000E-03 0. -1.
         11    1    4    4    0    0  0.68809591245E-01  0.27981313835E-01 -0.46759525229E-01  0.87774871643E-01  0.51100000000E-03 0.  1.
</event>
<event>
 8    1  0.1081309E+005  0.1043930E+01  0.7957747E-01            NaN
         13   -1    0    0    0    0  0.00000000000E+00  0.00000000000E+00  0.74505805969E-08  0.10566000000E+00  0.10566000000E+00 0.  1.
     999900   -1    0    0    0    0 -0.00000000000E+00 -0.00000000000E+00 -0.74505805969E-08  0.93827000000E+00  0.93827000000E+00 0.  1.
     999902    2    1    2    0    0  0.14793012575E-01 -0.16115766221E-01 -0.85246969840E-02  0.10204518910E+01  0.10201817683E+01 0.  0.
     999903    2    3    3    0    0  0.81676827355E-01 -0.10375692124E+00 -0.25603579407E-02  0.13355280429E+00  0.19829101537E-01 0.  0.
         14    1    1    2    0    0 -0.14793012575E-01  0.16115766221E-01  0.85246969840E-02  0.23478108965E-01  0.00000000000E+00 0.  1.
     999901    1    3    3    0    0 -0.66883814780E-01  0.87641155022E-01 -0.59643390432E-02  0.88689908675E+00  0.88000000000E+00 0.  1.
        -11    1    4    4    0    0  0.27141160478E-01 -0.29816913542E-01 -0.94547741154E-02  0.41416721259E-01  0.51100000000E-03 0.  1.
         11    1    4    4    0    0  0.54535666877E-01 -0.73940007700E-01  0.68944161747E-02  0.92136083028E-01  0.51100000000E-03 0. -1.
</event>
<event>
 7    1  0.1081309E+005  0.1043930E+01  0.7957747E-01            NaN
         13   -1    0    0    0    0  0.00000000000E+00  0.00000000000E+00  0.74505805969E-08  0.10566000000E+00  0.10566000000E+00 0.  1.
     999900   -1    0    0    0    0 -0.00000000000E+00 -0.00000000000E+00 -0.74505805969E-08  0.93827000000E+00  0.93827000000E+00 0. -1.
     999903    2    1    2    0    0 -0.10594973379E+00  0.20849907888E-01  0.10342996280E-01  0.11037764198E+00  0.20400527681E-01 0.  0.
         14    1    1    2    0    0  0.56050519245E-02 -0.46140013830E-01  0.86889989811E-02  0.47284418010E-01  0.00000000000E+00 0.  1.
     999901    1    1    2    0    0  0.10034468186E+00  0.25290105942E-01 -0.19031995261E-01  0.88626794000E+00  0.88000000000E+00 0. -1.
        -11    1    3    3    0    0 -0.25938267825E-01  0.99062697550E-03  0.10316503650E-01  0.27936829601E-01  0.51100000000E-03 0.  1.
         11    1    3    3    0    0 -0.80011465962E-01  0.19859280912E-01  0.26492629862E-04  0.82440812384E-01  0.51100000000E-03 0. -1.
</event>
<event>
 8    1  0.1081309E+005  0.1043930E+01  0.7957747E-01            NaN
         13   -1    0    0    0    0  0.00000000000E+00  0.00000000000E+00  0.74505805969E-08  0.10566000000E+00  0.10566000000E+00 0.  1.
     999900   -1    0    0    0    0 -0.00000000000E+00 -0.00000000000E+00 -0.74505805969E-08  0.93827000000E+00  0.93827000000E+00 0. -1.
     999902    2    1    2    0    0 -0.78710530651E-02  0.15683598094E-01  0.15772569687E-01  0.10203354523E+01  0.10200626121E+01 0.  0.
     999903    2    3    3    0    0  0.60245088019E-01  0.41064420402E-01 -0.10487377678E+00  0.12913427653E+00  0.19010393614E-01 0.  0.
         14    1    1    2    0    0  0.78710530651E-02 -0.15683598094E-01 -0.15772569687E-01  0.23594547677E-01  0.00000000000E+00 0. -1.
     999901    1    3    3    0    0 -0.68116141084E-01 -0.25380822308E-01  0.12064634647E+00  0.89120117579E+00  0.88000000000E+00 0.  1.
        -11    1    4    4    0    0  0.40877053701E-01  0.19199721084E-01 -0.53308761435E-01  0.69868791143E-01  0.51100000000E-03 0. -1.
         11    1    4    4    0    0  0.19368034317E-01  0.21864699319E-01 -0.51565015347E-01  0.59265485388E-01  0.51100000000E-03 0.  1.
</event>
<event>
 8    1  0.1081309E+005  0.1043930E+01  0.7957747E-01            NaN
         13   -1    0    0    0    0  0.00000000000E+00  0.00000000000E+00  0.74505805969E-08  0.10566000000E+00  0.10566000000E+00 0.  1.
     999900   -1    0    0    0    0 -0.00000000000E+00 -0.00000000000E+00 -0.74505805969E-08  0.93827000000E+00  0.93827000000E+00 0. -1.
     999902    2    1    2    0    0  0.19561535040E-01  0.11427581119E-01  0.69121036019E-02  0.10202441300E+01  0.10199691487E+01 0.  0.
     999903    2    3    3    0    0 -0.37514361714E-01 -0.23641225007E-01  0.12073609967E+00  0.13038830948E+00  0.21393238001E-01 0.  0.
         14    1    1    2    0    0 -0.19561535040E-01 -0.11427581119E-01 -0.69121036019E-02  0.23685870040E-01  0.00000000000E+00 0. -1.
     999901    1    3    3    0    0  0.57075896754E-01  0.35068806127E-01 -0.11382399607E+00  0.88985582048E+00  0.88000000000E+00 0. -1.
        -11    1    4    4    0    0 -0.31306526033E-01 -0.15051129507E-01  0.65504591636E-01  0.74146798435E-01  0.51100000000E-03 0. -1.
         11    1    4    4    0    0 -0.62078356815E-02 -0.85900955004E-02  0.55231508033E-01  0.56241511050E-01  0.51100000000E-03 0.  1.
</event>
<event>
 8    1  0.1081309E+005  0.1043930E+01  0.7957747E-01            NaN
         13   -1    0    0    0    0  0.00000000000E+00  0.00000000000E+00  0.74505805969E-08  0.10566000000E+00  0.10566000000E+00 0. -1.
     999900   -1    0    0    0    0 -0.00000000000E+00 -0.00000000000E+00 -0.74505805969E-08  0.93827000000E+00  0.93827000000E+00 0. -1.
     999902    2    1    2    0    0  0.99730896969E-02  0.17148283056E-01 -0.14107282351E-01  0.10195878237E+01  0.10192972034E+01 0.  0.
     999903    2    3    3    0    0  0.74280579641E-01 -0.58337413048E-01  0.84842351436E-01  0.12850725858E+00  0.19875427973E-01 0.  0.
         14    1    1    2    0    0 -0.99730896969E-02 -0.17148283056E-01  0.14107282351E-01  0.24342176262E-01  0.00000000000E+00 0. -1.
     999901    1    3    3    0    0 -0.64307489944E-01  0.75485696104E-01 -0.98949633786E-01  0.89108056516E+00  0.88000000000E+00 0.  1.
        -11    1    4    4    0    0  0.39727535253E-01 -0.42330948818E-01  0.45595812578E-01  0.73820224402E-01  0.51100000000E-03 0. -1.
         11    1    4    4    0    0  0.34553044388E-01 -0.16006464230E-01  0.39246538858E-01  0.54687034176E-01  0.51100000000E-03 0.  1.
</event>
<event>
 8    1  0.1081309E+005  0.1043930E+01  0.7957747E-01            NaN
         13   -1    0    0    0    0  0.00000000000E+00  0.00000000000E+00  0.74505805969E-08  0.10566000000E+00  0.10566000000E+00 0. -1.
     999900   -1    0    0    0    0 -0.00000000000E+00 -0.00000000000E+00 -0.74505805969E-08  0.93827000000E+00  0.93827000000E+00 0.  1.
     999902    2    1    2    0    0  0.18199680035E-01 -0.92427071268E-02  0.11008462573E-01  0.10207385741E+01  0.10204750827E+01 0.  0.
     999903    2    3    3    0    0  0.11332743879E+00 -0.65982216858E-01  0.18527038307E-01  0.13376326921E+00  0.18777638742E-01 0.  0.
         14    1    1    2    0    0 -0.18199680035E-01  0.92427071268E-02 -0.11008462573E-01  0.23191425929E-01  0.00000000000E+00 0.  1.
     999901    1    3    3    0    0 -0.95127758758E-01  0.56739509731E-01 -0.75185757346E-02  0.88697530486E+00  0.88000000000E+00 0.  1.
        -11    1    4    4    0    0  0.45955908169E-01 -0.35666395102E-01  0.13449150925E-01  0.59709111673E-01  0.51100000000E-03 0.  1.
         11    1    4    4    0    0  0.67371530624E-01 -0.30315821756E-01  0.50778873827E-02  0.74054157538E-01  0.51100000000E-03 0. -1.
</event>
<event>
 8    1  0.1081309E+005  0.1043930E+01  0.7957747E-01            NaN
         13   -1    0    0    0    0  0.00000000000E+00  0.00000000000E+00  0.74505805969E-08  0.10566000000E+00  0.10566000000E+00 0.  1.
     999900   -1    0    0    0    0 -0.00000000000E+00 -0.00000000000E+00 -0.74505805969E-08  0.93827000000E+00  0.93827000000E+00 0.  1.
     999902    2    1    2    0    0 -0.11819621935E-01  0.13136931876E-01 -0.16306548723E-01  0.10198845020E+01  0.10196010060E+01 0.  0.
     999903    2    3    3    0    0  0.50836591742E-01 -0.34427025236E-01 -0.11406066033E+00  0.13098405908E+00  0.19427052564E-01 0.  0.
         14    1    1    2    0    0  0.11819621935E-01 -0.13136931876E-01  0.16306548723E-01  0.24045497979E-01  0.00000000000E+00 0.  1.
     999901    1    3    3    0    0 -0.62656213677E-01  0.47563957112E-01  0.97754111605E-01  0.88890044294E+00  0.88000000000E+00 0. -1.
        -11    1    4    4    0    0  0.40686922813E-01 -0.31690758411E-01 -0.78729329508E-01  0.94118533257E-01  0.51100000000E-03 0.  1.
         11    1    4    4    0    0  0.10149668930E-01 -0.27362668253E-02 -0.35331330820E-01  0.36865525821E-01  0.51100000000E-03 0. -1.
</event>
<event>
 8    1  0.1081309E+005  0.1043930E+01  0.7957747E-01            NaN
         13   -1    0    0    0    0  0.00000000000E+00  0.00000000000E+00  0.74505805969E-08  0.10566000000E+00  0.10566000000E+00 0.  1.
     999900   -1    0    0    0    0 -0.00000000000E+00 -0.00000000000E+00 -0.74505805969E-08  0.93827000000E+00  0.93827000000E+00 0.  1.
     999902    2    1    2    0    0 -0.72437997782E-02 -0.19236491171E-01 -0.12249134916E-01  0.10200018464E+01  0.10197211433E+01 0.  0.
     999903    2    3    3    0    0  0.10186455782E+00 -0.56116376888E-01  0.54362047260E-01  0.13000082998E+00  0.20482863999E-01 0.  0.
         14    1    1    2    0    0  0.72437997782E-02  0.19236491171E-01  0.12249134916E-01  0.23928153585E-01  0.00000000000E+00 0.  1.
     999901    1    3    3    0    0 -0.10910835760E+00  0.36879885717E-01 -0.66611182176E-01  0.89000101644E+00  0.88000000000E+00 0. -1.
        -11    1    4    4    0    0  0.67576568206E-01 -0.33863380952E-01  0.24800642439E-01  0.79552838582E-01  0.51100000000E-03 0. -1.
         11    1    4    4    0    0  0.34287989615E-01 -0.22252995936E-01  0.29561404821E-01  0.50447991396E-01  0.51100000000E-03 0.  1.
</event>
<event>
 8    1  0.1081309E+005  0.1043930E+01  0.7957747E-01            NaN
         13   -1    0    0    0    0  0.00000000000E+00  0.00000000000E+00  0.74505805969E-08  0.10566000000E+00  0.10566000000E+00 0.  1.
     999900   -1    0    0    0    0 -0.00000000000E+00 -0.00000000000E+00 -0.74505805969E-08  0.93827000000E+00  0.93827000000E+00 0. -1.
     999902    2    1    2    0    0  0.66101311079E-02  0.15350128020E-01  0.14204389002E-01  0.10219963516E+01  0.10217609592E+01 0.  0.
     999903    2    3    3    0    0 -0.10509819127E+00  0.10978838090E-01  0.77544908023E-01  0.13266521038E+00  0.20510499531E-01 0.  0.
         14    1    1    2    0    0 -0.66101311079E-02 -0.15350128020E-01 -0.14204389002E-01  0.21933648361E-01  0.00000000000E+00 0. -1.
     999901    1    3    3    0    0  0.11170832238E+00  0.43712899300E-02 -0.63340519021E-01  0.88933114126E+00  0.88000000000E+00 0. -1.
        -11    1    4    4    0    0 -0.78625548050E-01  0.12227492279E-01  0.47810028420E-01  0.92830750897E-01  0.51100000000E-03 0. -1.
         11    1    4    4    0    0 -0.26472643219E-01 -0.12486541887E-02  0.29734879603E-01  0.39834459483E-01  0.51100000000E-03 0.  1.
</event>
<event>
 8    1  0.1081309E+005  0.1043930E+01  0.7957747E-01            NaN
         13   -1    0    0    0    0  0.00000000000E+00  0.00000000000E+00  0.74505805969E-08  0.10566000000E+00  0.10566000000E+00 0.  1.
     999900   -1    0    0    0    0 -0.00000000000E+00 -0.00000000000E+00 -0.74505805969E-08  0.93827000000E+00  0.93827000000E+00 0. -1.
     999902    2    1    2    0    0  0.18627669493E-01 -0.72837016562E-02 -0.12571843885E-01  0.10203059944E+01  0.10200324645E+01 0.  0.
     999903    2    3    3    0    0 -0.30624642317E-01  0.61724023995E-01 -0.10952084908E+00  0.13093151423E+00  0.20013025265E-01 0.  0.
         14    1    1    2    0    0 -0.18627669493E-01  0.72837016562E-02  0.12571843885E-01  0.23624005571E-01  0.00000000000E+00 0.  1.
     999901    1    3    3    0    0  0.49252311810E-01 -0.69007725651E-01  0.96949005196E-01  0.88937448020E+00  0.88000000000E+00 0.  1.
        -11    1    4    4    0    0 -0.15291264376E-01  0.11502716590E-01 -0.26308019210E-01  0.32534723772E-01  0.51100000000E-03 0.  1.
         11    1    4    4    0    0 -0.15333377941E-01  0.50221307404E-01 -0.83212829871E-01  0.98396790459E-01  0.51100000000E-03 0. -1.
</event>
<event>
 8    1  0.1081309E+005  0.1043930E+01  0.7957747E-01            NaN
         13   -1    0    0    0    0  0.00000000000E+00  0.00000000000E+00  0.74505805969E-08  0.10566000000E+00  0.10566000000E+00 0. -1.
     999900   -1    0    0    0    0 -0.00000000000E+00 -0.00000000000E+00 -0.74505805969E-08  0.93827000000E+00  0.93827000000E+00 0.  1.
     999902    2    1    2    0    0 -0.66199815060E-02  0.16853933145E-01  0.14367313008E-01  0.10208150935E+01  0.10205533579E+01 0.  0.
     999903    2    3    3    0    0  0.32133345415E-01 -0.54095226726E-01 -0.11000443070E+00  0.12840042856E+00  0.20660344603E-01 0.  0.
         14    1    1    2    0    0  0.66199815060E-02 -0.16853933145E-01 -0.14367313008E-01  0.23114906460E-01  0.00000000000E+00 0.  1.
     999901    1    3    3    0    0 -0.38753326921E-01  0.70949159871E-01  0.12437174371E+00  0.89241466498E+00  0.88000000000E+00 0. -1.
        -11    1    4    4    0    0  0.31426779713E-01 -0.42675235962E-01 -0.77103400388E-01  0.93562886445E-01  0.51100000000E-03 0. -1.
         11    1    4    4    0    0  0.70656570236E-03 -0.11419990765E-01 -0.32901030313E-01  0.34837542118E-01  0.51100000000E-03 0.  1.
</event>
<event>
 8    1  0.1081309E+005  0.1043930E+01  0.7957747E-01            NaN
         13   -1    0    0    0    0  0.00000000000E+00  0.00000000000E+00  0.74505805969E-08  0.10566000000E+00  0.10566000000E+00 0. -1.
     999900   -1    0    0    0    0 -0.00000000000E+00 -0.00000000000E+00 -0.74505805969E-08  0.93827000000E+00  0.93827000000E+00 0.  1.
     999902    2    1    2    0    0 -0.32403961214E-02  0.35663788910E-02 -0.23030712461E-01  0.10204005941E+01  0.10201292759E+01 0.  0.
     999903    2    3    3    0    0  0.12293320167E+00 -0.15729786426E-01  0.31663930951E-01  0.12951136261E+00  0.20263027137E-01 0.  0.
         14    1    1    2    0    0  0.32403961214E-02 -0.35663788910E-02  0.23030712461E-01  0.23529405897E-01  0.00000000000E+00 0. -1.
     999901    1    3    3    0    0 -0.12617359779E+00  0.19296165317E-01 -0.54694643412E-01  0.89088923149E+00  0.88000000000E+00 0.  1.
        -11    1    4    4    0    0  0.80476247548E-01 -0.18204522620E-01  0.26525361917E-01  0.86669989091E-01  0.51100000000E-03 0.  1.
         11    1    4    4    0    0  0.42456954117E-01  0.24747361938E-02  0.51385690347E-02  0.42841373517E-01  0.51100000000E-03 0. -1.
</event>
<event>
 8    1  0.1081309E+005  0.1043930E+01  0.7957747E-01            NaN
         13   -1    0    0    0    0  0.00000000000E+00  0.00000000000E+00  0.74505805969E-08  0.10566000000E+00  0.10566000000E+00 0. -1.
     999900   -1    0    0    0    0 -0.00000000000E+00 -0.00000000000E+00 -0.74505805969E-08  0.93827000000E+00  0.93827000000E+00 0. -1.
     999902    2    1    2    0    0 -0.12357056070E-01  0.13574585771E-01 -0.17125631840E-01  0.10188251503E+01  0.10185157993E+01 0.  0.
     999903    2    3    3    0    0 -0.34150338878E-01  0.38345939450E-01 -0.12016662441E+00  0.13219895323E+00  0.19997222200E-01 0.  0.
         14    1    1    2    0    0  0.12357056070E-01 -0.13574585771E-01  0.17125631840E-01  0.25104849720E-01  0.00000000000E+00 0. -1.
     999901    1    3    3    0    0  0.21793282808E-01 -0.24771353679E-01  0.10304099257E+00  0.88662619705E+00  0.88000000000E+00 0.  1.
        -11    1    4    4    0    0 -0.16776294947E-01  0.15396136800E-01 -0.77117546302E-01  0.80410584932E-01  0.51100000000E-03 0. -1.
         11    1    4    4    0    0 -0.17374043931E-01  0.22949802650E-01 -0.43049078110E-01  0.51788368301E-01  0.51100000000E-03 0.  1.
</event>
<event>
 8    1  0.1081309E+005  0.1043930E+01  0.7957747E-01            NaN
         13   -1    0    0    0    0  0.00000000000E+00  0.00000000000E+00  0.74505805969E-08  0.10566000000E+00  0.10566000000E+00 0. -1.
     999900   -1    0    0    0    0 -0.00000000000E+00 -0.00000000000E+00 -0.74505805969E-08  0.93827000000E+00  0.93827000000E+00 0.  1.
     999902    2    1    2    0    0 -0.80848475689E-02  0.59625944147E-02  0.20436757432E-01  0.10211576846E+01  0.10209037362E+01 0.  0.
     999903    2    3    3    0    0  0.15149040416E-02 -0.12900968102E+00  0.44595627119E-03  0.13059084128E+00  0.20198421164E-01 0.  0.
         14    1    1    2    0    0  0.80848475689E-02 -0.59625944147E-02 -0.20436757432E-01  0.22772315356E-01  0.00000000000E+00 0.  1.
     999901    1    3    3    0    0 -0.95997516105E-02  0.13497227544E+00  0.19990801161E-01  0.89056684336E+00  0.88000000000E+00 0.  1.
        -11    1    4    4    0    0 -0.70431009507E-02 -0.94626414472E-01  0.40228859389E-02  0.94974777278E-01  0.51100000000E-03 0.  1.
         11    1    4    4    0    0  0.85580049923E-02 -0.34383266550E-01 -0.35769296677E-02  0.35616064002E-01  0.51100000000E-03 0. -1.
</event>
<event>
 8    1  0.1081309E+005  0.1043930E+01  0.7957747E-01            NaN
         13   -1    0    0    0    0  0.00000000000E+00  0.00000000000E+00  0.74505805969E-08  0.10566000000E+00  0.10566000000E+00 0.  1.
     999900   -1    0    0    0    0 -0.00000000000E+00 -0.00000000000E+00 -0.74505805969E-08  0.93827000000E+00  0.93827000000E+00 0.  1.
     999902    2    1    2    0    0 -0.10250642590E-01  0.75449130217E-02 -0.19044923203E-01  0.10210234401E+01  0.10207664546E+01 0.  0.
     999903    2    3    3    0    0 -0.12357274765E+00 -0.11491195622E-01 -0.44710379570E-01  0.13318168137E+00  0.18332230434E-01 0.  0.
         14    1    1    2    0    0  0.10250642590E-01 -0.75449130217E-02  0.19044923203E-01  0.22906559886E-01  0.00000000000E+00 0. -1.
     999901    1    3    3    0    0  0.11332210506E+00  0.19036108644E-01  0.25665456366E-01  0.88784175875E+00  0.88000000000E+00 0.  1.
        -11    1    4    4    0    0 -0.51181750504E-01  0.42327412417E-02 -0.17372430195E-01  0.54217618308E-01  0.51100000000E-03 0. -1.
         11    1    4    4    0    0 -0.72390997141E-01 -0.15723936864E-01 -0.27337949375E-01  0.78964063058E-01  0.51100000000E-03 0.  1.
</event>
<event>
 8    1  0.1081309E+005  0.1043930E+01  0.7957747E-01            NaN
         13   -1    0    0    0    0  0.00000000000E+00  0.00000000000E+00  0.74505805969E-08  0.10566000000E+00  0.10566000000E+00 0. -1.
     999900   -1    0    0    0    0 -0.00000000000E+00 -0.00000000000E+00 -0.74505805969E-08  0.93827000000E+00  0.93827000000E+00 0. -1.
     999902    2    1    2    0    0  0.16775843675E-01  0.31705635055E-02  0.17536714463E-01  0.10194551607E+01  0.10191613253E+01 0.  0.
     999903    2    3    3    0    0 -0.14180925647E-01 -0.33713644299E-01 -0.12055416661E+00  0.12738573640E+00  0.18870884649E-01 0.  0.
         14    1    1    2    0    0 -0.16775843675E-01 -0.31705635055E-02 -0.17536714463E-01  0.24474839286E-01  0.00000000000E+00 0.  1.
     999901    1    3    3    0    0  0.30956769322E-01  0.36884207805E-01  0.13809088107E+00  0.89206942431E+00  0.88000000000E+00 0.  1.
        -11    1    4    4    0    0 -0.52395254914E-02 -0.16232146985E-02 -0.37431686858E-01  0.37834901287E-01  0.51100000000E-03 0.  1.
         11    1    4    4    0    0 -0.89414001552E-02 -0.32090429601E-01 -0.83122479754E-01  0.89550835117E-01  0.51100000000E-03 0. -1.
</event>
<event>
 8    1  0.1081309E+005  0.1043930E+01  0.7957747E-01            NaN
         13   -1    0    0    0    0  0.00000000000E+00  0.00000000000E+00  0.74505805969E-08  0.10566000000E+00  0.10566000000E+00 0. -1.
     999900   -1    0    0    0    0 -0.00000000000E+00 -0.00000000000E+00 -0.74505805969E-08  0.93827000000E+00  0.93827000000E+00 0.  1.
     999902    2    1    2    0    0  0.60986928501E-02  0.19847848687E-01 -0.11198110153E-01  0.10203391369E+01  0.10200663828E+01 0.  0.
     999903    2    3    3    0    0  0.26113925308E-02  0.88547544179E-01  0.94848209832E-01  0.13130728626E+00  0.19948272251E-01 0.  0.
         14    1    1    2    0    0 -0.60986928501E-02 -0.19847848687E-01  0.11198110153E-01  0.23590863125E-01  0.00000000000E+00 0. -1.
     999901    1    3    3    0    0  0.34873003193E-02 -0.68699695492E-01 -0.10604631998E+00  0.88903185061E+00  0.88000000000E+00 0.  1.
        -11    1    4    4    0    0  0.87229384536E-02  0.36385521280E-01  0.30707945661E-01  0.48406971211E-01  0.51100000000E-03 0. -1.
         11    1    4    4    0    0 -0.61115459228E-02  0.52162022899E-01  0.64140264171E-01  0.82900315050E-01  0.51100000000E-03 0.  1.
</event>
<event>
 8    1  0.1081309E+005  0.1043930E+01  0.7957747E-01            NaN
         13   -1    0    0    0    0  0.00000000000E+00  0.00000000000E+00  0.74505805969E-08  0.10566000000E+00  0.10566000000E+00 0.  1.
     999900   -1    0    0    0    0 -0.00000000000E+00 -0.00000000000E+00 -0.74505805969E-08  0.93827000000E+00  0.93827000000E+00 0.  1.
     999902    2    1    2    0    0  0.17854816887E-01  0.83515684481E-02  0.33394362863E-02  0.10239376260E+01  0.10237424320E+01 0.  0.
     999903    2    3    3    0    0  0.17145847449E-01  0.10178741610E+00 -0.84144667604E-01  0.13467713064E+00  0.20073521576E-01 0.  0.
         14    1    1    2    0    0 -0.17854816887E-01 -0.83515684481E-02 -0.33394362863E-02  0.19992373954E-01  0.00000000000E+00 0.  1.
     999901    1    3    3    0    0  0.70896943832E-03 -0.93435847654E-01  0.87484103890E-01  0.88926049541E+00  0.88000000000E+00 0. -1.
        -11    1    4    4    0    0 -0.12700897126E-02  0.51429832220E-01 -0.43914911224E-01  0.67641860699E-01  0.51100000000E-03 0.  1.
         11    1    4    4    0    0  0.18415937161E-01  0.50357583882E-01 -0.40229756380E-01  0.67035269936E-01  0.51100000000E-03 0. -1.
</event>
<event>
 8    1  0.1081309E+005  0.1043930E+01  0.7957747E-01            NaN
         13   -1    0    0    0    0  0.00000000000E+00  0.00000000000E+00  0.74505805969E-08  0.10566000000E+00  0.10566000000E+00 0.  1.
     999900   -1    0    0    0    0 -0.00000000000E+00 -0.00000000000E+00 -0.74505805969E-08  0.93827000000E+00  0.93827000000E+00 0. -1.
     999902    2    1    2    0    0  0.22250543288E-01 -0.10608648308E-01  0.38907228633E-02  0.10189746835E+01  0.10186690522E+01 0.  0.
     999903    2    3    3    0    0 -0.80755270838E-01  0.26565305672E-01  0.92807686325E-01  0.12774052407E+00  0.21845951935E-01 0.  0.
         14    1    1    2    0    0 -0.22250543288E-01  0.10608648308E-01 -0.38907228633E-02  0.24955316466E-01  0.00000000000E+00 0. -1.
     999901    1    3    3    0    0  0.10300581413E+00 -0.37173953980E-01 -0.88916963462E-01  0.89123415946E+00  0.88000000000E+00 0. -1.
        -11    1    4    4    0    0 -0.27118213067E-01  0.16232517613E-01  0.22956010096E-01  0.39065734712E-01  0.51100000000E-03 0. -1.
         11    1    4    4    0    0 -0.53637057771E-01  0.10332788059E-01  0.69851676229E-01  0.88674789362E-01  0.51100000000E-03 0.  1.
</event>
<event>
 8    1  0.1081309E+005  0.1043930E+01  0.7957747E-01            NaN
         13   -1    0    0    0    0  0.00000000000E+00  0.00000000000E+00  0.74505805969E-08  0.10566000000E+00  0.10566000000E+00 0.  1.
     999900   -1    0    0    0    0 -0.00000000000E+00 -0.00000000000E+00 -0.74505805969E-08  0.93827000000E+00  0.93827000000E+00 0. -1.
     999902    2    1    2    0    0 -0.14752202450E-01 -0.23568318445E-02  0.18031932086E-01  0.10205134950E+01  0.10202448043E+01 0.  0.
     999903    2    3    3    0    0  0.18140563038E-01 -0.12800267309E+00  0.37964002644E-02  0.13086667638E+00  0.19947681213E-01 0.  0.
         14    1    1    2    0    0  0.14752202450E-01  0.23568318445E-02 -0.18031932086E-01  0.23416505038E-01  0.00000000000E+00 0. -1.
     999901    1    3    3    0    0 -0.32892765488E-01  0.12564584125E+00  0.14235531821E-01  0.88964681858E+00  0.88000000000E+00 0. -1.
        -11    1    4    4    0    0  0.15128061998E-01 -0.45827573382E-01 -0.29901763560E-02  0.48355217067E-01  0.51100000000E-03 0. -1.
         11    1    4    4    0    0  0.30125010406E-02 -0.82175099710E-01  0.67865766204E-02  0.82511459314E-01  0.51100000000E-03 0.  1.
</event>
<event>
 8    1  0.1081309E+005  0.1043930E+01  0.7957747E-01            NaN
         13   -1    0    0    0    0  0.00000000000E+00  0.00000000000E+00  0.74505805969E-08  0.10566000000E+00  0.10566000000E+00 0. -1.
     999900   -1    0    0    0    0 -0.00000000000E+00 -0.00000000000E+00 -0.74505805969E-08  0.93827000000E+00  0.93827000000E+00 0. -1.
     999902    2    1    2    0    0 -0.67613414308E-02 -0.15752206195E-01  0.16309119799E-01  0.10202691647E+01  0.10199947712E+01 0.  0.
     999903    2    3    3    0    0 -0.58262300986E-01 -0.11049343460E+00 -0.37582336577E-01  0.13205042011E+00  0.20532574675E-01 0.  0.
         14    1    1    2    0    0  0.67613414308E-02  0.15752206195E-01 -0.16309119799E-01  0.23660835289E-01  0.00000000000E+00 0.  1.
     999901    1    3    3    0    0  0.51500959555E-01  0.94741228402E-01  0.53891456376E-01  0.88821874460E+00  0.88000000000E+00 0.  1.
        -11    1    4    4    0    0 -0.42455754032E-01 -0.84962890879E-01 -0.37227683878E-01  0.10201639792E+00  0.51100000000E-03 0.  1.
         11    1    4    4    0    0 -0.15806546955E-01 -0.25530543718E-01 -0.35465269911E-03  0.30034022186E-01  0.51100000000E-03 0. -1.
</event>
<event>
 8    1  0.1081309E+005  0.1043930E+01  0.7957747E-01            NaN
         13   -1    0    0    0    0  0.00000000000E+00  0.00000000000E+00  0.74505805969E-08  0.10566000000E+00  0.10566000000E+00 0. -1.
     999900   -1    0    0    0    0 -0.00000000000E+00 -0.00000000000E+00 -0.74505805969E-08  0.93827000000E+00  0.93827000000E+00 0. -1.
     999902    2    1    2    0    0 -0.13169367668E-01 -0.18761769751E-01 -0.61448061431E-02  0.10201982725E+01  0.10199222128E+01 0.  0.
     999903    2    3    3    0    0  0.10339893888E+00 -0.59572467202E-01 -0.49317665925E-01  0.13052553548E+00  0.19090935860E-01 0.  0.
         14    1    1    2    0    0  0.13169367668E-01  0.18761769751E-01  0.61448061431E-02  0.23731727528E-01  0.00000000000E+00 0. -1.
     999901    1    3    3    0    0 -0.11656830654E+00  0.40810697451E-01  0.43172859782E-01  0.88967273699E+00  0.88000000000E+00 0.  1.
        -11    1    4    4    0    0  0.69724491571E-01 -0.30149510480E-01 -0.27745880662E-01  0.80873931039E-01  0.51100000000E-03 0. -1.
         11    1    4    4    0    0  0.33674447305E-01 -0.29422956721E-01 -0.21571785263E-01  0.49651604445E-01  0.51100000000E-03 0.  1.
</event>
<event>
 8    1  0.1081309E+005  0.1043930E+01  0.7957747E-01            NaN
         13   -1    0    0    0    0  0.00000000000E+00  0.00000000000E+00  0.74505805969E-08  0.10566000000E+00  0.10566000000E+00 0. -1.
     999900   -1    0    0    0    0 -0.00000000000E+00 -0.00000000000E+00 -0.74505805969E-08  0.93827000000E+00  0.93827000000E+00 0. -1.
     999902    2    1    2    0    0  0.45963652194E-02  0.12823080970E-01 -0.18725521205E-01  0.10207739398E+01  0.10205112606E+01 0.  0.
     999903    2    3    3    0    0 -0.99442192874E-01 -0.37787874324E-01 -0.74673699952E-01  0.13143953192E+00  0.19583562426E-01 0.  0.
         14    1    1    2    0    0 -0.45963652194E-02 -0.12823080970E-01  0.18725521205E-01  0.23156060182E-01  0.00000000000E+00 0.  1.
     999901    1    3    3    0    0  0.10403855809E+00  0.50610955293E-01  0.55948178747E-01  0.88933440790E+00  0.88000000000E+00 0. -1.
        -11    1    4    4    0    0 -0.35145580322E-01 -0.23554983386E-01 -0.29356788824E-01  0.51498846876E-01  0.51100000000E-03 0. -1.
         11    1    4    4    0    0 -0.64296612552E-01 -0.14232890937E-01 -0.45316911128E-01  0.79940685044E-01  0.51100000000E-03 0.  1.
</event>
<event>
 8    1  0.1081309E+005  0.1043930E+01  0.7957747E-01            NaN
         13   -1    0    0    0    0  0.00000000000E+00  0.00000000000E+00  0.74505805969E-08  0.10566000000E+00  0.10566000000E+00 0.  1.
     999900   -1    0    0    0    0 -0.00000000000E+00 -0.00000000000E+00 -0.74505805969E-08  0.93827000000E+00  0.93827000000E+00 0.  1.
     999902    2    1    2    0    0  0.21493823804E-01 -0.28929290852E-02 -0.11555975975E-01  0.10193557435E+01  0.10190594869E+01 0.  0.
     999903    2    3    3    0    0 -0.29642396158E-01  0.67941553265E-01 -0.10488682409E+00  0.13011838259E+00  0.20852369405E-01 0.  0.
         14    1    1    2    0    0 -0.21493823804E-01  0.28929290852E-02  0.11555975975E-01  0.24574256472E-01  0.00000000000E+00 0.  1.
     999901    1    3    3    0    0  0.51136219963E-01 -0.70834482350E-01  0.93330848113E-01  0.88923736094E+00  0.88000000000E+00 0. -1.
        -11    1    4    4    0    0 -0.14499562771E-01  0.50826724073E-01 -0.83448782687E-01  0.98780330297E-01  0.51100000000E-03 0.  1.
         11    1    4    4    0    0 -0.15142833388E-01  0.17114829192E-01 -0.21438041401E-01  0.31338052291E-01  0.51100000000E-03 0. -1.
</event>
<event>
 8    1  0.1081309E+005  0.1043930E+01  0.7957747E-01            NaN
         13   -1    0    0    0    0  0.00000000000E+00  0.00000000000E+00  0.74505805969E-08  0.10566000000E+00  0.10566000000E+00 0. -1.
     999900   -1    0    0    0    0 -0.00000000000E+00 -0.00000000000E+00 -0.74505805969E-08  0.93827000000E+00  0.93827000000E+00 0. -1.
     999902    2    1    2    0    0  0.23555474389E-01  0.20628058097E-03 -0.31211619138E-03  0.10203715548E+01  0.10200995586E+01 0.  0.
     999903    2    3    3    0    0  0.10870232765E+00 -0.59449798713E-01 -0.44519717452E-01  0.13314940309E+00  0.19906875612E-01 0.  0.
         14    1    1    2    0    0 -0.23555474389E-01 -0.20628058097E-03  0.31211619138E-03  0.23558445234E-01  0.00000000000E+00 0.  1.
     999901    1    3    3    0    0 -0.85146853264E-01  0.59656079294E-01  0.44207601260E-01  0.88722215168E+00  0.88000000000E+00 0. -1.
        -11    1    4    4    0    0  0.62315013198E-01 -0.33955722241E-01 -0.14981543235E-01  0.72531784078E-01  0.51100000000E-03 0.  1.
         11    1    4    4    0    0  0.46387314454E-01 -0.25494076472E-01 -0.29538174216E-01  0.60617619010E-01  0.51100000000E-03 0. -1.
</event>
<event>
 8    1  0.1081309E+005  0.1043930E+01  0.7957747E-01            NaN
         13   -1    0    0    0    0  0.00000000000E+00  0.00000000000E+00  0.74505805969E-08  0.10566000000E+00  0.10566000000E+00 0.  1.
     999900   -1    0    0    0    0 -0.00000000000E+00 -0.00000000000E+00 -0.74505805969E-08  0.93827000000E+00  0.93827000000E+00 0. -1.
     999902    2    1    2    0    0 -0.18228383372E-01 -0.10849565953E-01  0.66167881450E-02  0.10217090881E+01  0.10214674208E+01 0.  0.
     999903    2    3    3    0    0 -0.44561377933E-01  0.30465189338E-02  0.12414880534E+00  0.13339590971E+00  0.19660752232E-01 0.  0.
         14    1    1    2    0    0  0.18228383372E-01  0.10849565953E-01 -0.66167881450E-02  0.22220911931E-01  0.00000000000E+00 0.  1.
     999901    1    3    3    0    0  0.26332994561E-01 -0.13896084887E-01 -0.11753201720E+00  0.88831317836E+00  0.88000000000E+00 0. -1.
        -11    1    4    4    0    0 -0.28851695057E-01 -0.63997860901E-02  0.63633857318E-01  0.70163426996E-01  0.51100000000E-03 0. -1.
         11    1    4    4    0    0 -0.15709682876E-01  0.94463050239E-02  0.60514948026E-01  0.63232482715E-01  0.51100000000E-03 0.  1.
</event>
<event>
 8    1  0.1081309E+005  0.1043930E+01  0.7957747E-01            NaN
         13   -1    0    0    0    0  0.00000000000E+00  0.00000000000E+00  0.74505805969E-08  0.10566000000E+00  0.10566000000E+00 0.  1.
     999900   -1    0    0    0    0 -0.00000000000E+00 -0.00000000000E+00 -0.74505805969E-08  0.93827000000E+00  0.93827000000E+00 0. -1.
     999902    2    1    2    0    0  0.20657099596E-01  0.59227936120E-02 -0.70633382461E-02  0.10213095227E+01  0.10210589871E+01 0.  0.
     999903    2    3    3    0    0 -0.70877018925E-01 -0.10388012165E+00 -0.23635976443E-01  0.12962021164E+00  0.20690780470E-01 0.  0.
         14    1    1    2    0    0 -0.20657099596E-01 -0.59227936120E-02  0.70633382461E-02  0.22620477339E-01  0.00000000000E+00 0. -1.
     999901    1    3    3    0    0  0.91534118521E-01  0.10980291526E+00  0.16572638197E-01  0.89168931102E+00  0.88000000000E+00 0. -1.
        -11    1    4    4    0    0 -0.41357700080E-01 -0.75771179090E-01 -0.11501450848E-01  0.87087745574E-01  0.51100000000E-03 0. -1.
         11    1    4    4    0    0 -0.29519318846E-01 -0.28108942563E-01 -0.12134525595E-01  0.42532466065E-01  0.51100000000E-03 0.  1.
</event>
<event>
 8    1  0.1081309E+005  0.1043930E+01  0.7957747E-01            NaN
         13   -1    0    0    0    0  0.00000000000E+00  0.00000000000E+00  0.74505805969E-08  0.10566000000E+00  0.10566000000E+00 0. -1.
     999900   -1    0    0    0    0 -0.00000000000E+00 -0.00000000000E+00 -0.74505805969E-08  0.93827000000E+00  0.93827000000E+00 0.  1.
     999902    2    1    2    0    0  0.67771286855E-02  0.16907311045E-01 -0.15374736067E-01  0.10200937010E+01  0.10198151743E+01 0.  0.
     999903    2    3    3    0    0  0.53591848960E-01 -0.50911691762E-01  0.10306154470E+00  0.12834363078E+00  0.19654997655E-01 0.  0.
         14    1    1    2    0    0 -0.67771286855E-02 -0.16907311045E-01  0.15374736067E-01  0.23836298982E-01  0.00000000000E+00 0. -1.
     999901    1    3    3    0    0 -0.46814720275E-01  0.67819002807E-01 -0.11843628076E+00  0.89175007024E+00  0.88000000000E+00 0. -1.
        -11    1    4    4    0    0  0.74307479362E-02 -0.15155860116E-01  0.33556983106E-01  0.37566585511E-01  0.51100000000E-03 0.  1.
         11    1    4    4    0    0  0.46161101024E-01 -0.35755831646E-01  0.69504561589E-01  0.90777045266E-01  0.51100000000E-03 0. -1.
</event>
<event>
 8    1  0.1081309E+005  0.1043930E+01  0.7957747E-01            NaN
         13   -1    0    0    0    0  0.00000000000E+00  0.00000000000E+00  0.74505805969E-08  0.10566000000E+00  0.10566000000E+00 0.  1.
     999900   -1    0    0    0    0 -0.00000000000E+00 -0.00000000000E+00 -0.74505805969E-08  0.93827000000E+00  0.93827000000E+00 0.  1.
     999902    2    1    2    0    0 -0.16739021071E-01  0.13312952409E-01  0.11727185301E-01  0.10195382718E+01  0.10192464527E+01 0.  0.
     999903    2    3    3    0    0  0.67499364105E-01  0.10881368977E+00 -0.11519933354E-01  0.13006824709E+00  0.19709307485E-01 0.  0.
         14    1    1    2    0    0  0.16739021071E-01 -0.13312952409E-01 -0.11727185301E-01  0.24391728175E-01  0.00000000000E+00 0.  1.
     999901    1    3    3    0    0 -0.84238385176E-01 -0.95500737359E-01  0.23247118655E-01  0.88947002473E+00  0.88000000000E+00 0.  1.
        -11    1    4    4    0    0  0.22498266572E-01  0.35759493518E-01  0.54535488270E-02  0.42601827322E-01  0.51100000000E-03 0.  1.
         11    1    4    4    0    0  0.45001097533E-01  0.73054196250E-01 -0.16973482181E-01  0.87466419769E-01  0.51100000000E-03 0. -1.
</event>
<event>
 8    1  0.1081309E+005  0.1043930E+01  0.7957747E-01            NaN
         13   -1    0    0    0    0  0.00000000000E+00  0.00000000000E+00  0.74505805969E-08  0.10566000000E+00  0.10566000000E+00 0.  1.
     999900   -1    0    0    0    0 -0.00000000000E+00 -0.00000000000E+00 -0.74505805969E-08  0.93827000000E+00  0.93827000000E+00 0.  1.
     999902    2    1    2    0    0 -0.15907430789E-02  0.39707037352E-02  0.22802655453E-01  0.10207296111E+01  0.10204659136E+01 0.  0.
     999903    2    3    3    0    0  0.17260196293E-01  0.94447748747E-01 -0.85018108481E-01  0.12934486206E+00  0.16844077690E-01 0.  0.
         14    1    1    2    0    0  0.15907430789E-02 -0.39707037352E-02 -0.22802655453E-01  0.23200388950E-01  0.00000000000E+00 0. -1.
     999901    1    3    3    0    0 -0.18850939372E-01 -0.90477045012E-01  0.10782076393E+00  0.89138474899E+00  0.88000000000E+00 0. -1.
        -11    1    4    4    0    0  0.19566787130E-01  0.69331852871E-01 -0.59161978949E-01  0.93221059076E-01  0.51100000000E-03 0.  1.
         11    1    4    4    0    0 -0.23065908365E-02  0.25115895876E-01 -0.25856129532E-01  0.36123802988E-01  0.51100000000E-03 0. -1.
</event>
<event>
 7    1  0.1081309E+005  0.1043930E+01  0.7957747E-01            NaN
         13   -1    0    0    0    0  0.00000000000E+00  0.00000000000E+00  0.74505805969E-08  0.10566000000E+00  0.10566000000E+00 0.  1.
     999900   -1    0    0    0    0 -0.00000000000E+00 -0.00000000000E+00 -0.74505805969E-08  0.93827000000E+00  0.93827000000E+00 0. -1.
     999903    2    1    2    0    0  0.34069172858E-01  0.50044426149E-01  0.99831529810E-01  0.11837369898E+00  0.19515253970E-01 0.  0.
         14    1    1    2    0    0 -0.17159903446E-01 -0.43675473778E-02 -0.38143614124E-01  0.42053216938E-01  0.00000000000E+00 0. -1.
     999901    1    1    2    0    0 -0.16909269412E-01 -0.45676878771E-01 -0.61687915686E-01  0.88350308409E+00  0.88000000000E+00 0. -1.
        -11    1    3    3    0    0  0.11628423338E-01  0.66491577370E-02  0.32741089847E-01  0.35378971344E-01  0.51100000000E-03 0. -1.
         11    1    3    3    0    0  0.22440749519E-01  0.43395268412E-01  0.67090439963E-01  0.82994727633E-01  0.51100000000E-03 0.  1.
</event>
<event>
 8    1  0.1081309E+005  0.1043930E+01  0.7957747E-01            NaN
         13   -1    0    0    0    0  0.00000000000E+00  0.00000000000E+00  0.74505805969E-08  0.10566000000E+00  0.10566000000E+00 0. -1.
     999900   -1    0    0    0    0 -0.00000000000E+00 -0.00000000000E+00 -0.74505805969E-08  0.93827000000E+00  0.93827000000E+00 0.  1.
     999902    2    1    2    0    0  0.19386587161E-01  0.99568020674E-02 -0.94518592594E-02  0.10201746782E+01  0.10198980629E+01 0.  0.
     999903    2    3    3    0    0 -0.67402685121E-01  0.27788062751E-01 -0.10638684503E+00  0.13042936461E+00  0.19451477152E-01 0.  0.
         14    1    1    2    0    0 -0.19386587161E-01 -0.99568020674E-02  0.94518592594E-02  0.23755321775E-01  0.00000000000E+00 0. -1.
     999901    1    3    3    0    0  0.86789272282E-01 -0.17831260684E-01  0.96934985770E-01  0.88974531362E+00  0.88000000000E+00 0. -1.
        -11    1    4    4    0    0 -0.51763859628E-01  0.27327338668E-01 -0.73129718530E-01  0.93672287553E-01  0.51100000000E-03 0.  1.
         11    1    4    4    0    0 -0.15638825493E-01  0.46072408314E-03 -0.33257126499E-01  0.36757077053E-01  0.51100000000E-03 0. -1.
</event>
<event>
 8    1  0.1081309E+005  0.1043930E+01  0.7957747E-01            NaN
         13   -1    0    0    0    0  0.00000000000E+00  0.00000000000E+00  0.74505805969E-08  0.10566000000E+00  0.10566000000E+00 0. -1.
     999900   -1    0    0    0    0 -0.00000000000E+00 -0.00000000000E+00 -0.74505805969E-08  0.93827000000E+00  0.93827000000E+00 0.  1.
     999902    2    1    2    0    0 -0.53202695033E-04  0.16933458502E-01 -0.17080938475E-01  0.10198779043E+01  0.10195942509E+01 0.  0.
     999903    2    3    3    0    0 -0.12828046935E+00 -0.40823629171E-02  0.53290256918E-02  0.13005426834E+00  0.20326576076E-01 0.  0.
         14    1    1    2    0    0  0.53202695032E-04 -0.16933458502E-01  0.17080938475E-01  0.24052095679E-01  0.00000000000E+00 0. -1.
     999901    1    3    3    0    0  0.12822726665E+00  0.21015821419E-01 -0.22409964167E-01  0.88982363598E+00  0.88000000000E+00 0. -1.
        -11    1    4    4    0    0 -0.88937433683E-01  0.16710751244E-03  0.12567446196E-01  0.89822585467E-01  0.51100000000E-03 0. -1.
         11    1    4    4    0    0 -0.39343035663E-01 -0.42494704295E-02 -0.72384205039E-02  0.40231682870E-01  0.51100000000E-03 0.  1.
</event>
<event>
 8    1  0.1081309E+005  0.1043930E+01  0.7957747E-01            NaN
         13   -1    0    0    0    0  0.00000000000E+00  0.00000000000E+00  0.74505805969E-08  0.10566000000E+00  0.10566000000E+00 0. -1.
     999900   -1    0    0    0    0 -0.00000000000E+00 -0.00000000000E+00 -0.74505805969E-08  0.93827000000E+00  0.93827000000E+00 0. -1.
     999902    2    1    2    0    0  0.52363691675E-04 -0.19664301349E-01  0.14759910247E-01  0.10193425552E+01  0.10190459766E+01 0.  0.
     999903    2    3    3    0    0 -0.10030805162E+00  0.72368790632E-01  0.29488942303E-01  0.12874767126E+00  0.20184599581E-01 0.  0.
         14    1    1    2    0    0 -0.52363691675E-04  0.19664301349E-01 -0.14759910247E-01  0.24587444763E-01  0.00000000000E+00 0.  1.
     999901    1    3    3    0    0  0.10036041531E+00 -0.92033091981E-01 -0.14729032057E-01  0.89059488398E+00  0.88000000000E+00 0.  1.
        -11    1    4    4    0    0 -0.25119411959E-01  0.16922382092E-01  0.16296737086E-01  0.34397625405E-01  0.51100000000E-03 0. -1.
         11    1    4    4    0    0 -0.75188639657E-01  0.55446408540E-01  0.13192205217E-01  0.94350045855E-01  0.51100000000E-03 0.  1.
</event>
<event>
 8    1  0.1081309E+005  0.1043930E+01  0.7957747E-01            NaN
         13   -1    0    0    0    0  0.00000000000E+00  0.00000000000E+00  0.74505805969E-08  0.10566000000E+00  0.10566000000E+00 0.  1.
     999900   -1    0    0    0    0 -0.00000000000E+00 -0.00000000000E+00 -0.74505805969E-08  0.93827000000E+00  0.93827000000E+00 0. -1.
     999902    2    1    2    0    0  0.25974498550E-02  0.24140926825E-01  0.24037596287E-02  0.10195310419E+01  0.10192390477E+01 0.  0.
     999903    2    3    3    0    0 -0.10394863886E+00  0.37370077204E-01 -0.66344163226E-01  0.13034413452E+00  0.19652053787E-01 0.  0.
         14    1    1    2    0    0 -0.25974498550E-02 -0.24140926825E-01 -0.24037596287E-02  0.24398958053E-01  0.00000000000E+00 0.  1.
     999901    1    3    3    0    0  0.10654608872E+00 -0.13229150379E-01  0.68747922854E-01  0.88918690743E+00  0.88000000000E+00 0.  1.
        -11    1    4    4    0    0 -0.95809264772E-01  0.29081149185E-01 -0.55685137433E-01  0.11456973469E+00  0.51100000000E-03 0.  1.
         11    1    4    4    0    0 -0.81393740920E-02  0.82889280194E-02 -0.10659025792E-01  0.15774399835E-01  0.51100000000E-03 0. -1.
</event>
<event>
 8    1  0.1081309E+005  0.1043930E+01  0.7957747E-01            NaN
         13   -1    0    0    0    0  0.00000000000E+00  0.00000000000E+00  0.74505805969E-08  0.10566000000E+00  0.10566000000E+00 0. -1.
     999900   -1    0    0    0    0 -0.00000000000E+00 -0.00000000000E+00 -0.74505805969E-08  0.93827000000E+00  0.93827000000E+00 0.  1.
     999902    2    1    2    0    0 -0.18643380680E-01  0.11102448083E-01 -0.10721486454E-01  0.10197268955E+01  0.10194396260E+01 0.  0.
     999903    2    3    3    0    0 -0.81336212244E-01 -0.66723892868E-01 -0.76750677315E-01  0.13161249715E+00  0.19066348262E-01 0.  0.
         14    1    1    2    0    0  0.18643380680E-01 -0.11102448083E-01  0.10721486454E-01  0.24203104520E-01  0.00000000000E+00 0. -1.
     999901    1    3    3    0    0  0.62692831564E-01  0.77826340951E-01  0.66029190861E-01  0.88811439833E+00  0.88000000000E+00 0. -1.
        -11    1    4    4    0    0 -0.74247126386E-01 -0.54457952119E-01 -0.71168670540E-01  0.11637673785E+00  0.51100000000E-03 0.  1.
         11    1    4    4    0    0 -0.70890858590E-02 -0.12265940749E-01 -0.55820067753E-02  0.15235759299E-01  0.51100000000E-03 0. -1.
</event>
<event>
 7    1  0.1081309E+005  0.1043930E+01  0.7957747E-01            NaN
         13   -1    0    0    0    0  0.00000000000E+00  0.00000000000E+00  0.74505805969E-08  0.10566000000E+00  0.10566000000E+00 0. -1.
     999900   -1    0    0    0    0 -0.00000000000E+00 -0.00000000000E+00 -0.74505805969E-08  0.93827000000E+00  0.93827000000E+00 0. -1.
     999902    2    1    2    0    0  0.51151049600E-02 -0.16707133046E-01 -0.13804057771E-01  0.10216624316E+01  0.10214197372E+01 0.  0.
         14    1    1    2    0    0 -0.51151049600E-02  0.16707133046E-01  0.13804057771E-01  0.22267568442E-01  0.00000000000E+00 0. -1.
     999901    1    3    3    0    0 -0.71243990288E-01  0.87675757651E-01 -0.73791341866E-02  0.88725261130E+00  0.88000000000E+00 0. -1.
        -11    1    3    3    0    0  0.61344025300E-01 -0.97195364742E-01 -0.14595452410E-01  0.11585903814E+00  0.51100000000E-03 0.  1.
         11    1    3    3    0    0  0.15015069948E-01 -0.71875259555E-02  0.81705288258E-02  0.18550782118E-01  0.51100000000E-03 0. -1.
</event>
<event>
 8    1  0.1081309E+005  0.1043930E+01  0.7957747E-01            NaN
         13   -1    0    0    0    0  0.00000000000E+00  0.00000000000E+00  0.74505805969E-08  0.10566000000E+00  0.10566000000E+00 0.  1.
     999900   -1    0    0    0    0 -0.00000000000E+00 -0.00000000000E+00 -0.74505805969E-08  0.93827000000E+00  0.93827000000E+00 0.  1.
     999902    2    1    2    0    0  0.18645363861E-01  0.13019940740E-01 -0.50924513428E-02  0.10206254616E+01  0.10203593638E+01 0.  0.
     999903    2    3    3    0    0  0.78600302374E-01 -0.77899736462E-01  0.67113116567E-01  0.13097686444E+00  0.20109503444E-01 0.  0.
         14    1    1    2    0    0 -0.18645363861E-01 -0.13019940740E-01  0.50924513428E-02  0.23304538422E-01  0.00000000000E+00 0.  1.
     999901    1    3    3    0    0 -0.59954938513E-01  0.90919677202E-01 -0.72205567910E-01  0.88964859714E+00  0.88000000000E+00 0.  1.
        -11    1    4    4    0    0  0.97828929843E-02 -0.20649901805E-01  0.15920168388E-01  0.27853838554E-01  0.51100000000E-03 0. -1.
         11    1    4    4    0    0  0.68817409390E-01 -0.57249834657E-01  0.51192948179E-01  0.10312302588E+00  0.51100000000E-03 0.  1.
</event>
<event>
 8    1  0.1081309E+005  0.1043930E+01  0.7957747E-01            NaN
         13   -1    0    0    0    0  0.00000000000E+00  0.00000000000E+00  0.74505805969E-08  0.10566000000E+00  0.10566000000E+00 0. -1.
     999900   -1    0    0    0    0 -0.00000000000E+00 -0.00000000000E+00 -0.74505805969E-08  0.93827000000E+00  0.93827000000E+00 0.  1.
     999902    2    1    2    0    0 -0.20364555321E-01 -0.12439336469E-01  0.19594127149E-02  0.10199864935E+01  0.10197054258E+01 0.  0.
     999903    2    3    3    0    0  0.73085102182E-01 -0.52743995545E-01  0.91246832884E-01  0.12963288542E+00  0.18850444109E-01 0.  0.
         14    1    1    2    0    0  0.20364555321E-01  0.12439336469E-01 -0.19594127149E-02  0.23943506498E-01  0.00000000000E+00 0. -1.
     999901    1    3    3    0    0 -0.93449657503E-01  0.40304659076E-01 -0.89287420169E-01  0.89035360809E+00  0.88000000000E+00 0.  1.
        -11    1    4    4    0    0  0.72243987149E-01 -0.48778212626E-01  0.82695044553E-01  0.12015506323E+00  0.51100000000E-03 0.  1.
         11    1    4    4    0    0  0.84111503236E-03 -0.39657829195E-02  0.85517883314E-02  0.94778221827E-02  0.51100000000E-03 0. -1.
</event>
<event>
 8    1  0.1081309E+005  0.1043930E+01  0.7957747E-01            NaN
         13   -1    0    0    0    0  0.00000000000E+00  0.00000000000E+00  0.74505805969E-08  0.10566000000E+00  0.10566000000E+00 0.  1.
     999900   -1    0    0    0    0 -0.00000000000E+00 -0.00000000000E+00 -0.74505805969E-08  0.93827000000E+00  0.93827000000E+00 0. -1.
     999902    2    1    2    0    0  0.63588824133E-02 -0.21523808838E-01 -0.80848133687E-02  0.10200747293E+01  0.10197957538E+01 0.  0.
     999903    2    3    3    0    0 -0.12247950961E+00  0.32809206018E-03  0.36087071285E-01  0.12932897870E+00  0.20551644710E-01 0.  0.
         14    1    1    2    0    0 -0.63588824133E-02  0.21523808838E-01  0.80848133687E-02  0.23855270689E-01  0.00000000000E+00 0.  1.
     999901    1    3    3    0    0  0.12883839202E+00 -0.21851900898E-01 -0.44171884654E-01  0.89074575061E+00  0.88000000000E+00 0.  1.
        -11    1    4    4    0    0 -0.98125884619E-01 -0.76392960601E-02  0.31087867264E-01  0.10321707557E+00  0.51100000000E-03 0.  1.
         11    1    4    4    0    0 -0.24353624989E-01  0.79673881203E-02  0.49992040211E-02  0.26111903136E-01  0.51100000000E-03 0. -1.
</event>
<event>
 8    1  0.1081309E+005  0.1043930E+01  0.7957747E-01            NaN
         13   -1    0    0    0    0  0.00000000000E+00  0.00000000000E+00  0.74505805969E-08  0.10566000000E+00  0.10566000000E+00 0. -1.
     999900   -1    0    0    0    0 -0.00000000000E+00 -0.00000000000E+00 -0.74505805969E-08  0.93827000000E+00  0.93827000000E+00 0. -1.
     999902    2    1    2    0    0  0.17806065183E-01  0.32277529831E-02 -0.14528934449E-01  0.10207230122E+01  0.10204591630E+01 0.  0.
     999903    2    3    3    0    0 -0.67069046713E-01  0.89051861459E-01  0.62189888704E-01  0.12917641216E+00  0.19760368041E-01 0.  0.
         14    1    1    2    0    0 -0.17806065183E-01 -0.32277529831E-02  0.14528934449E-01  0.23206987802E-01  0.00000000000E+00 0.  1.
     999901    1    3    3    0    0  0.84875111895E-01 -0.85824108476E-01 -0.76718823153E-01  0.89154660004E+00  0.88000000000E+00 0. -1.
        -11    1    4    4    0    0 -0.37898768410E-01  0.55255941422E-01  0.26649000120E-01  0.72110790024E-01  0.51100000000E-03 0. -1.
         11    1    4    4    0    0 -0.29170278303E-01  0.33795920036E-01  0.35540888584E-01  0.57065622135E-01  0.51100000000E-03 0.  1.
</event>
<event>
 7    1  0.1081309E+005  0.1043930E+01  0.7957747E-01            NaN
         13   -1    0    0    0    0  0.00000000000E+00  0.00000000000E+00  0.74505805969E-08  0.10566000000E+00  0.10566000000E+00 0. -1.
     999900   -1    0    0    0    0 -0.00000000000E+00 -0.00000000000E+00 -0.74505805969E-08  0.93827000000E+00  0.93827000000E+00 0. -1.
     999903    2    1    2    0    0  0.11428682829E+00  0.21535281324E-01  0.21028467020E-01  0.11994882141E+00  0.20500630940E-01 0.  0.
         14    1    1    2    0    0 -0.35740645487E-01 -0.88427033730E-02 -0.16582764139E-01  0.40380381490E-01  0.00000000000E+00 0.  1.
     999901    1    1    2    0    0 -0.78546182805E-01 -0.12692577951E-01 -0.44457028806E-02  0.88360079710E+00  0.88000000000E+00 0. -1.
        -11    1    3    3    0    0  0.67350716415E-01  0.21274199791E-01  0.71125843822E-02  0.70989862346E-01  0.51100000000E-03 0. -1.
         11    1    3    3    0    0  0.46936111877E-01  0.26108153237E-03  0.13915882637E-01  0.48958959060E-01  0.51100000000E-03 0.  1.
</event>
<event>
 8    1  0.1081309E+005  0.1043930E+01  0.7957747E-01            NaN
         13   -1    0    0    0    0  0.00000000000E+00  0.00000000000E+00  0.74505805969E-08  0.10566000000E+00  0.10566000000E+00 0.  1.
     999900   -1    0    0    0    0 -0.00000000000E+00 -0.00000000000E+00 -0.74505805969E-08  0.93827000000E+00  0.93827000000E+00 0. -1.
     999902    2    1    2    0    0  0.68295632132E-02 -0.23054319936E-01 -0.11378678609E-02  0.10198584536E+01  0.10195743357E+01 0.  0.
     999903    2    3    3    0    0  0.38719074370E-01 -0.10542388007E+00 -0.69000227961E-01  0.13283704167E+00  0.16470791472E-01 0.  0.
         14    1    1    2    0    0 -0.68295632132E-02  0.23054319936E-01  0.11378678609E-02  0.24071546371E-01  0.00000000000E+00 0. -1.
     999901    1    3    3    0    0 -0.31889511157E-01  0.82369560133E-01  0.67862360100E-01  0.88702141196E+00  0.88000000000E+00 0.  1.
        -11    1    4    4    0    0  0.10285628335E-01 -0.49776908288E-01 -0.34752890700E-01  0.61575638705E-01  0.51100000000E-03 0. -1.
         11    1    4    4    0    0  0.28433446035E-01 -0.55646971781E-01 -0.34247337261E-01  0.71261402963E-01  0.51100000000E-03 0.  1.
</event>
<event>
 8    1  0.1081309E+005  0.1043930E+01  0.7957747E-01            NaN
         13   -1    0    0    0    0  0.00000000000E+00  0.00000000000E+00  0.74505805969E-08  0.10566000000E+00  0.10566000000E+00 0. -1.
     999900   -1    0    0    0    0 -0.00000000000E+00 -0.00000000000E+00 -0.74505805969E-08  0.93827000000E+00  0.93827000000E+00 0. -1.
     999902    2    1    2    0    0 -0.15939089216E-01 -0.16462394338E-01 -0.66319576236E-02  0.10200752761E+01  0.10197963135E+01 0.  0.
     999903    2    3    3    0    0 -0.10732399346E+00  0.68925610641E-01 -0.23262328081E-01  0.13107646766E+00  0.19254222669E-01 0.  0.
         14    1    1    2    0    0  0.15939089216E-01  0.16462394338E-01  0.66319576236E-02  0.23854723941E-01  0.00000000000E+00 0. -1.
     999901    1    3    3    0    0  0.91384904247E-01 -0.85388004979E-01  0.16630370457E-01  0.88899880840E+00  0.88000000000E+00 0.  1.
        -11    1    4    4    0    0 -0.90147058389E-01  0.65039712541E-01 -0.17443110143E-01  0.11252190700E+00  0.51100000000E-03 0.  1.
         11    1    4    4    0    0 -0.17176935074E-01  0.38858981006E-02 -0.58192179375E-02  0.18554560652E-01  0.51100000000E-03 0. -1.
</event>
<event>
 8    1  0.1081309E+005  0.1043930E+01  0.7957747E-01            NaN
         13   -1    0    0    0    0  0.00000000000E+00  0.00000000000E+00  0.74505805969E-08  0.10566000000E+00  0.10566000000E+00 0. -1.
     999900   -1    0    0    0    0 -0.00000000000E+00 -0.00000000000E+00 -0.74505805969E-08  0.93827000000E+00  0.93827000000E+00 0. -1.
     999902    2    1    2    0    0 -0.16087479485E-01 -0.13301369854E-01 -0.12127470346E-01  0.10197885631E+01  0.10195027732E+01 0.  0.
     999903    2    3    3    0    0 -0.54676651420E-01  0.11492781638E+00 -0.14462191038E-01  0.12965525891E+00  0.20084621109E-01 0.  0.
         14    1    1    2    0    0  0.16087479485E-01  0.13301369854E-01  0.12127470346E-01  0.24141436850E-01  0.00000000000E+00 0. -1.
     999901    1    3    3    0    0  0.38589171934E-01 -0.12822918624E+00  0.23347206917E-02  0.89013330424E+00  0.88000000000E+00 0.  1.
        -11    1    4    4    0    0 -0.50727371480E-01  0.10154481746E+00 -0.18748023841E-01  0.11504940543E+00  0.51100000000E-03 0.  1.
         11    1    4    4    0    0 -0.39492799393E-02  0.13382998922E-01  0.42858328033E-02  0.14605853484E-01  0.51100000000E-03 0. -1.
</event>
<event>
 8    1  0.1081309E+005  0.1043930E+01  0.7957747E-01            NaN
         13   -1    0    0    0    0  0.00000000000E+00  0.00000000000E+00  0.74505805969E-08  0.10566000000E+00  0.10566000000E+00 0.  1.
     999900   -1    0    0    0    0 -0.00000000000E+00 -0.00000000000E+00 -0.74505805969E-08  0.93827000000E+00  0.93827000000E+00 0.  1.
     999902    2    1    2    0    0  0.16160920615E-01  0.11010892276E-01 -0.13918732986E-01  0.10199269537E+01  0.10196444697E+01 0.  0.
     999903    2    3    3    0    0  0.11682507834E+00 -0.45408822789E-01 -0.36380787044E-01  0.13210884126E+00  0.20472522001E-01 0.  0.
         14    1    1    2    0    0 -0.16160920615E-01 -0.11010892276E-01  0.13918732986E-01  0.24003046302E-01  0.00000000000E+00 0.  1.
     999901    1    3    3    0    0 -0.10066415773E+00  0.56419715065E-01  0.22462054058E-01  0.88781811244E+00  0.88000000000E+00 0.  1.
        -11    1    4    4    0    0  0.73042508909E-01 -0.24746885994E-01 -0.31991392960E-01  0.83494471785E-01  0.51100000000E-03 0. -1.
         11    1    4    4    0    0  0.43782569431E-01 -0.20661936795E-01 -0.43893940841E-02  0.48614369476E-01  0.51100000000E-03 0.  1.
</event>
<event>
 8    1  0.1312226E+005  0.1043930E+01  0.7957747E-01            NaN
         13   -1    0    0    0    0  0.00000000000E+00  0.00000000000E+00  0.74505805969E-08  0.10566000000E+00  0.10566000000E+00 0.  1.
     999900   -1    0    0    0    0 -0.00000000000E+00 -0.00000000000E+00 -0.74505805969E-08  0.93827000000E+00  0.93827000000E+00 0.  1.
     999902    2    1    2    0    0 -0.21277370559E-01  0.87163221194E-02  0.66110808172E-02  0.10200049679E+01  0.10197243390E+01 0.  0.
     999903    2    3    3    0    0  0.89139576690E-01 -0.74863701245E-01  0.49578910177E-01  0.12813964352E+00  0.20279595951E-01 0.  0.
         14    1    1    2    0    0  0.21277370559E-01 -0.87163221194E-02 -0.66110808172E-02  0.23925032054E-01  0.00000000000E+00 0. -1.
     999901    1    3    3    0    0 -0.11041694725E+00  0.83580023364E-01 -0.42967829359E-01  0.89186532442E+00  0.88000000000E+00 0.  1.
        -11    1    4    4    0    0  0.35052509043E-01 -0.42491727949E-01  0.21525956776E-01  0.59142651872E-01  0.51100000000E-03 0.  1.
         11    1    4    4    0    0  0.54087067647E-01 -0.32371973295E-01  0.28052953401E-01  0.68996991653E-01  0.51100000000E-03 0. -1.
</event>
<event>
 8    1  0.1081309E+005  0.1043930E+01  0.7957747E-01            NaN
         13   -1    0    0    0    0  0.00000000000E+00  0.00000000000E+00  0.74505805969E-08  0.10566000000E+00  0.10566000000E+00 0. -1.
     999900   -1    0    0    0    0 -0.00000000000E+00 -0.00000000000E+00 -0.74505805969E-08  0.93827000000E+00  0.93827000000E+00 0.  1.
     999902    2    1    2    0    0 -0.15066129197E-01 -0.39654446405E-03  0.16711248745E-01  0.10214264151E+01  0.10211784909E+01 0.  0.
     999903    2    3    3    0    0  0.39284202249E-02  0.93250157619E-01  0.92583547682E-01  0.13300809957E+00  0.20209326248E-01 0.  0.
         14    1    1    2    0    0  0.15066129197E-01  0.39654446405E-03 -0.16711248745E-01  0.22503584850E-01  0.00000000000E+00 0.  1.
     999901    1    3    3    0    0 -0.18994549422E-01 -0.93646702083E-01 -0.75872298937E-01  0.88841831558E+00  0.88000000000E+00 0.  1.
        -11    1    4    4    0    0 -0.44014237124E-02  0.95616522888E-02  0.52922568465E-02  0.11792659951E-01  0.51100000000E-03 0. -1.
         11    1    4    4    0    0  0.83298439373E-02  0.83688505330E-01  0.87291290835E-01  0.12121543962E+00  0.51100000000E-03 0.  1.
</event>
<event>
 8    1  0.1081309E+005  0.1043930E+01  0.7957747E-01            NaN
         13   -1    0    0    0    0  0.00000000000E+00  0.00000000000E+00  0.74505805969E-08  0.10566000000E+00  0.10566000000E+00 0. -1.
     999900   -1    0    0    0    0 -0.00000000000E+00 -0.00000000000E+00 -0.74505805969E-08  0.93827000000E+00  0.93827000000E+00 0.  1.
     999902    2    1    2    0    0 -0.23931494031E-02 -0.14839857225E-01  0.19344121618E-01  0.10194321722E+01  0.10191377778E+01 0.  0.
     999903    2    3    3    0    0 -0.11825361687E+00 -0.42805703898E-02 -0.47869597250E-01  0.12923397489E+00  0.20191105456E-01 0.  0.
         14    1    1    2    0    0  0.23931494031E-02  0.14839857225E-01 -0.19344121618E-01  0.24497827815E-01  0.00000000000E+00 0.  1.
     999901    1    3    3    0    0  0.11586046747E+00 -0.10559286835E-01  0.67213718868E-01  0.89019819729E+00  0.88000000000E+00 0. -1.
        -11    1    4    4    0    0 -0.36318772605E-01  0.28002020510E-02 -0.23900376692E-01  0.43570442987E-01  0.51100000000E-03 0. -1.
         11    1    4    4    0    0 -0.81934844266E-01 -0.70807724408E-02 -0.23969220558E-01  0.85663531905E-01  0.51100000000E-03 0.  1.
</event>
<event>
 8    1  0.1081309E+005  0.1043930E+01  0.7957747E-01            NaN
         13   -1    0    0    0    0  0.00000000000E+00  0.00000000000E+00  0.74505805969E-08  0.10566000000E+00  0.10566000000E+00 0. -1.
     999900   -1    0    0    0    0 -0.00000000000E+00 -0.00000000000E+00 -0.74505805969E-08  0.93827000000E+00  0.93827000000E+00 0. -1.
     999902    2    1    2    0    0  0.14949239616E-02 -0.12784587980E-01 -0.19514095273E-01  0.10205530797E+01  0.10202853072E+01 0.  0.
     999903    2    3    3    0    0 -0.20681646523E-01  0.60149725255E-03 -0.12968024460E+00  0.13330589431E+00  0.22921677885E-01 0.  0.
         14    1    1    2    0    0 -0.14949239616E-02  0.12784587980E-01  0.19514095273E-01  0.23376920280E-01  0.00000000000E+00 0. -1.
     999901    1    3    3    0    0  0.22176570484E-01 -0.13386085233E-01  0.11016614933E+00  0.88724718541E+00  0.88000000000E+00 0.  1.
        -11    1    4    4    0    0 -0.62991115437E-02  0.77264736673E-02 -0.89198576246E-01  0.89755358207E-01  0.51100000000E-03 0.  1.
         11    1    4    4    0    0 -0.14382534979E-01 -0.71249764147E-02 -0.40481668354E-01  0.43550536105E-01  0.51100000000E-03 0. -1.
</event>
<event>
 8    1  0.1081309E+005  0.1043930E+01  0.7957747E-01            NaN
         13   -1    0    0    0    0  0.00000000000E+00  0.00000000000E+00  0.74505805969E-08  0.10566000000E+00  0.10566000000E+00 0. -1.
     999900   -1    0    0    0    0 -0.00000000000E+00 -0.00000000000E+00 -0.74505805969E-08  0.93827000000E+00  0.93827000000E+00 0.  1.
     999902    2    1    2    0    0  0.32933513454E-01 -0.69192263340E-02 -0.50242704328E-02  0.10099044905E+01  0.10093311373E+01 0.  0.
     999903    2    3    3    0    0  0.11372212357E+00 -0.22418262349E-01  0.41954673463E-01  0.12482029068E+00  0.19611488071E-01 0.  0.
         14    1    1    2    0    0 -0.32933513454E-01  0.69192263340E-02  0.50242704328E-02  0.34025509472E-01  0.00000000000E+00 0.  1.
     999901    1    3    3    0    0 -0.80788610120E-01  0.15499036015E-01 -0.46978943896E-01  0.88508419984E+00  0.88000000000E+00 0.  1.
        -11    1    4    4    0    0  0.20160642114E-01  0.30331857872E-02  0.10108157136E-01  0.22761539231E-01  0.51100000000E-03 0. -1.
         11    1    4    4    0    0  0.93561481459E-01 -0.25451448136E-01  0.31846516327E-01  0.10205875145E+00  0.51100000000E-03 0.  1.
</event>
<event>
 8    1  0.1081309E+005  0.1043930E+01  0.7957747E-01            NaN
         13   -1    0    0    0    0  0.00000000000E+00  0.00000000000E+00  0.74505805969E-08  0.10566000000E+00  0.10566000000E+00 0. -1.
     999900   -1    0    0    0    0 -0.00000000000E+00 -0.00000000000E+00 -0.74505805969E-08  0.93827000000E+00  0.93827000000E+00 0.  1.
     999902    2    1    2    0    0  0.89328703454E-02  0.21895204831E-01  0.70423305619E-02  0.10192563179E+01  0.10189576297E+01 0.  0.
     999903    2    3    3    0    0 -0.96929041516E-01 -0.35695936898E-01  0.73924840380E-01  0.12852810231E+00  0.19625291255E-01 0.  0.
         14    1    1    2    0    0 -0.89328703454E-02 -0.21895204831E-01 -0.70423305619E-02  0.24673682071E-01  0.00000000000E+00 0.  1.
     999901    1    3    3    0    0  0.10586191186E+00  0.57591141729E-01 -0.66882509818E-01  0.89072821562E+00  0.88000000000E+00 0. -1.
        -11    1    4    4    0    0 -0.30463683528E-01 -0.15708830323E-01  0.34823026563E-01  0.48864175673E-01  0.51100000000E-03 0.  1.
         11    1    4    4    0    0 -0.66465357988E-01 -0.19987106575E-01  0.39101813816E-01  0.79663926632E-01  0.51100000000E-03 0. -1.
</event>
<event>
 8    1  0.1081309E+005  0.1043930E+01  0.7957747E-01            NaN
         13   -1    0    0    0    0  0.00000000000E+00  0.00000000000E+00  0.74505805969E-08  0.10566000000E+00  0.10566000000E+00 0.  1.
     999900   -1    0    0    0    0 -0.00000000000E+00 -0.00000000000E+00 -0.74505805969E-08  0.93827000000E+00  0.93827000000E+00 0.  1.
     999902    2    1    2    0    0 -0.46661176742E-03 -0.62172950133E-02 -0.22188953923E-01  0.10208817428E+01  0.10206215315E+01 0.  0.
     999903    2    3    3    0    0 -0.60464125043E-01 -0.97011684439E-01 -0.65267291982E-01  0.13313230407E+00  0.19930219514E-01 0.  0.
         14    1    1    2    0    0  0.46661176742E-03  0.62172950133E-02  0.22188953923E-01  0.23048257201E-01  0.00000000000E+00 0.  1.
     999901    1    3    3    0    0  0.59997513276E-01  0.90794389426E-01  0.43078338059E-01  0.88774943873E+00  0.88000000000E+00 0. -1.
        -11    1    4    4    0    0 -0.50178245699E-01 -0.76952703114E-01 -0.60744173311E-01  0.11013487445E+00  0.51100000000E-03 0.  1.
         11    1    4    4    0    0 -0.10285879344E-01 -0.20058981325E-01 -0.45231186712E-02  0.22997429622E-01  0.51100000000E-03 0. -1.
</event>
<event>
 8    1  0.1081309E+005  0.1043930E+01  0.7957747E-01            NaN
         13   -1    0    0    0    0  0.00000000000E+00  0.00000000000E+00  0.74505805969E-08  0.10566000000E+00  0.10566000000E+00 0.  1.
     999900   -1    0    0    0    0 -0.00000000000E+00 -0.00000000000E+00 -0.74505805969E-08  0.93827000000E+00  0.93827000000E+00 0. -1.
     999902    2    1    2    0    0  0.21364861235E-02  0.22867576364E-01 -0.54430133578E-02  0.10203266736E+01  0.10200536279E+01 0.  0.
     999903    2    3    3    0    0  0.90656451643E-01 -0.60305455500E-01  0.64803470525E-01  0.12921046009E+00  0.25308358626E-01 0.  0.
         14    1    1    2    0    0 -0.21364861235E-02 -0.22867576364E-01  0.54430133578E-02  0.23603326379E-01  0.00000000000E+00 0.  1.
     999901    1    3    3    0    0 -0.88519965519E-01  0.83173031864E-01 -0.70246483883E-01  0.89111621353E+00  0.88000000000E+00 0.  1.
        -11    1    4    4    0    0  0.49550728882E-01 -0.33193981730E-01  0.20788420279E-01  0.63162763512E-01  0.51100000000E-03 0.  1.
         11    1    4    4    0    0  0.41105722761E-01 -0.27111473771E-01  0.44015050247E-01  0.66047696576E-01  0.51100000000E-03 0. -1.
</event>
<event>
 8    1  0.1081309E+005  0.1043930E+01  0.7957747E-01            NaN
         13   -1    0    0    0    0  0.00000000000E+00  0.00000000000E+00  0.74505805969E-08  0.10566000000E+00  0.10566000000E+00 0. -1.
     999900   -1    0    0    0    0 -0.00000000000E+00 -0.00000000000E+00 -0.74505805969E-08  0.93827000000E+00  0.93827000000E+00 0.  1.
     999902    2    1    2    0    0  0.17194634811E-02  0.17941668624E-01  0.15177492952E-01  0.10203669713E+01  0.10200948681E+01 0.  0.
     999903    2    3    3    0    0 -0.90884931241E-01  0.78959296298E-01  0.52158930496E-01  0.13263595828E+00  0.19419119454E-01 0.  0.
         14    1    1    2    0    0 -0.17194634811E-02 -0.17941668624E-01 -0.15177492952E-01  0.23563028668E-01  0.00000000000E+00 0.  1.
     999901    1    3    3    0    0  0.92604394722E-01 -0.61017627674E-01 -0.36981437544E-01  0.88773101305E+00  0.88000000000E+00 0.  1.
        -11    1    4    4    0    0 -0.67523959374E-01  0.56122931091E-01  0.28559925664E-01  0.92332003979E-01  0.51100000000E-03 0.  1.
         11    1    4    4    0    0 -0.23360971866E-01  0.22836365207E-01  0.23599004832E-01  0.40303954303E-01  0.51100000000E-03 0. -1.
</event>
<event>
 8    1  0.1081309E+005  0.1043930E+01  0.7957747E-01            NaN
         13   -1    0    0    0    0  0.00000000000E+00  0.00000000000E+00  0.74505805969E-08  0.10566000000E+00  0.10566000000E+00 0. -1.
     999900   -1    0    0    0    0 -0.00000000000E+00 -0.00000000000E+00 -0.74505805969E-08  0.93827000000E+00  0.93827000000E+00 0. -1.
     999902    2    1    2    0    0  0.14469900314E-01 -0.17871446322E-01  0.82920182516E-02  0.10194856924E+01  0.10191925985E+01 0.  0.
     999903    2    3    3    0    0 -0.41697428578E-01  0.11568049273E+00  0.27334162848E-01  0.12743552981E+00  0.19287453171E-01 0.  0.
         14    1    1    2    0    0 -0.14469900314E-01  0.17871446322E-01 -0.82920182516E-02  0.24444307628E-01  0.00000000000E+00 0.  1.
     999901    1    3    3    0    0  0.56167328892E-01 -0.13355193905E+00 -0.19042144596E-01  0.89205016256E+00  0.88000000000E+00 0. -1.
        -11    1    4    4    0    0 -0.39899253144E-01  0.87412246291E-01  0.22625527703E-01  0.98716902442E-01  0.51100000000E-03 0.  1.
         11    1    4    4    0    0 -0.17981754344E-02  0.28268246442E-01  0.47086351452E-02  0.28718627365E-01  0.51100000000E-03 0. -1.
</event>
<event>
 8    1  0.1081309E+005  0.1043930E+01  0.7957747E-01            NaN
         13   -1    0    0    0    0  0.00000000000E+00  0.00000000000E+00  0.74505805969E-08  0.10566000000E+00  0.10566000000E+00 0.  1.
     999900   -1    0    0    0    0 -0.00000000000E+00 -0.00000000000E+00 -0.74505805969E-08  0.93827000000E+00  0.93827000000E+00 0. -1.
     999902    2    1    2    0    0  0.91919003778E-02 -0.15037910856E-01  0.21370074063E-01  0.10162296415E+01  0.10158520436E+01 0.  0.
     999903    2    3    3    0    0 -0.79310207930E-01  0.93733959565E-01 -0.83879950246E-02  0.12463024399E+00  0.19651335799E-01 0.  0.
         14    1    1    2    0    0 -0.91919003778E-02  0.15037910856E-01 -0.21370074063E-01  0.27700358498E-01  0.00000000000E+00 0. -1.
     999901    1    3    3    0    0  0.88502108308E-01 -0.10877187042E+00  0.29758069087E-01  0.89159939751E+00  0.88000000000E+00 0.  1.
        -11    1    4    4    0    0 -0.60610941048E-01  0.75031246547E-01  0.12879950290E-02  0.96463952777E-01  0.51100000000E-03 0. -1.
         11    1    4    4    0    0 -0.18699266882E-01  0.18702713018E-01 -0.96759900536E-02  0.28166291212E-01  0.51100000000E-03 0.  1.
</event>
<event>
 8    1  0.1081309E+005  0.1043930E+01  0.7957747E-01            NaN
         13   -1    0    0    0    0  0.00000000000E+00  0.00000000000E+00  0.74505805969E-08  0.10566000000E+00  0.10566000000E+00 0. -1.
     999900   -1    0    0    0    0 -0.00000000000E+00 -0.00000000000E+00 -0.74505805969E-08  0.93827000000E+00  0.93827000000E+00 0. -1.
     999902    2    1    2    0    0  0.21798735223E-02 -0.97315830560E-02  0.20688821253E-01  0.10209630045E+01  0.10207046457E+01 0.  0.
     999903    2    3    3    0    0 -0.68672973471E-02 -0.90694089751E-01 -0.91076589781E-01  0.13016095809E+00  0.19348181205E-01 0.  0.
         14    1    1    2    0    0 -0.21798735223E-02  0.97315830560E-02 -0.20688821253E-01  0.22966995497E-01  0.00000000000E+00 0.  1.
     999901    1    3    3    0    0  0.90471708694E-02  0.80962506695E-01  0.11176541103E+00  0.89080204641E+00  0.88000000000E+00 0.  1.
        -11    1    4    4    0    0 -0.90638483993E-02 -0.40786542782E-01 -0.31013040271E-01  0.52036191327E-01  0.51100000000E-03 0. -1.
         11    1    4    4    0    0  0.21965510522E-02 -0.49907546969E-01 -0.60063549509E-01  0.78124766762E-01  0.51100000000E-03 0.  1.
</event>
<event>
 8    1  0.1081309E+005  0.1043930E+01  0.7957747E-01            NaN
         13   -1    0    0    0    0  0.00000000000E+00  0.00000000000E+00  0.74505805969E-08  0.10566000000E+00  0.10566000000E+00 0. -1.
     999900   -1    0    0    0    0 -0.00000000000E+00 -0.00000000000E+00 -0.74505805969E-08  0.93827000000E+00  0.93827000000E+00 0. -1.
     999902    2    1    2    0    0 -0.19753129687E-01 -0.14037308341E-01 -0.20874886674E-02  0.10196073816E+01  0.10193172336E+01 0.  0.
     999903    2    3    3    0    0 -0.89487665414E-02 -0.14330382143E-01 -0.12800047642E+00  0.13057931642E+00  0.19529353227E-01 0.  0.
         14    1    1    2    0    0  0.19753129687E-01  0.14037308341E-01  0.20874886674E-02  0.24322618420E-01  0.00000000000E+00 0. -1.
     999901    1    3    3    0    0 -0.10804363146E-01  0.29307380163E-03  0.12591298776E+00  0.88902806516E+00  0.88000000000E+00 0.  1.
        -11    1    4    4    0    0 -0.12240171341E-01 -0.12352621251E-01 -0.60072910896E-01  0.62541384625E-01  0.51100000000E-03 0. -1.
         11    1    4    4    0    0  0.32914047998E-02 -0.19777608915E-02 -0.67927565526E-01  0.68037931796E-01  0.51100000000E-03 0.  1.
</event>
<event>
 8    1  0.1081309E+005  0.1043930E+01  0.7957747E-01            NaN
         13   -1    0    0    0    0  0.00000000000E+00  0.00000000000E+00  0.74505805969E-08  0.10566000000E+00  0.10566000000E+00 0.  1.
     999900   -1    0    0    0    0 -0.00000000000E+00 -0.00000000000E+00 -0.74505805969E-08  0.93827000000E+00  0.93827000000E+00 0. -1.
     999902    2    1    2    0    0 -0.25202827386E-01  0.10023022454E-01  0.38529684799E-03  0.10168045149E+01  0.10164426347E+01 0.  0.
     999903    2    3    3    0    0  0.24266697681E-01 -0.81454757544E-01 -0.90754930234E-01  0.12600601967E+00  0.20428154297E-01 0.  0.
         14    1    1    2    0    0  0.25202827386E-01 -0.10023022454E-01 -0.38529684799E-03  0.27125485083E-01  0.00000000000E+00 0. -1.
     999901    1    3    3    0    0 -0.49469525067E-01  0.91477779998E-01  0.91140227082E-01  0.89079849525E+00  0.88000000000E+00 0.  1.
        -11    1    4    4    0    0  0.26371843014E-01 -0.66371315303E-01 -0.67963029124E-01  0.98589350580E-01  0.51100000000E-03 0.  1.
         11    1    4    4    0    0 -0.21051453327E-02 -0.15083442240E-01 -0.22791901111E-01  0.27416669089E-01  0.51100000000E-03 0. -1.
</event>
<event>
 8    1  0.1081309E+005  0.1043930E+01  0.7957747E-01            NaN
         13   -1    0    0    0    0  0.00000000000E+00  0.00000000000E+00  0.74505805969E-08  0.10566000000E+00  0.10566000000E+00 0.  1.
     999900   -1    0    0    0    0 -0.00000000000E+00 -0.00000000000E+00 -0.74505805969E-08  0.93827000000E+00  0.93827000000E+00 0.  1.
     999902    2    1    2    0    0  0.22897778553E-01  0.51098614897E-02 -0.54230561555E-02  0.10198503720E+01  0.10195660610E+01 0.  0.
     999903    2    3    3    0    0 -0.37770920491E-01 -0.10910260436E+00  0.52544492208E-01  0.12851125860E+00  0.20596097018E-01 0.  0.
         14    1    1    2    0    0 -0.22897778553E-01 -0.51098614897E-02  0.54230561555E-02  0.24079628011E-01  0.00000000000E+00 0. -1.
     999901    1    3    3    0    0  0.60668699044E-01  0.11421246585E+00 -0.57967548364E-01  0.89133911339E+00  0.88000000000E+00 0.  1.
        -11    1    4    4    0    0 -0.12346246480E-01 -0.13320093576E-01  0.87040072637E-02  0.20146353478E-01  0.51100000000E-03 0.  1.
         11    1    4    4    0    0 -0.25424674011E-01 -0.95782510782E-01  0.43840484945E-01  0.10836490512E+00  0.51100000000E-03 0. -1.
</event>
<event>
 8    1  0.1081309E+005  0.1043930E+01  0.7957747E-01            NaN
         13   -1    0    0    0    0  0.00000000000E+00  0.00000000000E+00  0.74505805969E-08  0.10566000000E+00  0.10566000000E+00 0.  1.
     999900   -1    0    0    0    0 -0.00000000000E+00 -0.00000000000E+00 -0.74505805969E-08  0.93827000000E+00  0.93827000000E+00 0.  1.
     999902    2    1    2    0    0  0.20023472462E-01 -0.12557527122E-01  0.41912388404E-02  0.10199258874E+01  0.10196433781E+01 0.  0.
     999903    2    3    3    0    0 -0.22475344712E-01  0.12240968212E+00  0.24948164759E-01  0.12838051731E+00  0.19232132014E-01 0.  0.
         14    1    1    2    0    0 -0.20023472462E-01  0.12557527122E-01 -0.41912388404E-02  0.24004112562E-01  0.00000000000E+00 0. -1.
     999901    1    3    3    0    0  0.42498817174E-01 -0.13496720924E+00 -0.20756925919E-01  0.89154537013E+00  0.88000000000E+00 0.  1.
        -11    1    4    4    0    0 -0.10842070540E-02  0.14536242636E-01  0.92987210574E-02  0.17297548647E-01  0.51100000000E-03 0. -1.
         11    1    4    4    0    0 -0.21391137658E-01  0.10787343949E+00  0.15649443702E-01  0.11108296866E+00  0.51100000000E-03 0.  1.
</event>
<event>
 8    1  0.1081309E+005  0.1043930E+01  0.7957747E-01            NaN
         13   -1    0    0    0    0  0.00000000000E+00  0.00000000000E+00  0.74505805969E-08  0.10566000000E+00  0.10566000000E+00 0. -1.
     999900   -1    0    0    0    0 -0.00000000000E+00 -0.00000000000E+00 -0.74505805969E-08  0.93827000000E+00  0.93827000000E+00 0.  1.
     999902    2    1    2    0    0 -0.20397747857E-01  0.86613165419E-02 -0.80201773183E-02  0.10203628668E+01  0.10200906677E+01 0.  0.
     999903    2    3    3    0    0  0.79185856229E-01  0.35132657878E-02 -0.10080280817E+00  0.12988433636E+00  0.20639569614E-01 0.  0.
         14    1    1    2    0    0  0.20397747857E-01 -0.86613165419E-02  0.80201773183E-02  0.23567133175E-01  0.00000000000E+00 0.  1.
     999901    1    3    3    0    0 -0.99583604086E-01  0.51480507541E-02  0.92782630851E-01  0.89047853046E+00  0.88000000000E+00 0. -1.
        -11    1    4    4    0    0  0.29852115516E-01 -0.38515871212E-02 -0.24950753035E-01  0.39099676753E-01  0.51100000000E-03 0.  1.
         11    1    4    4    0    0  0.49333740713E-01  0.73648529090E-02 -0.75852055134E-01  0.90784659608E-01  0.51100000000E-03 0. -1.
</event>
<event>
 8    1  0.1081309E+005  0.1043930E+01  0.7957747E-01            NaN
         13   -1    0    0    0    0  0.00000000000E+00  0.00000000000E+00  0.74505805969E-08  0.10566000000E+00  0.10566000000E+00 0. -1.
     999900   -1    0    0    0    0 -0.00000000000E+00 -0.00000000000E+00 -0.74505805969E-08  0.93827000000E+00  0.93827000000E+00 0. -1.
     999902    2    1    2    0    0  0.14331487230E-01 -0.21806845386E-01 -0.27186644347E-02  0.10176941244E+01  0.10173558914E+01 0.  0.
     999903    2    3    3    0    0 -0.16734545929E-01  0.56862783982E-01 -0.11048616753E+00  0.12709441425E+00  0.20793645410E-01 0.  0.
         14    1    1    2    0    0 -0.14331487230E-01  0.21806845386E-01  0.27186644347E-02  0.26235875594E-01  0.00000000000E+00 0. -1.
     999901    1    3    3    0    0  0.31066033159E-01 -0.78669629368E-01  0.10776750309E+00  0.89059971015E+00  0.88000000000E+00 0.  1.
        -11    1    4    4    0    0 -0.11268824066E-01  0.11065230000E-01 -0.19623773347E-01  0.25194827091E-01  0.51100000000E-03 0.  1.
         11    1    4    4    0    0 -0.54657218622E-02  0.45797553983E-01 -0.90862394182E-01  0.10189958716E+00  0.51100000000E-03 0. -1.
</event>
<event>
 8    1  0.1081309E+005  0.1043930E+01  0.7957747E-01            NaN
         13   -1    0    0    0    0  0.00000000000E+00  0.00000000000E+00  0.74505805969E-08  0.10566000000E+00  0.10566000000E+00 0. -1.
     999900   -1    0    0    0    0 -0.00000000000E+00 -0.00000000000E+00 -0.74505805969E-08  0.93827000000E+00  0.93827000000E+00 0. -1.
     999902    2    1    2    0    0  0.12892009004E-01  0.76014163747E-02  0.17460668198E-01  0.10209330358E+01  0.10206739946E+01 0.  0.
     999903    2    3    3    0    0 -0.43115893888E-01 -0.10689311299E-01 -0.11881282045E+00  0.12849709997E+00  0.20537203229E-01 0.  0.
         14    1    1    2    0    0 -0.12892009004E-01 -0.76014163747E-02 -0.17460668198E-01  0.22996964168E-01  0.00000000000E+00 0.  1.
     999901    1    3    3    0    0  0.56007902892E-01  0.18290727674E-01  0.13627348865E+00  0.89243593586E+00  0.88000000000E+00 0.  1.
        -11    1    4    4    0    0 -0.26528438500E-01 -0.16627672822E-01 -0.76200227585E-01  0.82383089028E-01  0.51100000000E-03 0. -1.
         11    1    4    4    0    0 -0.16587455389E-01  0.59383615230E-02 -0.42612592864E-01  0.46114010945E-01  0.51100000000E-03 0.  1.
</event>
<event>
 8    1  0.1081309E+005  0.1043930E+01  0.7957747E-01            NaN
         13   -1    0    0    0    0  0.00000000000E+00  0.00000000000E+00  0.74505805969E-08  0.10566000000E+00  0.10566000000E+00 0. -1.
     999900   -1    0    0    0    0 -0.00000000000E+00 -0.00000000000E+00 -0.74505805969E-08  0.93827000000E+00  0.93827000000E+00 0.  1.
     999902    2    1    2    0    0  0.58012948253E-02 -0.10159400240E-01  0.17933858497E-01  0.10225175803E+01  0.10222933583E+01 0.  0.
     999903    2    3    3    0    0  0.68718015677E-01  0.10485561461E+00 -0.33333729738E-01  0.13132998337E+00  0.20483197978E-01 0.  0.
         14    1    1    2    0    0 -0.58012948253E-02  0.10159400240E-01 -0.17933858497E-01  0.21412419655E-01  0.00000000000E+00 0.  1.
     999901    1    3    3    0    0 -0.62916720852E-01 -0.11501501485E+00  0.51267588236E-01  0.89118759698E+00  0.88000000000E+00 0. -1.
        -11    1    4    4    0    0  0.48675690830E-01  0.65356179527E-01 -0.12746212328E-01  0.82483211200E-01  0.51100000000E-03 0. -1.
         11    1    4    4    0    0  0.20042324847E-01  0.39499435082E-01 -0.20587517410E-01  0.48846772168E-01  0.51100000000E-03 0.  1.
</event>
<event>
 8    1  0.1081309E+005  0.1043930E+01  0.7957747E-01            NaN
         13   -1    0    0    0    0  0.00000000000E+00  0.00000000000E+00  0.74505805969E-08  0.10566000000E+00  0.10566000000E+00 0.  1.
     999900   -1    0    0    0    0 -0.00000000000E+00 -0.00000000000E+00 -0.74505805969E-08  0.93827000000E+00  0.93827000000E+00 0. -1.
     999902    2    1    2    0    0  0.23441813064E-01  0.40450982799E-03  0.15675341191E-02  0.10204323535E+01  0.10201617757E+01 0.  0.
     999903    2    3    3    0    0 -0.67294450604E-01 -0.59150735154E-01  0.90694865711E-01  0.12929623708E+00  0.21554714223E-01 0.  0.
         14    1    1    2    0    0 -0.23441813064E-01 -0.40450982799E-03 -0.15675341191E-02  0.23497646502E-01  0.00000000000E+00 0. -1.
     999901    1    3    3    0    0  0.90736263667E-01  0.59555244982E-01 -0.89127331592E-01  0.89113611642E+00  0.88000000000E+00 0. -1.
        -11    1    4    4    0    0 -0.58467995997E-01 -0.39891803506E-01  0.73090937994E-01  0.10174678806E+00  0.51100000000E-03 0.  1.
         11    1    4    4    0    0 -0.88264546063E-02 -0.19258931648E-01  0.17603927717E-01  0.27549449018E-01  0.51100000000E-03 0. -1.
</event>
<event>
 7    1  0.1081309E+005  0.1043930E+01  0.7957747E-01            NaN
         13   -1    0    0    0    0  0.00000000000E+00  0.00000000000E+00  0.74505805969E-08  0.10566000000E+00  0.10566000000E+00 0. -1.
     999900   -1    0    0    0    0 -0.00000000000E+00 -0.00000000000E+00 -0.74505805969E-08  0.93827000000E+00  0.93827000000E+00 0.  1.
     999903    2    1    2    0    0  0.97150318460E-01  0.37082557715E-01 -0.17477441466E-01  0.10743098838E+00  0.20558595287E-01 0.  0.
         14    1    1    2    0    0 -0.17248223325E-01  0.18857169153E-01 -0.41946381259E-01  0.49118152827E-01  0.00000000000E+00 0.  1.
     999901    1    1    2    0    0 -0.79902095135E-01 -0.55939726868E-01  0.59423822726E-01  0.88738085880E+00  0.88000000000E+00 0.  1.
        -11    1    3    3    0    0  0.22399300583E-01  0.92711460178E-02  0.45847485848E-02  0.24677193026E-01  0.51100000000E-03 0. -1.
         11    1    3    3    0    0  0.74751017877E-01  0.27811411697E-01 -0.22062190051E-01  0.82753795352E-01  0.51100000000E-03 0.  1.
</event>
<event>
 8    1  0.1081309E+005  0.1043930E+01  0.7957747E-01            NaN
         13   -1    0    0    0    0  0.00000000000E+00  0.00000000000E+00  0.74505805969E-08  0.10566000000E+00  0.10566000000E+00 0. -1.
     999900   -1    0    0    0    0 -0.00000000000E+00 -0.00000000000E+00 -0.74505805969E-08  0.93827000000E+00  0.93827000000E+00 0.  1.
     999902    2    1    2    0    0  0.10068172606E-01 -0.11763841244E-01  0.17201552735E-01  0.10207858976E+01  0.10205234927E+01 0.  0.
     999903    2    3    3    0    0 -0.39321806571E-01 -0.10345142622E+00  0.70989556824E-01  0.13301389269E+00  0.20119055897E-01 0.  0.
         14    1    1    2    0    0 -0.10068172606E-01  0.11763841244E-01 -0.17201552735E-01  0.23144102422E-01  0.00000000000E+00 0.  1.
     999901    1    3    3    0    0  0.49389979176E-01  0.91687584980E-01 -0.53788004089E-01  0.88777200489E+00  0.88000000000E+00 0. -1.
        -11    1    4    4    0    0 -0.23165400422E-01 -0.57645793091E-01  0.51415273842E-01  0.80644062045E-01  0.51100000000E-03 0. -1.
         11    1    4    4    0    0 -0.16156406149E-01 -0.45805633133E-01  0.19574282982E-01  0.52369830643E-01  0.51100000000E-03 0.  1.
</event>
<event>
 8    1  0.1081309E+005  0.1043930E+01  0.7957747E-01            NaN
         13   -1    0    0    0    0  0.00000000000E+00  0.00000000000E+00  0.74505805969E-08  0.10566000000E+00  0.10566000000E+00 0.  1.
     999900   -1    0    0    0    0 -0.00000000000E+00 -0.00000000000E+00 -0.74505805969E-08  0.93827000000E+00  0.93827000000E+00 0.  1.
     999902    2    1    2    0    0 -0.20001445931E-01 -0.99432446520E-02  0.24613876262E-02  0.10214581424E+01  0.10212109245E+01 0.  0.
     999903    2    3    3    0    0 -0.86040834422E-01 -0.32638631665E-01  0.95138648372E-01  0.13384034400E+00  0.19838593809E-01 0.  0.
         14    1    1    2    0    0  0.20001445931E-01  0.99432446520E-02 -0.24613876262E-02  0.22471857569E-01  0.00000000000E+00 0. -1.
     999901    1    3    3    0    0  0.66039388491E-01  0.22695387013E-01 -0.92677260746E-01  0.88761779843E+00  0.88000000000E+00 0.  1.
        -11    1    4    4    0    0 -0.75308668325E-01 -0.21816685053E-01  0.84330646442E-01  0.11514895710E+00  0.51100000000E-03 0. -1.
         11    1    4    4    0    0 -0.10732166096E-01 -0.10821946612E-01  0.10808001930E-01  0.18691386902E-01  0.51100000000E-03 0.  1.
</event>
<event>
 8    1  0.1081309E+005  0.1043930E+01  0.7957747E-01            NaN
         13   -1    0    0    0    0  0.00000000000E+00  0.00000000000E+00  0.74505805969E-08  0.10566000000E+00  0.10566000000E+00 0. -1.
     999900   -1    0    0    0    0 -0.00000000000E+00 -0.00000000000E+00 -0.74505805969E-08  0.93827000000E+00  0.93827000000E+00 0. -1.
     999902    2    1    2    0    0 -0.23123003162E-01  0.13084991708E-01  0.88120159722E-02  0.10159381814E+01  0.10155524834E+01 0.  0.
     999903    2    3    3    0    0 -0.37693480963E-01  0.12123415528E+00 -0.10717847024E-01  0.12898273948E+00  0.20078743079E-01 0.  0.
         14    1    1    2    0    0  0.23123003162E-01 -0.13084991708E-01 -0.88120159722E-02  0.27991818603E-01  0.00000000000E+00 0. -1.
     999901    1    3    3    0    0  0.14570477800E-01 -0.10814916357E+00  0.19529862996E-01  0.88695544192E+00  0.88000000000E+00 0.  1.
        -11    1    4    4    0    0 -0.25418404281E-01  0.60301909181E-01  0.22714277615E-02  0.65481570172E-01  0.51100000000E-03 0. -1.
         11    1    4    4    0    0 -0.12275076682E-01  0.60932246101E-01 -0.12989274785E-01  0.63501169304E-01  0.51100000000E-03 0.  1.
</event>
<event>
 8    1  0.1081309E+005  0.1043930E+01  0.7957747E-01            NaN
         13   -1    0    0    0    0  0.00000000000E+00  0.00000000000E+00  0.74505805969E-08  0.10566000000E+00  0.10566000000E+00 0.  1.
     999900   -1    0    0    0    0 -0.00000000000E+00 -0.00000000000E+00 -0.74505805969E-08  0.93827000000E+00  0.93827000000E+00 0.  1.
     999902    2    1    2    0    0 -0.69003531814E-02 -0.59038808958E-02  0.22647753668E-01  0.10195293560E+01  0.10192373209E+01 0.  0.
     999903    2    3    3    0    0 -0.60832633656E-01 -0.11027567659E+00 -0.27184646779E-01  0.13032441290E+00  0.19598811522E-01 0.  0.
         14    1    1    2    0    0  0.69003531814E-02  0.59038808958E-02 -0.22647753668E-01  0.24400644046E-01  0.00000000000E+00 0. -1.
     999901    1    3    3    0    0  0.53932280474E-01  0.10437179569E+00  0.49832400447E-01  0.88920494305E+00  0.88000000000E+00 0. -1.
        -11    1    4    4    0    0 -0.21581408872E-01 -0.37129476168E-01 -0.18816106736E-01  0.46889894467E-01  0.51100000000E-03 0.  1.
         11    1    4    4    0    0 -0.39251224783E-01 -0.73146200421E-01 -0.83685400432E-02  0.83434518435E-01  0.51100000000E-03 0. -1.
</event>
<event>
 8    1  0.1081309E+005  0.1043930E+01  0.7957747E-01            NaN
         13   -1    0    0    0    0  0.00000000000E+00  0.00000000000E+00  0.74505805969E-08  0.10566000000E+00  0.10566000000E+00 0. -1.
     999900   -1    0    0    0    0 -0.00000000000E+00 -0.00000000000E+00 -0.74505805969E-08  0.93827000000E+00  0.93827000000E+00 0.  1.
     999902    2    1    2    0    0 -0.12072059592E-02  0.20052785777E-01 -0.10231235742E-01  0.10213856049E+01  0.10211367706E+01 0.  0.
     999903    2    3    3    0    0  0.65472969631E-01  0.11022198883E+00  0.30182751288E-01  0.13334843154E+00  0.20861666860E-01 0.  0.
         14    1    1    2    0    0  0.12072059592E-02 -0.20052785777E-01  0.10231235742E-01  0.22544395056E-01  0.00000000000E+00 0.  1.
     999901    1    3    3    0    0 -0.66680175591E-01 -0.90169203058E-01 -0.40413987030E-01  0.88803717340E+00  0.88000000000E+00 0. -1.
        -11    1    4    4    0    0  0.35661869216E-01  0.70639778959E-01  0.27299564745E-01  0.83709465675E-01  0.51100000000E-03 0. -1.
         11    1    4    4    0    0  0.29811100415E-01  0.39582209876E-01  0.28831865433E-02  0.49638965866E-01  0.51100000000E-03 0.  1.
</event>
<event>
 8    1  0.1081309E+005  0.1043930E+01  0.7957747E-01            NaN
         13   -1    0    0    0    0  0.00000000000E+00  0.00000000000E+00  0.74505805969E-08  0.10566000000E+00  0.10566000000E+00 0. -1.
     999900   -1    0    0    0    0 -0.00000000000E+00 -0.00000000000E+00 -0.74505805969E-08  0.93827000000E+00  0.93827000000E+00 0. -1.
     999902    2    1    2    0    0 -0.60683462152E-02 -0.19230411992E-01  0.12159873762E-01  0.10203822591E+01  0.10201105129E+01 0.  0.
     999903    2    3    3    0    0 -0.12422016488E+00  0.11448862799E-01  0.36655337749E-01  0.13161845589E+00  0.20446963664E-01 0.  0.
         14    1    1    2    0    0  0.60683462152E-02  0.19230411992E-01 -0.12159873762E-01  0.23547740892E-01  0.00000000000E+00 0.  1.
     999901    1    3    3    0    0  0.11815181866E+00 -0.30679274791E-01 -0.24495463987E-01  0.88876380322E+00  0.88000000000E+00 0. -1.
        -11    1    4    4    0    0 -0.60258758517E-01  0.33002282352E-02  0.73709429498E-02  0.60799682610E-01  0.51100000000E-03 0. -1.
         11    1    4    4    0    0 -0.63961406363E-01  0.81486345638E-02  0.29284394799E-01  0.70818773280E-01  0.51100000000E-03 0.  1.
</event>
<event>
 8    1  0.1081309E+005  0.1043930E+01  0.7957747E-01            NaN
         13   -1    0    0    0    0  0.00000000000E+00  0.00000000000E+00  0.74505805969E-08  0.10566000000E+00  0.10566000000E+00 0. -1.
     999900   -1    0    0    0    0 -0.00000000000E+00 -0.00000000000E+00 -0.74505805969E-08  0.93827000000E+00  0.93827000000E+00 0.  1.
     999902    2    1    2    0    0  0.16151505694E-01 -0.10079774074E-01  0.15908368236E-01  0.10191197368E+01  0.10188176916E+01 0.  0.
     999903    2    3    3    0    0 -0.92955340140E-01  0.21667426695E-01  0.84828077689E-01  0.12914102078E+00  0.19272463359E-01 0.  0.
         14    1    1    2    0    0 -0.16151505694E-01  0.10079774074E-01 -0.15908368236E-01  0.24810263229E-01  0.00000000000E+00 0.  1.
     999901    1    3    3    0    0  0.10910684583E+00 -0.31747200768E-01 -0.68919709453E-01  0.88997871599E+00  0.88000000000E+00 0.  1.
        -11    1    4    4    0    0 -0.75767165069E-01  0.24138157111E-01  0.74282026966E-01  0.10881817212E+00  0.51100000000E-03 0. -1.
         11    1    4    4    0    0 -0.17188175070E-01 -0.24707304160E-02  0.10546050722E-01  0.20322848665E-01  0.51100000000E-03 0.  1.
</event>
<event>
 7    1  0.1081309E+005  0.1043930E+01  0.7957747E-01            NaN
         13   -1    0    0    0    0  0.00000000000E+00  0.00000000000E+00  0.74505805969E-08  0.10566000000E+00  0.10566000000E+00 0. -1.
     999900   -1    0    0    0    0 -0.00000000000E+00 -0.00000000000E+00 -0.74505805969E-08  0.93827000000E+00  0.93827000000E+00 0. -1.
     999902    2    1    2    0    0  0.38149880209E-02  0.23051190193E-01  0.31730154116E-02  0.10203507818E+01  0.10200783002E+01 0.  0.
         14    1    1    2    0    0 -0.38149880209E-02 -0.23051190193E-01 -0.31730154116E-02  0.23579218174E-01  0.00000000000E+00 0. -1.
     999901    1    3    3    0    0  0.97269397448E-01  0.10580235465E+00  0.31660548510E-01  0.89222074862E+00  0.88000000000E+00 0.  1.
        -11    1    3    3    0    0 -0.48121904091E-01 -0.39392750174E-01 -0.14102581412E-01  0.63770293579E-01  0.51100000000E-03 0. -1.
         11    1    3    3    0    0 -0.45332505336E-01 -0.43358414284E-01 -0.14384951686E-01  0.64359739630E-01  0.51100000000E-03 0.  1.
</event>
<event>
 8    1  0.1081309E+005  0.1043930E+01  0.7957747E-01            NaN
         13   -1    0    0    0    0  0.00000000000E+00  0.00000000000E+00  0.74505805969E-08  0.10566000000E+00  0.10566000000E+00 0. -1.
     999900   -1    0    0    0    0 -0.00000000000E+00 -0.00000000000E+00 -0.74505805969E-08  0.93827000000E+00  0.93827000000E+00 0. -1.
     999902    2    1    2    0    0 -0.37589499202E-02 -0.23741808769E-01 -0.13071437898E-02  0.10198569484E+01  0.10195727946E+01 0.  0.
     999903    2    3    3    0    0  0.91128137903E-01 -0.89053438192E-01 -0.27183810128E-01  0.13197251323E+00  0.21045957874E-01 0.  0.
         14    1    1    2    0    0  0.37589499202E-02  0.23741808769E-01  0.13071437898E-02  0.24073051594E-01  0.00000000000E+00 0. -1.
     999901    1    3    3    0    0 -0.94887087823E-01  0.65311629423E-01  0.25876666338E-01  0.88788443518E+00  0.88000000000E+00 0.  1.
        -11    1    4    4    0    0  0.72938361324E-01 -0.64348491732E-01 -0.12872241682E-01  0.98115690222E-01  0.51100000000E-03 0. -1.
         11    1    4    4    0    0  0.18189776579E-01 -0.24704946461E-01 -0.14311568446E-01  0.33856823005E-01  0.51100000000E-03 0.  1.
</event>
<event>
 8    1  0.1081309E+005  0.1043930E+01  0.7957747E-01            NaN
         13   -1    0    0    0    0  0.00000000000E+00  0.00000000000E+00  0.74505805969E-08  0.10566000000E+00  0.10566000000E+00 0.  1.
     999900   -1    0    0    0    0 -0.00000000000E+00 -0.00000000000E+00 -0.74505805969E-08  0.93827000000E+00  0.93827000000E+00 0.  1.
     999902    2    1    2    0    0 -0.16536671796E-01  0.13301323245E-01 -0.92080477477E-02  0.10207961534E+01  0.10205339837E+01 0.  0.
     999903    2    3    3    0    0 -0.23778798711E-01 -0.24309505957E-01 -0.12644741379E+00  0.13219495388E+00  0.18170691526E-01 0.  0.
         14    1    1    2    0    0  0.16536671796E-01 -0.13301323245E-01  0.92080477477E-02  0.23133846578E-01  0.00000000000E+00 0.  1.
     999901    1    3    3    0    0  0.72421269150E-02  0.37610829203E-01  0.11723936604E+00  0.88860119954E+00  0.88000000000E+00 0. -1.
        -11    1    4    4    0    0 -0.12269908959E-01 -0.38322342281E-02 -0.25648480200E-01  0.28693942612E-01  0.51100000000E-03 0.  1.
         11    1    4    4    0    0 -0.11508889752E-01 -0.20477271729E-01 -0.10079893359E+00  0.10350101127E+00  0.51100000000E-03 0. -1.
</event>
<event>
 8    1  0.1081309E+005  0.1043930E+01  0.7957747E-01            NaN
         13   -1    0    0    0    0  0.00000000000E+00  0.00000000000E+00  0.74505805969E-08  0.10566000000E+00  0.10566000000E+00 0.  1.
     999900   -1    0    0    0    0 -0.00000000000E+00 -0.00000000000E+00 -0.74505805969E-08  0.93827000000E+00  0.93827000000E+00 0. -1.
     999902    2    1    2    0    0  0.23740006499E-01 -0.48533461575E-02  0.39289351793E-02  0.10193825071E+01  0.10190869032E+01 0.  0.
     999903    2    3    3    0    0 -0.36234873736E-01 -0.11057095447E+00  0.53435717862E-01  0.12964989527E+00  0.20367065426E-01 0.  0.
         14    1    1    2    0    0 -0.23740006499E-01  0.48533461575E-02 -0.39289351793E-02  0.24547492930E-01  0.00000000000E+00 0. -1.
     999901    1    3    3    0    0  0.59974880235E-01  0.10571760831E+00 -0.49506782683E-01  0.88973261180E+00  0.88000000000E+00 0.  1.
        -11    1    4    4    0    0 -0.18599691005E-01 -0.71687932633E-01  0.24259130577E-01  0.77935067383E-01  0.51100000000E-03 0. -1.
         11    1    4    4    0    0 -0.17635182732E-01 -0.38883021835E-01  0.29176587285E-01  0.51714827889E-01  0.51100000000E-03 0.  1.
</event>
<event>
 8    1  0.1081309E+005  0.1043930E+01  0.7957747E-01            NaN
         13   -1    0    0    0    0  0.00000000000E+00  0.00000000000E+00  0.74505805969E-08  0.10566000000E+00  0.10566000000E+00 0. -1.
     999900   -1    0    0    0    0 -0.00000000000E+00 -0.00000000000E+00 -0.74505805969E-08  0.93827000000E+00  0.93827000000E+00 0.  1.
     999902    2    1    2    0    0  0.88392880010E-03  0.23032271686E-01  0.57609813439E-02  0.10201717220E+01  0.10198950370E+01 0.  0.
     999903    2    3    3    0    0  0.52868086842E-01 -0.10336738150E+00 -0.49828077198E-01  0.12788848866E+00  0.19818629856E-01 0.  0.
         14    1    1    2    0    0 -0.88392880010E-03 -0.23032271686E-01 -0.57609813439E-02  0.23758278035E-01  0.00000000000E+00 0. -1.
     999901    1    3    3    0    0 -0.51984158042E-01  0.12639965319E+00  0.55589058542E-01  0.89228323331E+00  0.88000000000E+00 0. -1.
        -11    1    4    4    0    0  0.49929284634E-01 -0.86208033882E-01 -0.47322451287E-01  0.11029249334E+00  0.51100000000E-03 0. -1.
         11    1    4    4    0    0  0.29388022083E-02 -0.17159347617E-01 -0.25056259108E-02  0.17595995319E-01  0.51100000000E-03 0.  1.
</event>
<event>
 8    1  0.1081309E+005  0.1043930E+01  0.7957747E-01            NaN
         13   -1    0    0    0    0  0.00000000000E+00  0.00000000000E+00  0.74505805969E-08  0.10566000000E+00  0.10566000000E+00 0. -1.
     999900   -1    0    0    0    0 -0.00000000000E+00 -0.00000000000E+00 -0.74505805969E-08  0.93827000000E+00  0.93827000000E+00 0. -1.
     999902    2    1    2    0    0 -0.22253901164E-01  0.11563751630E-02 -0.57320445073E-02  0.10209206616E+01  0.10206613383E+01 0.  0.
     999903    2    3    3    0    0  0.53826115078E-01 -0.21271523642E-01  0.11356132893E+00  0.12933662826E+00  0.21955855689E-01 0.  0.
         14    1    1    2    0    0  0.22253901164E-01 -0.11563751630E-02  0.57320445073E-02  0.23009338425E-01  0.00000000000E+00 0.  1.
     999901    1    3    3    0    0 -0.76080016242E-01  0.22427898805E-01 -0.11929337344E+00  0.89158403331E+00  0.88000000000E+00 0. -1.
        -11    1    4    4    0    0  0.15883374015E-01 -0.40571383266E-02  0.55486765267E-01  0.57860039598E-01  0.51100000000E-03 0. -1.
         11    1    4    4    0    0  0.37942741063E-01 -0.17214385316E-01  0.58074563662E-01  0.71476588662E-01  0.51100000000E-03 0.  1.
</event>
<event>
 8    1  0.1081309E+005  0.1043930E+01  0.7957747E-01            NaN
         13   -1    0    0    0    0  0.00000000000E+00  0.00000000000E+00  0.74505805969E-08  0.10566000000E+00  0.10566000000E+00 0.  1.
     999900   -1    0    0    0    0 -0.00000000000E+00 -0.00000000000E+00 -0.74505805969E-08  0.93827000000E+00  0.93827000000E+00 0. -1.
     999902    2    1    2    0    0  0.17661718267E-01  0.80556325967E-02 -0.11588758040E-01  0.10213218417E+01  0.10210715820E+01 0.  0.
     999903    2    3    3    0    0 -0.52981168746E-01 -0.43278479336E-01  0.10757737068E+00  0.12900677696E+00  0.19744032112E-01 0.  0.
         14    1    1    2    0    0 -0.17661718267E-01 -0.80556325967E-02  0.11588758040E-01  0.22608158297E-01  0.00000000000E+00 0.  1.
     999901    1    3    3    0    0  0.70642887013E-01  0.51334111933E-01 -0.11916612872E+00  0.89231506474E+00  0.88000000000E+00 0. -1.
        -11    1    4    4    0    0 -0.19603712619E-01 -0.28010905230E-01  0.57833973396E-01  0.67185905963E-01  0.51100000000E-03 0.  1.
         11    1    4    4    0    0 -0.33377456127E-01 -0.15267574106E-01  0.49743397283E-01  0.61820870997E-01  0.51100000000E-03 0. -1.
</event>
<event>
 8    1  0.1081309E+005  0.1043930E+01  0.7957747E-01            NaN
         13   -1    0    0    0    0  0.00000000000E+00  0.00000000000E+00  0.74505805969E-08  0.10566000000E+00  0.10566000000E+00 0.  1.
     999900   -1    0    0    0    0 -0.00000000000E+00 -0.00000000000E+00 -0.74505805969E-08  0.93827000000E+00  0.93827000000E+00 0. -1.
     999902    2    1    2    0    0  0.62978362223E-02  0.49819481875E-02 -0.24380161976E-01  0.10182614424E+01  0.10179378617E+01 0.  0.
     999903    2    3    3    0    0  0.24920847854E-01  0.11846946783E+00  0.37923016429E-01  0.12859413400E+00  0.21029328560E-01 0.  0.
         14    1    1    2    0    0 -0.62978362223E-02 -0.49819481875E-02  0.24380161976E-01  0.25668557552E-01  0.00000000000E+00 0.  1.
     999901    1    3    3    0    0 -0.18623011632E-01 -0.11348751964E+00 -0.62303178405E-01  0.88966730844E+00  0.88000000000E+00 0. -1.
        -11    1    4    4    0    0  0.19478291613E-01  0.43150934744E-01  0.13732222636E-01  0.49297485462E-01  0.51100000000E-03 0.  1.
         11    1    4    4    0    0  0.54425562416E-02  0.75318533084E-01  0.24190793794E-01  0.79296648541E-01  0.51100000000E-03 0. -1.
</event>
<event>
 8    1  0.1081309E+005  0.1043930E+01  0.7957747E-01            NaN
         13   -1    0    0    0    0  0.00000000000E+00  0.00000000000E+00  0.74505805969E-08  0.10566000000E+00  0.10566000000E+00 0.  1.
     999900   -1    0    0    0    0 -0.00000000000E+00 -0.00000000000E+00 -0.74505805969E-08  0.93827000000E+00  0.93827000000E+00 0.  1.
     999902    2    1    2    0    0 -0.22500363963E-01  0.70992662149E-02  0.61272881193E-02  0.10195535848E+01  0.10192621364E+01 0.  0.
     999903    2    3    3    0    0 -0.12858418554E+00 -0.24679977975E-01  0.12954755616E-02  0.13259978442E+00  0.20929177918E-01 0.  0.
         14    1    1    2    0    0  0.22500363963E-01 -0.70992662149E-02 -0.61272881193E-02  0.24376415220E-01  0.00000000000E+00 0. -1.
     999901    1    3    3    0    0  0.10608382157E+00  0.31779244190E-01  0.48318125577E-02  0.88695380036E+00  0.88000000000E+00 0.  1.
        -11    1    4    4    0    0 -0.35551116552E-01 -0.15078520357E-01  0.53195641574E-02  0.38984645030E-01  0.51100000000E-03 0. -1.
         11    1    4    4    0    0 -0.93033068985E-01 -0.96014576183E-02 -0.40240885958E-02  0.93615139391E-01  0.51100000000E-03 0.  1.
</event>
<event>
 8    1  0.1081309E+005  0.1043930E+01  0.7957747E-01            NaN
         13   -1    0    0    0    0  0.00000000000E+00  0.00000000000E+00  0.74505805969E-08  0.10566000000E+00  0.10566000000E+00 0.  1.
     999900   -1    0    0    0    0 -0.00000000000E+00 -0.00000000000E+00 -0.74505805969E-08  0.93827000000E+00  0.93827000000E+00 0. -1.
     999902    2    1    2    0    0  0.66174342734E-02  0.21086387794E-01  0.25018692490E-02  0.10216884727E+01  0.10214463519E+01 0.  0.
     999903    2    3    3    0    0 -0.15717535168E-01 -0.88483436337E-01  0.91867563367E-01  0.13012208454E+00  0.20389906059E-01 0.  0.
         14    1    1    2    0    0 -0.66174342734E-02 -0.21086387794E-01 -0.25018692490E-02  0.22241527293E-01  0.00000000000E+00 0.  1.
     999901    1    3    3    0    0  0.22334969441E-01  0.10956982413E+00 -0.89365694118E-01  0.89156638816E+00  0.88000000000E+00 0. -1.
        -11    1    4    4    0    0 -0.64133239403E-02 -0.25100761153E-01  0.40161424032E-01  0.47795188416E-01  0.51100000000E-03 0.  1.
         11    1    4    4    0    0 -0.93042112273E-02 -0.63382675184E-01  0.51706139335E-01  0.82326896127E-01  0.51100000000E-03 0. -1.
</event>
<event>
 8    1  0.1081309E+005  0.1043930E+01  0.7957747E-01            NaN
         13   -1    0    0    0    0  0.00000000000E+00  0.00000000000E+00  0.74505805969E-08  0.10566000000E+00  0.10566000000E+00 0.  1.
     999900   -1    0    0    0    0 -0.00000000000E+00 -0.00000000000E+00 -0.74505805969E-08  0.93827000000E+00  0.93827000000E+00 0.  1.
     999902    2    1    2    0    0  0.10062807548E-02 -0.95219511982E-02 -0.24180078549E-01  0.10179231479E+01  0.10175908700E+01 0.  0.
     999903    2    3    3    0    0  0.73935885721E-01  0.40584427194E-01  0.92006606928E-01  0.12588686935E+00  0.16391376632E-01 0.  0.
         14    1    1    2    0    0 -0.10062807548E-02  0.95219511982E-02  0.24180078549E-01  0.26006852063E-01  0.00000000000E+00 0. -1.
     999901    1    3    3    0    0 -0.72929604966E-01 -0.50106378392E-01 -0.11618668548E+00  0.89203627859E+00  0.88000000000E+00 0.  1.
        -11    1    4    4    0    0  0.23739684902E-02  0.59273625758E-02  0.69941721341E-02  0.94841403584E-02  0.51100000000E-03 0.  1.
         11    1    4    4    0    0  0.71561917231E-01  0.34657064618E-01  0.85012434794E-01  0.11640272899E+00  0.51100000000E-03 0. -1.
</event>
<event>
 8    1  0.1081309E+005  0.1043930E+01  0.7957747E-01            NaN
         13   -1    0    0    0    0  0.00000000000E+00  0.00000000000E+00  0.74505805969E-08  0.10566000000E+00  0.10566000000E+00 0. -1.
     999900   -1    0    0    0    0 -0.00000000000E+00 -0.00000000000E+00 -0.74505805969E-08  0.93827000000E+00  0.93827000000E+00 0. -1.
     999902    2    1    2    0    0 -0.37555972473E-02  0.45240332703E-02 -0.22959590068E-01  0.10202294902E+01  0.10199541649E+01 0.  0.
     999903    2    3    3    0    0  0.45151257682E-02 -0.10342377576E+00  0.73516884643E-01  0.12836131358E+00  0.18842259503E-01 0.  0.
         14    1    1    2    0    0  0.37555972473E-02 -0.45240332703E-02  0.22959590068E-01  0.23700509780E-01  0.00000000000E+00 0. -1.
     999901    1    3    3    0    0 -0.82707230154E-02  0.10794780903E+00 -0.96476474712E-01  0.89186817664E+00  0.88000000000E+00 0. -1.
        -11    1    4    4    0    0  0.79081445712E-02 -0.68809443807E-01  0.39633457787E-01  0.79801944869E-01  0.51100000000E-03 0.  1.
         11    1    4    4    0    0 -0.33930188031E-02 -0.34614331951E-01  0.33883426856E-01  0.48559368710E-01  0.51100000000E-03 0. -1.
</event>
<event>
 8    1  0.1081309E+005  0.1043930E+01  0.7957747E-01            NaN
         13   -1    0    0    0    0  0.00000000000E+00  0.00000000000E+00  0.74505805969E-08  0.10566000000E+00  0.10566000000E+00 0. -1.
     999900   -1    0    0    0    0 -0.00000000000E+00 -0.00000000000E+00 -0.74505805969E-08  0.93827000000E+00  0.93827000000E+00 0.  1.
     999902    2    1    2    0    0 -0.12742337635E-01 -0.40083813165E-02 -0.20573128010E-01  0.10194006730E+01  0.10191055118E+01 0.  0.
     999903    2    3    3    0    0  0.94674334675E-01  0.68607247242E-01 -0.51816741973E-01  0.12935149768E+00  0.19407503235E-01 0.  0.
         14    1    1    2    0    0  0.12742337635E-01  0.40083813165E-02  0.20573128010E-01  0.24529327046E-01  0.00000000000E+00 0. -1.
     999901    1    3    3    0    0 -0.10741667231E+00 -0.72615628559E-01  0.31243613963E-01  0.89004917528E+00  0.88000000000E+00 0. -1.
        -11    1    4    4    0    0  0.30807846945E-01  0.12079277186E-01 -0.11762485331E-01  0.35123347689E-01  0.51100000000E-03 0.  1.
         11    1    4    4    0    0  0.63866487729E-01  0.56527970056E-01 -0.40054256643E-01  0.94228149986E-01  0.51100000000E-03 0. -1.
</event>
<event>
 8    1  0.1081309E+005  0.1043930E+01  0.7957747E-01            NaN
         13   -1    0    0    0    0  0.00000000000E+00  0.00000000000E+00  0.74505805969E-08  0.10566000000E+00  0.10566000000E+00 0. -1.
     999900   -1    0    0    0    0 -0.00000000000E+00 -0.00000000000E+00 -0.74505805969E-08  0.93827000000E+00  0.93827000000E+00 0.  1.
     999902    2    1    2    0    0  0.14143942527E-02 -0.22590467946E-01  0.60061833217E-02  0.10205119729E+01  0.10202432469E+01 0.  0.
     999903    2    3    3    0    0 -0.88658097294E-01  0.39475686730E-02 -0.92881310985E-01  0.13000871206E+00  0.19987140013E-01 0.  0.
         14    1    1    2    0    0 -0.14143942527E-02  0.22590467946E-01 -0.60061833217E-02  0.23418027056E-01  0.00000000000E+00 0. -1.
     999901    1    3    3    0    0  0.90072491547E-01 -0.26538036619E-01  0.98887494307E-01  0.89050326089E+00  0.88000000000E+00 0. -1.
        -11    1    4    4    0    0 -0.56203305128E-01  0.10543970502E-01 -0.66176540953E-01  0.87461891786E-01  0.51100000000E-03 0.  1.
         11    1    4    4    0    0 -0.32454792167E-01 -0.65964018288E-02 -0.26704770032E-01  0.42546820271E-01  0.51100000000E-03 0. -1.
</event>
<event>
 8    1  0.1081309E+005  0.1043930E+01  0.7957747E-01            NaN
         13   -1    0    0    0    0  0.00000000000E+00  0.00000000000E+00  0.74505805969E-08  0.10566000000E+00  0.10566000000E+00 0. -1.
     999900   -1    0    0    0    0 -0.00000000000E+00 -0.00000000000E+00 -0.74505805969E-08  0.93827000000E+00  0.93827000000E+00 0.  1.
     999902    2    1    2    0    0  0.21296469168E-01  0.14810708347E-02 -0.10811484137E-01  0.10200004919E+01  0.10197197566E+01 0.  0.
     999903    2    3    3    0    0  0.76127316806E-01 -0.69416479059E-01 -0.81140855892E-01  0.13265664366E+00  0.19998267008E-01 0.  0.
         14    1    1    2    0    0 -0.21296469168E-01 -0.14810708347E-02  0.10811484137E-01  0.23929508124E-01  0.00000000000E+00 0. -1.
     999901    1    3    3    0    0 -0.54830847638E-01  0.70897549894E-01  0.70329371755E-01  0.88734384822E+00  0.88000000000E+00 0. -1.
        -11    1    4    4    0    0  0.22262504819E-01 -0.25570315676E-01 -0.37835901836E-01  0.50806266870E-01  0.51100000000E-03 0. -1.
         11    1    4    4    0    0  0.53864811988E-01 -0.43846163384E-01 -0.43304954055E-01  0.81850376790E-01  0.51100000000E-03 0.  1.
</event>
<event>
 8    1  0.1081309E+005  0.1043930E+01  0.7957747E-01            NaN
         13   -1    0    0    0    0  0.00000000000E+00  0.00000000000E+00  0.74505805969E-08  0.10566000000E+00  0.10566000000E+00 0. -1.
     999900   -1    0    0    0    0 -0.00000000000E+00 -0.00000000000E+00 -0.74505805969E-08  0.93827000000E+00  0.93827000000E+00 0. -1.
     999902    2    1    2    0    0 -0.21673523265E-01  0.81997178948E-02 -0.56233753629E-02  0.10200846790E+01  0.10198059389E+01 0.  0.
     999903    2    3    3    0    0  0.36838145203E-02  0.11499070649E+00 -0.61923141001E-01  0.13148073264E+00  0.14706277485E-01 0.  0.
         14    1    1    2    0    0  0.21673523265E-01 -0.81997178948E-02  0.56233753629E-02  0.23845321024E-01  0.00000000000E+00 0. -1.
     999901    1    3    3    0    0 -0.25357337786E-01 -0.10679098859E+00  0.56299765638E-01  0.88860394633E+00  0.88000000000E+00 0.  1.
        -11    1    4    4    0    0  0.19098502116E-02  0.21413658600E-01 -0.55118026518E-02  0.22199851169E-01  0.51100000000E-03 0. -1.
         11    1    4    4    0    0  0.17739643087E-02  0.93577047888E-01 -0.56411338349E-01  0.10928088148E+00  0.51100000000E-03 0.  1.
</event>
<event>
 8    1  0.1081309E+005  0.1043930E+01  0.7957747E-01            NaN
         13   -1    0    0    0    0  0.00000000000E+00  0.00000000000E+00  0.74505805969E-08  0.10566000000E+00  0.10566000000E+00 0. -1.
     999900   -1    0    0    0    0 -0.00000000000E+00 -0.00000000000E+00 -0.74505805969E-08  0.93827000000E+00  0.93827000000E+00 0. -1.
     999902    2    1    2    0    0 -0.12150657330E-01 -0.11113651300E-01  0.18241096530E-01  0.10193558404E+01  0.10190595861E+01 0.  0.
     999903    2    3    3    0    0 -0.12132043048E+00 -0.47201686031E-01  0.32537728023E-02  0.13174950562E+00  0.20017471782E-01 0.  0.
         14    1    1    2    0    0  0.12150657330E-01  0.11113651300E-01 -0.18241096530E-01  0.24574159627E-01  0.00000000000E+00 0.  1.
     999901    1    3    3    0    0  0.10916977315E+00  0.36088034731E-01  0.14987323728E-01  0.88760633475E+00  0.88000000000E+00 0. -1.
        -11    1    4    4    0    0 -0.54269368593E-01 -0.21000009545E-01  0.11401430805E-01  0.59299397246E-01  0.51100000000E-03 0.  1.
         11    1    4    4    0    0 -0.67051061891E-01 -0.26201676487E-01 -0.81476580023E-02  0.72450108374E-01  0.51100000000E-03 0. -1.
</event>
<event>
 8    1  0.1081309E+005  0.1043930E+01  0.7957747E-01            NaN
         13   -1    0    0    0    0  0.00000000000E+00  0.00000000000E+00  0.74505805969E-08  0.10566000000E+00  0.10566000000E+00 0.  1.
     999900   -1    0    0    0    0 -0.00000000000E+00 -0.00000000000E+00 -0.74505805969E-08  0.93827000000E+00  0.93827000000E+00 0. -1.
     999902    2    1    2    0    0 -0.23447922544E-01 -0.85221864720E-03 -0.42617324100E-02  0.10200827001E+01  0.10198039132E+01 0.  0.
     999903    2    3    3    0    0  0.80488367953E-01  0.51205992866E-01  0.83321496321E-01  0.12812775069E+00  0.19334364897E-01 0.  0.
         14    1    1    2    0    0  0.23447922544E-01  0.85221864720E-03  0.42617324100E-02  0.23847299876E-01  0.00000000000E+00 0.  1.
     999901    1    3    3    0    0 -0.10393629050E+00 -0.52058211514E-01 -0.87583228731E-01  0.89195494944E+00  0.88000000000E+00 0. -1.
        -11    1    4    4    0    0  0.52929907109E-01  0.41199955476E-01  0.49495352011E-01  0.83361036398E-01  0.51100000000E-03 0.  1.
         11    1    4    4    0    0  0.27558460845E-01  0.10006037391E-01  0.33826144311E-01  0.44766714290E-01  0.51100000000E-03 0. -1.
</event>
<event>
 8    1  0.1081309E+005  0.1043930E+01  0.7957747E-01            NaN
         13   -1    0    0    0    0  0.00000000000E+00  0.00000000000E+00  0.74505805969E-08  0.10566000000E+00  0.10566000000E+00 0. -1.
     999900   -1    0    0    0    0 -0.00000000000E+00 -0.00000000000E+00 -0.74505805969E-08  0.93827000000E+00  0.93827000000E+00 0.  1.
     999902    2    1    2    0    0 -0.20332193994E-01  0.38183326813E-02  0.11155310038E-01  0.10204264105E+01  0.10201556943E+01 0.  0.
     999903    2    3    3    0    0 -0.94238978909E-02  0.33087487089E-01  0.12658069395E+00  0.13233931254E+00  0.17533679275E-01 0.  0.
         14    1    1    2    0    0  0.20332193994E-01 -0.38183326813E-02 -0.11155310038E-01  0.23503589494E-01  0.00000000000E+00 0.  1.
     999901    1    3    3    0    0 -0.10908296103E-01 -0.29269154408E-01 -0.11542538391E+00  0.88808709797E+00  0.88000000000E+00 0.  1.
        -11    1    4    4    0    0 -0.10954872833E-01  0.34533741761E-01  0.11554826300E+00  0.12109603941E+00  0.51100000000E-03 0. -1.
         11    1    4    4    0    0  0.15309749416E-02 -0.14462546718E-02  0.11032430953E-01  0.11243273126E-01  0.51100000000E-03 0.  1.
</event>
<event>
 8    1  0.1081309E+005  0.1043930E+01  0.7957747E-01            NaN
         13   -1    0    0    0    0  0.00000000000E+00  0.00000000000E+00  0.74505805969E-08  0.10566000000E+00  0.10566000000E+00 0.  1.
     999900   -1    0    0    0    0 -0.00000000000E+00 -0.00000000000E+00 -0.74505805969E-08  0.93827000000E+00  0.93827000000E+00 0. -1.
     999902    2    1    2    0    0 -0.57874417681E-03  0.13259837713E-01 -0.10734020715E-01  0.10268602185E+01  0.10267183308E+01 0.  0.
     999903    2    3    3    0    0  0.12891326631E+00  0.21622526022E-01  0.33090678961E-01  0.13626563077E+00  0.19676514752E-01 0.  0.
         14    1    1    2    0    0  0.57874417681E-03 -0.13259837713E-01  0.10734020715E-01  0.17069781537E-01  0.00000000000E+00 0.  1.
     999901    1    3    3    0    0 -0.12949201048E+00 -0.83626883082E-02 -0.43824699675E-01  0.89059458770E+00  0.88000000000E+00 0. -1.
        -11    1    4    4    0    0  0.52677530809E-01  0.16300068387E-01  0.20397404786E-01  0.58795660763E-01  0.51100000000E-03 0. -1.
         11    1    4    4    0    0  0.76235735496E-01  0.53224576348E-02  0.12693274175E-01  0.77469970003E-01  0.51100000000E-03 0.  1.
</event>
<event>
 8    1  0.1081309E+005  0.1043930E+01  0.7957747E-01            NaN
         13   -1    0    0    0    0  0.00000000000E+00  0.00000000000E+00  0.74505805969E-08  0.10566000000E+00  0.10566000000E+00 0. -1.
     999900   -1    0    0    0    0 -0.00000000000E+00 -0.00000000000E+00 -0.74505805969E-08  0.93827000000E+00  0.93827000000E+00 0. -1.
     999902    2    1    2    0    0 -0.26041979504E-01  0.11065149671E-01  0.24294332828E-02  0.10155306271E+01  0.10151334544E+01 0.  0.
     999903    2    3    3    0    0  0.56324400958E-01  0.46026090635E-01 -0.99543321257E-01  0.12513468672E+00  0.21423768357E-01 0.  0.
         14    1    1    2    0    0  0.26041979504E-01 -0.11065149671E-01 -0.24294332828E-02  0.28399372877E-01  0.00000000000E+00 0.  1.
     999901    1    3    3    0    0 -0.82366380461E-01 -0.34960940963E-01  0.10197275454E+00  0.89039594041E+00  0.88000000000E+00 0.  1.
        -11    1    4    4    0    0  0.12146540886E-01  0.15994488090E-02 -0.24314261871E-01  0.27231253062E-01  0.51100000000E-03 0.  1.
         11    1    4    4    0    0  0.44177860072E-01  0.44426641826E-01 -0.75229059386E-01  0.97903433656E-01  0.51100000000E-03 0. -1.
</event>
<event>
 8    1  0.1081309E+005  0.1043930E+01  0.7957747E-01            NaN
         13   -1    0    0    0    0  0.00000000000E+00  0.00000000000E+00  0.74505805969E-08  0.10566000000E+00  0.10566000000E+00 0. -1.
     999900   -1    0    0    0    0 -0.00000000000E+00 -0.00000000000E+00 -0.74505805969E-08  0.93827000000E+00  0.93827000000E+00 0.  1.
     999902    2    1    2    0    0 -0.10632678668E-02 -0.33191093022E-02 -0.23873946672E-01  0.10198029953E+01  0.10195175511E+01 0.  0.
     999903    2    3    3    0    0  0.76908328614E-01  0.11395105012E-01 -0.10583524429E+00  0.13243963555E+00  0.17158633468E-01 0.  0.
         14    1    1    2    0    0  0.10632678668E-02  0.33191093022E-02  0.23873946672E-01  0.24127004679E-01  0.00000000000E+00 0. -1.
     999901    1    3    3    0    0 -0.77971596480E-01 -0.14714214314E-01  0.81961297615E-01  0.88736335977E+00  0.88000000000E+00 0. -1.
        -11    1    4    4    0    0  0.49347042183E-01  0.19389719025E-02 -0.76741737528E-01  0.91260317686E-01  0.51100000000E-03 0. -1.
         11    1    4    4    0    0  0.27561286431E-01  0.94561331091E-02 -0.29093506758E-01  0.41179317862E-01  0.51100000000E-03 0.  1.
</event>
<event>
 8    1  0.1081309E+005  0.1043930E+01  0.7957747E-01            NaN
         13   -1    0    0    0    0  0.00000000000E+00  0.00000000000E+00  0.74505805969E-08  0.10566000000E+00  0.10566000000E+00 0. -1.
     999900   -1    0    0    0    0 -0.00000000000E+00 -0.00000000000E+00 -0.74505805969E-08  0.93827000000E+00  0.93827000000E+00 0. -1.
     999902    2    1    2    0    0  0.36467944289E-02 -0.15039232801E-01 -0.18392306312E-01  0.10198934744E+01  0.10196101924E+01 0.  0.
     999903    2    3    3    0    0 -0.18794544469E-01 -0.11080671476E+00  0.63563354964E-01  0.13062874736E+00  0.19804206725E-01 0.  0.
         14    1    1    2    0    0 -0.36467944289E-02  0.15039232801E-01  0.18392306312E-01  0.24036525629E-01  0.00000000000E+00 0.  1.
     999901    1    3    3    0    0  0.22441338898E-01  0.95767481962E-01 -0.81955661276E-01  0.88926472701E+00  0.88000000000E+00 0. -1.
        -11    1    4    4    0    0 -0.47868003532E-02 -0.58794134074E-01  0.23516794920E-01  0.63505625132E-01  0.51100000000E-03 0. -1.
         11    1    4    4    0    0 -0.14007744116E-01 -0.52012580689E-01  0.40046560044E-01  0.67123122227E-01  0.51100000000E-03 0.  1.
</event>
<event>
 8    1  0.1081309E+005  0.1043930E+01  0.7957747E-01            NaN
         13   -1    0    0    0    0  0.00000000000E+00  0.00000000000E+00  0.74505805969E-08  0.10566000000E+00  0.10566000000E+00 0.  1.
     999900   -1    0    0    0    0 -0.00000000000E+00 -0.00000000000E+00 -0.74505805969E-08  0.93827000000E+00  0.93827000000E+00 0.  1.
     999902    2    1    2    0    0 -0.12846155449E-01  0.20646123626E-01  0.67247952840E-04  0.10196135312E+01  0.10193235318E+01 0.  0.
     999903    2    3    3    0    0  0.38841121369E-01  0.11885214131E+00 -0.38142179040E-01  0.13182078696E+00  0.16953756213E-01 0.  0.
         14    1    1    2    0    0  0.12846155449E-01 -0.20646123626E-01 -0.67247952840E-04  0.24316468758E-01  0.00000000000E+00 0. -1.
     999901    1    3    3    0    0 -0.51687276818E-01 -0.98206017681E-01  0.38209426993E-01  0.88779274428E+00  0.88000000000E+00 0. -1.
        -11    1    4    4    0    0  0.11316443597E-01  0.59066644716E-01 -0.22097941611E-01  0.64074258155E-01  0.51100000000E-03 0. -1.
         11    1    4    4    0    0  0.27524677772E-01  0.59785496591E-01 -0.16044237429E-01  0.67746528802E-01  0.51100000000E-03 0.  1.
</event>
<event>
 8    1  0.1081309E+005  0.1043930E+01  0.7957747E-01            NaN
         13   -1    0    0    0    0  0.00000000000E+00  0.00000000000E+00  0.74505805969E-08  0.10566000000E+00  0.10566000000E+00 0. -1.
     999900   -1    0    0    0    0 -0.00000000000E+00 -0.00000000000E+00 -0.74505805969E-08  0.93827000000E+00  0.93827000000E+00 0. -1.
     999902    2    1    2    0    0  0.31433251406E-03 -0.24339830880E-01  0.11035117898E-02  0.10195631391E+01  0.10192719219E+01 0.  0.
     999903    2    3    3    0    0  0.10781899887E+00  0.69910678111E-02 -0.68872498967E-01  0.12971173544E+00  0.20196575214E-01 0.  0.
         14    1    1    2    0    0 -0.31433251406E-03  0.24339830880E-01 -0.11035117898E-02  0.24366860907E-01  0.00000000000E+00 0. -1.
     999901    1    3    3    0    0 -0.10750466636E+00 -0.31330898691E-01  0.69976010757E-01  0.88985140365E+00  0.88000000000E+00 0. -1.
        -11    1    4    4    0    0  0.55978240840E-01  0.28695062251E-02 -0.47542595091E-01  0.73500727769E-01  0.51100000000E-03 0. -1.
         11    1    4    4    0    0  0.51840758031E-01  0.41215615860E-02 -0.21329903875E-01  0.56211007672E-01  0.51100000000E-03 0.  1.
</event>
<event>
 8    1  0.1081309E+005  0.1043930E+01  0.7957747E-01            NaN
         13   -1    0    0    0    0  0.00000000000E+00  0.00000000000E+00  0.74505805969E-08  0.10566000000E+00  0.10566000000E+00 0. -1.
     999900   -1    0    0    0    0 -0.00000000000E+00 -0.00000000000E+00 -0.74505805969E-08  0.93827000000E+00  0.93827000000E+00 0.  1.
     999902    2    1    2    0    0 -0.24099170143E-01  0.97269807658E-03  0.38637215976E-02  0.10195036927E+01  0.10192110355E+01 0.  0.
     999903    2    3    3    0    0  0.37283508036E-01 -0.29961404287E-01  0.11858733827E+00  0.12939905836E+00  0.19834661263E-01 0.  0.
         14    1    1    2    0    0  0.24099170143E-01 -0.97269807658E-03 -0.38637215976E-02  0.24426307288E-01  0.00000000000E+00 0.  1.
     999901    1    3    3    0    0 -0.61382678179E-01  0.30934102364E-01 -0.11472361668E+00  0.89010463435E+00  0.88000000000E+00 0.  1.
        -11    1    4    4    0    0  0.76224128437E-02 -0.18432228117E-01  0.45545721929E-01  0.49724461967E-01  0.51100000000E-03 0.  1.
         11    1    4    4    0    0  0.29661095192E-01 -0.11529176170E-01  0.73041616346E-01  0.79674596394E-01  0.51100000000E-03 0. -1.
</event>
<event>
 8    1  0.1081309E+005  0.1043930E+01  0.7957747E-01            NaN
         13   -1    0    0    0    0  0.00000000000E+00  0.00000000000E+00  0.74505805969E-08  0.10566000000E+00  0.10566000000E+00 0.  1.
     999900   -1    0    0    0    0 -0.00000000000E+00 -0.00000000000E+00 -0.74505805969E-08  0.93827000000E+00  0.93827000000E+00 0. -1.
     999902    2    1    2    0    0  0.21154461602E-01  0.41716056331E-02 -0.57867594582E-02  0.10216051232E+01  0.10213611641E+01 0.  0.
     999903    2    3    3    0    0  0.90671477121E-01  0.80950918218E-02  0.94890121721E-01  0.13313236414E+00  0.20814511886E-01 0.  0.
         14    1    1    2    0    0 -0.21154461602E-01 -0.41716056331E-02  0.57867594582E-02  0.22324876803E-01  0.00000000000E+00 0. -1.
     999901    1    3    3    0    0 -0.69517015519E-01 -0.39234861887E-02 -0.10067688118E+00  0.88847275906E+00  0.88000000000E+00 0. -1.
        -11    1    4    4    0    0  0.69943997484E-01  0.10620133589E-02  0.81762526507E-01  0.10760419378E+00  0.51100000000E-03 0. -1.
         11    1    4    4    0    0  0.20727479637E-01  0.70330784629E-02  0.13127595214E-01  0.25528170359E-01  0.51100000000E-03 0.  1.
</event>
<event>
 8    1  0.1081309E+005  0.1043930E+01  0.7957747E-01            NaN
         13   -1    0    0    0    0  0.00000000000E+00  0.00000000000E+00  0.74505805969E-08  0.10566000000E+00  0.10566000000E+00 0.  1.
     999900   -1    0    0    0    0 -0.00000000000E+00 -0.00000000000E+00 -0.74505805969E-08  0.93827000000E+00  0.93827000000E+00 0.  1.
     999902    2    1    2    0    0  0.25366058752E-02  0.25264744363E-01  0.16402906316E-01  0.10137009244E+01  0.10132501010E+01 0.  0.
     999903    2    3    3    0    0  0.10053160681E+00 -0.61644744763E-01  0.31325291415E-01  0.12388130385E+00  0.21415532580E-01 0.  0.
         14    1    1    2    0    0 -0.25366058752E-02 -0.25264744363E-01 -0.16402906316E-01  0.30229075618E-01  0.00000000000E+00 0. -1.
     999901    1    3    3    0    0 -0.97995000938E-01  0.86909489126E-01 -0.14922385099E-01  0.88981962053E+00  0.88000000000E+00 0. -1.
        -11    1    4    4    0    0  0.20033212964E-01 -0.47741797471E-02  0.48335725307E-03  0.20606241025E-01  0.51100000000E-03 0. -1.
         11    1    4    4    0    0  0.80498393849E-01 -0.56870565015E-01  0.30841934162E-01  0.10327506282E+00  0.51100000000E-03 0.  1.
</event>
<event>
 8    1  0.1081309E+005  0.1043930E+01  0.7957747E-01            NaN
         13   -1    0    0    0    0  0.00000000000E+00  0.00000000000E+00  0.74505805969E-08  0.10566000000E+00  0.10566000000E+00 0.  1.
     999900   -1    0    0    0    0 -0.00000000000E+00 -0.00000000000E+00 -0.74505805969E-08  0.93827000000E+00  0.93827000000E+00 0. -1.
     999902    2    1    2    0    0  0.31724407002E-02  0.22262014153E-01  0.98162204663E-02  0.10193939074E+01  0.10190985814E+01 0.  0.
     999903    2    3    3    0    0  0.12830706694E+00  0.49742085635E-02 -0.78689643845E-02  0.13019746757E+00  0.20050281405E-01 0.  0.
         14    1    1    2    0    0 -0.31724407002E-02 -0.22262014153E-01 -0.98162204663E-02  0.24536092565E-01  0.00000000000E+00 0. -1.
     999901    1    3    3    0    0 -0.12513462624E+00  0.17287805589E-01  0.17685184851E-01  0.88919643986E+00  0.88000000000E+00 0.  1.
        -11    1    4    4    0    0  0.94949057119E-01  0.16336308707E-03 -0.13876780570E-01  0.95959242886E-01  0.51100000000E-03 0. -1.
         11    1    4    4    0    0  0.33358009818E-01  0.48108454764E-02  0.60078161852E-02  0.34238224684E-01  0.51100000000E-03 0.  1.
</event>
<event>
 8    1  0.1081309E+005  0.1043930E+01  0.7957747E-01            NaN
         13   -1    0    0    0    0  0.00000000000E+00  0.00000000000E+00  0.74505805969E-08  0.10566000000E+00  0.10566000000E+00 0. -1.
     999900   -1    0    0    0    0 -0.00000000000E+00 -0.00000000000E+00 -0.74505805969E-08  0.93827000000E+00  0.93827000000E+00 0.  1.
     999902    2    1    2    0    0 -0.91831232021E-02 -0.14830271180E-02 -0.21539585899E-01  0.10204676284E+01  0.10201978718E+01 0.  0.
     999903    2    3    3    0    0 -0.29143544014E-01  0.88299567124E-01  0.87175944663E-01  0.12902026638E+00  0.20010599645E-01 0.  0.
         14    1    1    2    0    0  0.91831232021E-02  0.14830271180E-02  0.21539585899E-01  0.23462371617E-01  0.00000000000E+00 0. -1.
     999901    1    3    3    0    0  0.19960420812E-01 -0.89782594242E-01 -0.10871553056E+00  0.89144736200E+00  0.88000000000E+00 0.  1.
        -11    1    4    4    0    0 -0.16932674323E-01  0.75425284400E-01  0.69109194759E-01  0.10369200021E+00  0.51100000000E-03 0.  1.
         11    1    4    4    0    0 -0.12210869691E-01  0.12874282724E-01  0.18066749905E-01  0.25328266174E-01  0.51100000000E-03 0. -1.
</event>
<event>
 8    1  0.1081309E+005  0.1043930E+01  0.7957747E-01            NaN
         13   -1    0    0    0    0  0.00000000000E+00  0.00000000000E+00  0.74505805969E-08  0.10566000000E+00  0.10566000000E+00 0.  1.
     999900   -1    0    0    0    0 -0.00000000000E+00 -0.00000000000E+00 -0.74505805969E-08  0.93827000000E+00  0.93827000000E+00 0.  1.
     999902    2    1    2    0    0  0.18582873689E-02  0.24448842331E-01  0.37189820741E-02  0.10191302026E+01  0.10188284153E+01 0.  0.
     999903    2    3    3    0    0  0.57680156475E-01 -0.32875603490E-01 -0.10773210603E+00  0.12849923626E+00  0.22316838803E-01 0.  0.
         14    1    1    2    0    0 -0.18582873689E-02 -0.24448842331E-01 -0.37189820741E-02  0.24799797398E-01  0.00000000000E+00 0. -1.
     999901    1    3    3    0    0 -0.55821869106E-01  0.57324445822E-01  0.11145108811E+00  0.89063096634E+00  0.88000000000E+00 0. -1.
        -11    1    4    4    0    0  0.21250250225E-01 -0.54054700513E-03 -0.35331159094E-01  0.41236115840E-01  0.51100000000E-03 0. -1.
         11    1    4    4    0    0  0.36429906250E-01 -0.32335056485E-01 -0.72400946941E-01  0.87263120425E-01  0.51100000000E-03 0.  1.
</event>
<event>
 8    1  0.1081309E+005  0.1043930E+01  0.7957747E-01            NaN
         13   -1    0    0    0    0  0.00000000000E+00  0.00000000000E+00  0.74505805969E-08  0.10566000000E+00  0.10566000000E+00 0. -1.
     999900   -1    0    0    0    0 -0.00000000000E+00 -0.00000000000E+00 -0.74505805969E-08  0.93827000000E+00  0.93827000000E+00 0. -1.
     999902    2    1    2    0    0  0.14212496824E-02  0.89814852610E-02  0.21301542872E-01  0.10207687661E+01  0.10205059682E+01 0.  0.
     999903    2    3    3    0    0  0.33049057073E-01  0.67445382443E-03  0.12805361998E+00  0.13371446620E+00  0.19726475097E-01 0.  0.
         14    1    1    2    0    0 -0.14212496824E-02 -0.89814852610E-02 -0.21301542872E-01  0.23161233924E-01  0.00000000000E+00 0.  1.
     999901    1    3    3    0    0 -0.31627807391E-01  0.83070314365E-02 -0.10675207710E+00  0.88705429988E+00  0.88000000000E+00 0. -1.
        -11    1    4    4    0    0  0.12431020710E-01 -0.53509987340E-02  0.79127643176E-01  0.80278318984E-01  0.51100000000E-03 0.  1.
         11    1    4    4    0    0  0.20618036363E-01  0.60254525584E-02  0.48925976799E-01  0.53436147211E-01  0.51100000000E-03 0. -1.
</event>
<event>
 8    1  0.1081309E+005  0.1043930E+01  0.7957747E-01            NaN
         13   -1    0    0    0    0  0.00000000000E+00  0.00000000000E+00  0.74505805969E-08  0.10566000000E+00  0.10566000000E+00 0. -1.
     999900   -1    0    0    0    0 -0.00000000000E+00 -0.00000000000E+00 -0.74505805969E-08  0.93827000000E+00  0.93827000000E+00 0.  1.
     999902    2    1    2    0    0  0.21831888189E-01  0.32127740557E-02  0.13276377338E-01  0.10181770302E+01  0.10178512904E+01 0.  0.
     999903    2    3    3    0    0  0.11230796120E+00 -0.25669479190E-02 -0.62852378207E-01  0.13024971762E+00  0.19872094076E-01 0.  0.
         14    1    1    2    0    0 -0.21831888189E-01 -0.32127740557E-02 -0.13276377338E-01  0.25752969814E-01  0.00000000000E+00 0.  1.
     999901    1    3    3    0    0 -0.90476073016E-01  0.57797219747E-02  0.76128755545E-01  0.88792731256E+00  0.88000000000E+00 0. -1.
        -11    1    4    4    0    0  0.43905704572E-01  0.60183278043E-03 -0.13849925525E-01  0.46045137145E-01  0.51100000000E-03 0.  1.
         11    1    4    4    0    0  0.68402256633E-01 -0.31687806995E-02 -0.49002452683E-01  0.84204580478E-01  0.51100000000E-03 0. -1.
</event>
<event>
 8    1  0.1081309E+005  0.1043930E+01  0.7957747E-01            NaN
         13   -1    0    0    0    0  0.00000000000E+00  0.00000000000E+00  0.74505805969E-08  0.10566000000E+00  0.10566000000E+00 0. -1.
     999900   -1    0    0    0    0 -0.00000000000E+00 -0.00000000000E+00 -0.74505805969E-08  0.93827000000E+00  0.93827000000E+00 0. -1.
     999902    2    1    2    0    0 -0.70188158100E-02  0.22145134087E-01 -0.45749664622E-02  0.10202529846E+01  0.10199782113E+01 0.  0.
     999903    2    3    3    0    0  0.12480072106E+00  0.32242135270E-01  0.35338907740E-02  0.13034057697E+00  0.19010585375E-01 0.  0.
         14    1    1    2    0    0  0.70188158100E-02 -0.22145134087E-01  0.45749664622E-02  0.23677015378E-01  0.00000000000E+00 0.  1.
     999901    1    3    3    0    0 -0.13181953687E+00 -0.10097001183E-01 -0.81088572362E-02  0.88991240766E+00  0.88000000000E+00 0. -1.
        -11    1    4    4    0    0  0.92062522737E-02  0.79340183301E-02  0.44007838559E-05  0.12164081065E-01  0.51100000000E-03 0.  1.
         11    1    4    4    0    0  0.11559446879E+00  0.24308116940E-01  0.35294899901E-02  0.11817649590E+00  0.51100000000E-03 0. -1.
</event>
<event>
 8    1  0.1081309E+005  0.1043930E+01  0.7957747E-01            NaN
         13   -1    0    0    0    0  0.00000000000E+00  0.00000000000E+00  0.74505805969E-08  0.10566000000E+00  0.10566000000E+00 0. -1.
     999900   -1    0    0    0    0 -0.00000000000E+00 -0.00000000000E+00 -0.74505805969E-08  0.93827000000E+00  0.93827000000E+00 0.  1.
     999902    2    1    2    0    0  0.13356626435E-01 -0.11284554502E-01 -0.21374197389E-01  0.10163148420E+01  0.10159395952E+01 0.  0.
     999903    2    3    3    0    0 -0.35164757132E-01 -0.10175328657E+00  0.63731574442E-01  0.12626882710E+00  0.17082495273E-01 0.  0.
         14    1    1    2    0    0 -0.13356626435E-01  0.11284554502E-01  0.21374197389E-01  0.27615158048E-01  0.00000000000E+00 0. -1.
     999901    1    3    3    0    0  0.48521383567E-01  0.90468732073E-01 -0.85105771831E-01  0.89004601485E+00  0.88000000000E+00 0.  1.
        -11    1    4    4    0    0 -0.24363342477E-01 -0.54704956428E-01  0.27442375308E-01  0.65875259377E-01  0.51100000000E-03 0. -1.
         11    1    4    4    0    0 -0.10801414655E-01 -0.47048330146E-01  0.36289199134E-01  0.60393567727E-01  0.51100000000E-03 0.  1.
</event>
<event>
 8    1  0.1081309E+005  0.1043930E+01  0.7957747E-01            NaN
         13   -1    0    0    0    0  0.00000000000E+00  0.00000000000E+00  0.74505805969E-08  0.10566000000E+00  0.10566000000E+00 0. -1.
     999900   -1    0    0    0    0 -0.00000000000E+00 -0.00000000000E+00 -0.74505805969E-08  0.93827000000E+00  0.93827000000E+00 0.  1.
     999902    2    1    2    0    0  0.30617816006E-02 -0.20719032285E-01  0.38398681650E-03  0.10229824404E+01  0.10227679469E+01 0.  0.
     999903    2    3    3    0    0  0.35774443179E-01 -0.12703317812E+00  0.24949631082E-01  0.13564018026E+00  0.18935027933E-01 0.  0.
         14    1    1    2    0    0 -0.30617816006E-02  0.20719032285E-01 -0.38398681650E-03  0.20947559554E-01  0.00000000000E+00 0. -1.
     999901    1    3    3    0    0 -0.32712661578E-01  0.10631414583E+00 -0.24565644265E-01  0.88734226018E+00  0.88000000000E+00 0. -1.
        -11    1    4    4    0    0  0.22545690794E-01 -0.69787055544E-01  0.46962280353E-02  0.73490523019E-01  0.51100000000E-03 0.  1.
         11    1    4    4    0    0  0.13228752385E-01 -0.57246122574E-01  0.20253403046E-01  0.62149657242E-01  0.51100000000E-03 0. -1.
</event>
<event>
 8    1  0.1081309E+005  0.1043930E+01  0.7957747E-01            NaN
         13   -1    0    0    0    0  0.00000000000E+00  0.00000000000E+00  0.74505805969E-08  0.10566000000E+00  0.10566000000E+00 0. -1.
     999900   -1    0    0    0    0 -0.00000000000E+00 -0.00000000000E+00 -0.74505805969E-08  0.93827000000E+00  0.93827000000E+00 0.  1.
     999902    2    1    2    0    0 -0.44073575632E-02  0.22160159863E-01  0.76680355386E-02  0.10200700701E+01  0.10197909843E+01 0.  0.
     999903    2    3    3    0    0 -0.12247789953E+00 -0.34435973368E-01 -0.17044857961E-01  0.13003945137E+00  0.20810083959E-01 0.  0.
         14    1    1    2    0    0  0.44073575632E-02 -0.22160159863E-01 -0.76680355386E-02  0.23859929900E-01  0.00000000000E+00 0.  1.
     999901    1    3    3    0    0  0.11807054196E+00  0.56596133230E-01  0.24712893500E-01  0.89003061873E+00  0.88000000000E+00 0. -1.
        -11    1    4    4    0    0 -0.57178429373E-01 -0.80916911200E-02 -0.71179913535E-03  0.57754792267E-01  0.51100000000E-03 0.  1.
         11    1    4    4    0    0 -0.65299470155E-01 -0.26344282248E-01 -0.16333058826E-01  0.72284659100E-01  0.51100000000E-03 0. -1.
</event>
<event>
 8    1  0.1081309E+005  0.1043930E+01  0.7957747E-01            NaN
         13   -1    0    0    0    0  0.00000000000E+00  0.00000000000E+00  0.74505805969E-08  0.10566000000E+00  0.10566000000E+00 0. -1.
     999900   -1    0    0    0    0 -0.00000000000E+00 -0.00000000000E+00 -0.74505805969E-08  0.93827000000E+00  0.93827000000E+00 0.  1.
     999902    2    1    2    0    0  0.63006796040E-02  0.16771631482E-01  0.15103145153E-01  0.10204973053E+01  0.10202282387E+01 0.  0.
     999903    2    3    3    0    0  0.52900349991E-01 -0.68668858745E-01 -0.92833079068E-01  0.12857699771E+00  0.20005113837E-01 0.  0.
         14    1    1    2    0    0 -0.63006796040E-02 -0.16771631482E-01 -0.15103145153E-01  0.23432694671E-01  0.00000000000E+00 0.  1.
     999901    1    3    3    0    0 -0.46599670387E-01  0.85440490227E-01  0.10793622422E+00  0.89192030762E+00  0.88000000000E+00 0. -1.
        -11    1    4    4    0    0  0.26904065734E-02 -0.18311095598E-02 -0.11423191367E-01  0.11888720359E-01  0.51100000000E-03 0.  1.
         11    1    4    4    0    0  0.50209943417E-01 -0.66837749185E-01 -0.81409887700E-01  0.11668827735E+00  0.51100000000E-03 0. -1.
</event>
<event>
 8    1  0.1081309E+005  0.1043930E+01  0.7957747E-01            NaN
         13   -1    0    0    0    0  0.00000000000E+00  0.00000000000E+00  0.74505805969E-08  0.10566000000E+00  0.10566000000E+00 0. -1.
     999900   -1    0    0    0    0 -0.00000000000E+00 -0.00000000000E+00 -0.74505805969E-08  0.93827000000E+00  0.93827000000E+00 0.  1.
     999902    2    1    2    0    0 -0.57808057519E-02  0.14517619794E-01  0.18434300692E-01  0.10197638575E+01  0.10194774753E+01 0.  0.
     999903    2    3    3    0    0  0.11774194522E+00 -0.37640368230E-01  0.33123636185E-01  0.12948631525E+00  0.19737466325E-01 0.  0.
         14    1    1    2    0    0  0.57808057519E-02 -0.14517619794E-01 -0.18434300692E-01  0.24166142464E-01  0.00000000000E+00 0. -1.
     999901    1    3    3    0    0 -0.12352275098E+00  0.52157988024E-01 -0.14689335494E-01  0.89027754229E+00  0.88000000000E+00 0. -1.
        -11    1    4    4    0    0  0.65317134105E-01 -0.10551623921E-01  0.17565532271E-01  0.68457825119E-01  0.51100000000E-03 0. -1.
         11    1    4    4    0    0  0.52424811119E-01 -0.27088744309E-01  0.15558103914E-01  0.61028490129E-01  0.51100000000E-03 0.  1.
</event>
<event>
 8    1  0.1081309E+005  0.1043930E+01  0.7957747E-01            NaN
         13   -1    0    0    0    0  0.00000000000E+00  0.00000000000E+00  0.74505805969E-08  0.10566000000E+00  0.10566000000E+00 0. -1.
     999900   -1    0    0    0    0 -0.00000000000E+00 -0.00000000000E+00 -0.74505805969E-08  0.93827000000E+00  0.93827000000E+00 0. -1.
     999902    2    1    2    0    0 -0.69075789904E-02 -0.34959515777E-02 -0.21193081858E-01  0.10213671313E+01  0.10211178844E+01 0.  0.
     999903    2    3    3    0    0  0.60274029596E-01 -0.11105230714E+00 -0.24567722619E-01  0.13227032761E+00  0.30435062095E-01 0.  0.
         14    1    1    2    0    0  0.69075789904E-02  0.34959515777E-02  0.21193081858E-01  0.22562868692E-01  0.00000000000E+00 0. -1.
     999901    1    3    3    0    0 -0.67181608587E-01  0.10755635556E+00  0.33746407605E-02  0.88909680370E+00  0.88000000000E+00 0. -1.
        -11    1    4    4    0    0  0.66634944330E-02 -0.36435270916E-02 -0.80747225294E-02  0.11096833452E-01  0.51100000000E-03 0. -1.
         11    1    4    4    0    0  0.53610535163E-01 -0.10740878005E+00 -0.16493000089E-01  0.12117349415E+00  0.51100000000E-03 0.  1.
</event>
<event>
 8    1  0.1081309E+005  0.1043930E+01  0.7957747E-01            NaN
         13   -1    0    0    0    0  0.00000000000E+00  0.00000000000E+00  0.74505805969E-08  0.10566000000E+00  0.10566000000E+00 0. -1.
     999900   -1    0    0    0    0 -0.00000000000E+00 -0.00000000000E+00 -0.74505805969E-08  0.93827000000E+00  0.93827000000E+00 0. -1.
     999902    2    1    2    0    0  0.12549355348E-01 -0.17904751991E-01 -0.10626865337E-01  0.10196195757E+01  0.10193297221E+01 0.  0.
     999903    2    3    3    0    0 -0.33591269651E-01 -0.11606351387E+00  0.46807742254E-01  0.13110236485E+00  0.19943737970E-01 0.  0.
         14    1    1    2    0    0 -0.12549355348E-01  0.17904751991E-01  0.10626865337E-01  0.24310424315E-01  0.00000000000E+00 0. -1.
     999901    1    3    3    0    0  0.46140624999E-01  0.98158761880E-01 -0.57434607591E-01  0.88851721084E+00  0.88000000000E+00 0. -1.
        -11    1    4    4    0    0 -0.14528015689E-01 -0.66094912535E-01  0.16614006064E-01  0.69684194918E-01  0.51100000000E-03 0.  1.
         11    1    4    4    0    0 -0.19063253962E-01 -0.49968601336E-01  0.30193736190E-01  0.61418169927E-01  0.51100000000E-03 0. -1.
</event>
<event>
 8    1  0.1081309E+005  0.1043930E+01  0.7957747E-01            NaN
         13   -1    0    0    0    0  0.00000000000E+00  0.00000000000E+00  0.74505805969E-08  0.10566000000E+00  0.10566000000E+00 0.  1.
     999900   -1    0    0    0    0 -0.00000000000E+00 -0.00000000000E+00 -0.74505805969E-08  0.93827000000E+00  0.93827000000E+00 0. -1.
     999902    2    1    2    0    0 -0.32088292130E-02 -0.20975491327E-01 -0.11055783462E-01  0.10200030660E+01  0.10197223919E+01 0.  0.
     999903    2    3    3    0    0  0.12808484167E+00  0.57935609286E-02  0.12256089237E-03  0.12978985249E+00  0.20151892597E-01 0.  0.
         14    1    1    2    0    0  0.32088292130E-02  0.20975491327E-01  0.11055783462E-01  0.23926933971E-01  0.00000000000E+00 0.  1.
     999901    1    3    3    0    0 -0.13129367088E+00 -0.26769052255E-01 -0.11178344355E-01  0.89021321354E+00  0.88000000000E+00 0.  1.
        -11    1    4    4    0    0  0.53617493972E-01  0.59438760584E-02  0.93448188106E-02  0.54751731315E-01  0.51100000000E-03 0. -1.
         11    1    4    4    0    0  0.74467347697E-01 -0.15031512976E-03 -0.92222579183E-02  0.75038121177E-01  0.51100000000E-03 0.  1.
</event>
<event>
 8    1  0.1081309E+005  0.1043930E+01  0.7957747E-01            NaN
         13   -1    0    0    0    0  0.00000000000E+00  0.00000000000E+00  0.74505805969E-08  0.10566000000E+00  0.10566000000E+00 0.  1.
     999900   -1    0    0    0    0 -0.00000000000E+00 -0.00000000000E+00 -0.74505805969E-08  0.93827000000E+00  0.93827000000E+00 0.  1.
     999902    2    1    2    0    0 -0.10730855348E-01  0.17008103147E-01  0.11828056461E-01  0.10205991246E+01  0.10203324180E+01 0.  0.
     999903    2    3    3    0    0  0.45807409168E-01  0.12088900401E+00  0.22087826927E-01  0.13262779630E+00  0.19743105812E-01 0.  0.
         14    1    1    2    0    0  0.10730855348E-01 -0.17008103147E-01 -0.11828056461E-01  0.23330875440E-01  0.00000000000E+00 0. -1.
     999901    1    3    3    0    0 -0.56538264516E-01 -0.10388090087E+00 -0.10259770465E-01  0.88797132826E+00  0.88000000000E+00 0. -1.
        -11    1    4    4    0    0  0.18733915244E-01  0.26551101571E-01  0.29542049748E-02  0.32632943830E-01  0.51100000000E-03 0.  1.
         11    1    4    4    0    0  0.27073493924E-01  0.94337902444E-01  0.19133621952E-01  0.99994852471E-01  0.51100000000E-03 0. -1.
</event>
<event>
 8    1  0.1081309E+005  0.1043930E+01  0.7957747E-01            NaN
         13   -1    0    0    0    0  0.00000000000E+00  0.00000000000E+00  0.74505805969E-08  0.10566000000E+00  0.10566000000E+00 0. -1.
     999900   -1    0    0    0    0 -0.00000000000E+00 -0.00000000000E+00 -0.74505805969E-08  0.93827000000E+00  0.93827000000E+00 0. -1.
     999902    2    1    2    0    0  0.91578140055E-02  0.14273094345E-01 -0.15364824947E-01  0.10210462803E+01  0.10207898128E+01 0.  0.
     999903    2    3    3    0    0  0.10552882022E+00 -0.96767628716E-02 -0.78228319866E-01  0.13323279459E+00  0.20033369363E-01 0.  0.
         14    1    1    2    0    0 -0.91578140055E-02 -0.14273094345E-01  0.15364824947E-01  0.22883719654E-01  0.00000000000E+00 0. -1.
     999901    1    3    3    0    0 -0.96371006215E-01  0.23949857217E-01  0.62863494919E-01  0.88781348576E+00  0.88000000000E+00 0.  1.
        -11    1    4    4    0    0  0.66866042362E-01 -0.40995571997E-02 -0.37404608545E-01  0.76728351030E-01  0.51100000000E-03 0. -1.
         11    1    4    4    0    0  0.38662777859E-01 -0.55772056719E-02 -0.40823711321E-01  0.56504443559E-01  0.51100000000E-03 0.  1.
</event>
<event>
 7    1  0.1081309E+005  0.1043930E+01  0.7957747E-01            NaN
         13   -1    0    0    0    0  0.00000000000E+00  0.00000000000E+00  0.74505805969E-08  0.10566000000E+00  0.10566000000E+00 0.  1.
     999900   -1    0    0    0    0 -0.00000000000E+00 -0.00000000000E+00 -0.74505805969E-08  0.93827000000E+00  0.93827000000E+00 0. -1.
     999903    2    1    2    0    0 -0.21566556388E-01  0.26674476729E-01  0.66920032680E-01  0.78124450654E-01  0.21177699423E-01 0.  0.
         14    1    1    2    0    0  0.58369997361E-01 -0.56929145999E-01  0.42642446509E-02  0.81646604575E-01  0.00000000000E+00 0. -1.
     999901    1    1    2    0    0 -0.36803440974E-01  0.30254669271E-01 -0.71184277331E-01  0.88415894477E+00  0.88000000000E+00 0. -1.
        -11    1    3    3    0    0 -0.65388426592E-02 -0.58620381185E-03  0.34587696705E-02  0.74380311148E-02  0.51100000000E-03 0. -1.
         11    1    3    3    0    0 -0.15027713728E-01  0.27260680541E-01  0.63461263010E-01  0.70686419539E-01  0.51100000000E-03 0.  1.
</event>
<event>
 8    1  0.1081309E+005  0.1043930E+01  0.7957747E-01            NaN
         13   -1    0    0    0    0  0.00000000000E+00  0.00000000000E+00  0.74505805969E-08  0.10566000000E+00  0.10566000000E+00 0.  1.
     999900   -1    0    0    0    0 -0.00000000000E+00 -0.00000000000E+00 -0.74505805969E-08  0.93827000000E+00  0.93827000000E+00 0. -1.
     999902    2    1    2    0    0 -0.18370260772E-01 -0.13420651860E-01 -0.65219022742E-02  0.10202632388E+01  0.10199887062E+01 0.  0.
     999903    2    3    3    0    0  0.12236291030E+00 -0.34151491751E-01 -0.10193180893E-01  0.12883232646E+00  0.18837759893E-01 0.  0.
         14    1    1    2    0    0  0.18370260772E-01  0.13420651860E-01  0.65219022742E-02  0.23666761215E-01  0.00000000000E+00 0.  1.
     999901    1    3    3    0    0 -0.14073317107E+00  0.20730839891E-01  0.36712786191E-02  0.89143091233E+00  0.88000000000E+00 0. -1.
        -11    1    4    4    0    0  0.45091680546E-01 -0.36606434708E-02 -0.61957069492E-02  0.45665171309E-01  0.51100000000E-03 0. -1.
         11    1    4    4    0    0  0.77271229756E-01 -0.30490848280E-01 -0.39974739441E-02  0.83167155150E-01  0.51100000000E-03 0.  1.
</event>
<event>
 8    1  0.1081309E+005  0.1043930E+01  0.7957747E-01            NaN
         13   -1    0    0    0    0  0.00000000000E+00  0.00000000000E+00  0.74505805969E-08  0.10566000000E+00  0.10566000000E+00 0.  1.
     999900   -1    0    0    0    0 -0.00000000000E+00 -0.00000000000E+00 -0.74505805969E-08  0.93827000000E+00  0.93827000000E+00 0.  1.
     999902    2    1    2    0    0  0.48635594411E-02 -0.21229111693E-01 -0.75102345790E-02  0.10208923565E+01  0.10206323876E+01 0.  0.
     999903    2    3    3    0    0 -0.50653458492E-01  0.10424250053E+00 -0.53312509901E-01  0.12908345705E+00  0.19698817138E-01 0.  0.
         14    1    1    2    0    0 -0.48635594411E-02  0.21229111693E-01  0.75102345790E-02  0.23037643481E-01  0.00000000000E+00 0.  1.
     999901    1    3    3    0    0  0.55517017933E-01 -0.12547161223E+00  0.45802275322E-01  0.89180889947E+00  0.88000000000E+00 0. -1.
        -11    1    4    4    0    0 -0.26352194545E-01  0.41971636488E-01 -0.31690439415E-01  0.58826877345E-01  0.51100000000E-03 0.  1.
         11    1    4    4    0    0 -0.24301263947E-01  0.62270864045E-01 -0.21622070486E-01  0.70256579702E-01  0.51100000000E-03 0. -1.
</event>
<event>
 8    1  0.1081309E+005  0.1043930E+01  0.7957747E-01            NaN
         13   -1    0    0    0    0  0.00000000000E+00  0.00000000000E+00  0.74505805969E-08  0.10566000000E+00  0.10566000000E+00 0.  1.
     999900   -1    0    0    0    0 -0.00000000000E+00 -0.00000000000E+00 -0.74505805969E-08  0.93827000000E+00  0.93827000000E+00 0.  1.
     999902    2    1    2    0    0  0.11370353779E-01 -0.15576279473E-01 -0.13891702083E-01  0.10201626944E+01  0.10198857967E+01 0.  0.
     999903    2    3    3    0    0 -0.60094348171E-01 -0.10510193201E+00 -0.49095867767E-01  0.13204030457E+00  0.19143954809E-01 0.  0.
         14    1    1    2    0    0 -0.11370353779E-01  0.15576279473E-01  0.13891702083E-01  0.23767305569E-01  0.00000000000E+00 0.  1.
     999901    1    3    3    0    0  0.71464701950E-01  0.89525652536E-01  0.35204165684E-01  0.88812238986E+00  0.88000000000E+00 0.  1.
        -11    1    4    4    0    0 -0.32258993294E-01 -0.72090128075E-01 -0.36848165631E-01  0.87153184943E-01  0.51100000000E-03 0.  1.
         11    1    4    4    0    0 -0.27835354877E-01 -0.33011803933E-01 -0.12247702136E-01  0.44887119630E-01  0.51100000000E-03 0. -1.
</event>
<event>
 8    1  0.1081309E+005  0.1043930E+01  0.7957747E-01            NaN
         13   -1    0    0    0    0  0.00000000000E+00  0.00000000000E+00  0.74505805969E-08  0.10566000000E+00  0.10566000000E+00 0. -1.
     999900   -1    0    0    0    0 -0.00000000000E+00 -0.00000000000E+00 -0.74505805969E-08  0.93827000000E+00  0.93827000000E+00 0. -1.
     999902    2    1    2    0    0 -0.11053368495E-01  0.10231716236E-01 -0.18597293703E-01  0.10199983409E+01  0.10197175546E+01 0.  0.
     999903    2    3    3    0    0  0.12004590226E+00 -0.41428697651E-01 -0.57601056601E-02  0.12869558062E+00  0.20050386948E-01 0.  0.
         14    1    1    2    0    0  0.11053368495E-01 -0.10231716236E-01  0.18597293703E-01  0.23931659058E-01  0.00000000000E+00 0. -1.
     999901    1    3    3    0    0 -0.13109927075E+00  0.51660413887E-01 -0.12837188043E-01  0.89130276032E+00  0.88000000000E+00 0.  1.
        -11    1    4    4    0    0  0.81569761089E-01 -0.37697874152E-01 -0.55975078384E-02  0.90035264506E-01  0.51100000000E-03 0. -1.
         11    1    4    4    0    0  0.38476141168E-01 -0.37308234991E-02 -0.16259782166E-03  0.38660316117E-01  0.51100000000E-03 0.  1.
</event>
<event>
 8    1  0.1081309E+005  0.1043930E+01  0.7957747E-01            NaN
         13   -1    0    0    0    0  0.00000000000E+00  0.00000000000E+00  0.74505805969E-08  0.10566000000E+00  0.10566000000E+00 0. -1.
     999900   -1    0    0    0    0 -0.00000000000E+00 -0.00000000000E+00 -0.74505805969E-08  0.93827000000E+00  0.93827000000E+00 0.  1.
     999902    2    1    2    0    0 -0.18708230413E-01  0.11979716827E-01 -0.85489622509E-02  0.10201267175E+01  0.10198489710E+01 0.  0.
     999903    2    3    3    0    0  0.96665697568E-01 -0.71338440099E-01 -0.39875402606E-01  0.12814330716E+00  0.19930612476E-01 0.  0.
         14    1    1    2    0    0  0.18708230413E-01 -0.11979716827E-01  0.85489622509E-02  0.23803282462E-01  0.00000000000E+00 0. -1.
     999901    1    3    3    0    0 -0.11537392798E+00  0.83318156926E-01  0.31326440355E-01  0.89198341038E+00  0.88000000000E+00 0.  1.
        -11    1    4    4    0    0  0.14737029166E-01 -0.29025482087E-02 -0.48604450627E-02  0.15795248081E-01  0.51100000000E-03 0. -1.
         11    1    4    4    0    0  0.81928668402E-01 -0.68435891891E-01 -0.35014957544E-01  0.11234805907E+00  0.51100000000E-03 0.  1.
</event>
<event>
 8    1  0.1081309E+005  0.1043930E+01  0.7957747E-01            NaN
         13   -1    0    0    0    0  0.00000000000E+00  0.00000000000E+00  0.74505805969E-08  0.10566000000E+00  0.10566000000E+00 0.  1.
     999900   -1    0    0    0    0 -0.00000000000E+00 -0.00000000000E+00 -0.74505805969E-08  0.93827000000E+00  0.93827000000E+00 0.  1.
     999902    2    1    2    0    0 -0.21680112169E-01  0.91077139127E-02 -0.27889649252E-02  0.10202497120E+01  0.10199748618E+01 0.  0.
     999903    2    3    3    0    0  0.16987396139E-01  0.64456036665E-01 -0.11102672090E+00  0.13105118247E+00  0.20107893506E-01 0.  0.
         14    1    1    2    0    0  0.21680112169E-01 -0.91077139127E-02  0.27889649252E-02  0.23680288041E-01  0.00000000000E+00 0. -1.
     999901    1    3    3    0    0 -0.38667508308E-01 -0.55348322752E-01  0.10823775598E+00  0.88919852949E+00  0.88000000000E+00 0. -1.
        -11    1    4    4    0    0  0.16673175998E-01  0.24545533387E-01 -0.45402156146E-01  0.54241081395E-01  0.51100000000E-03 0.  1.
         11    1    4    4    0    0  0.31422014143E-03  0.39910503278E-01 -0.65624564757E-01  0.76810101073E-01  0.51100000000E-03 0. -1.
</event>
<event>
 8    1  0.1081309E+005  0.1043930E+01  0.7957747E-01            NaN
         13   -1    0    0    0    0  0.00000000000E+00  0.00000000000E+00  0.74505805969E-08  0.10566000000E+00  0.10566000000E+00 0.  1.
     999900   -1    0    0    0    0 -0.00000000000E+00 -0.00000000000E+00 -0.74505805969E-08  0.93827000000E+00  0.93827000000E+00 0. -1.
     999902    2    1    2    0    0  0.23543310886E-01 -0.41009754330E-02 -0.63472806864E-03  0.10200237588E+01  0.10197435757E+01 0.  0.
     999903    2    3    3    0    0 -0.70364795024E-01  0.51023967596E-01 -0.92546858663E-01  0.12856129106E+00  0.20209771460E-01 0.  0.
         14    1    1    2    0    0 -0.23543310886E-01  0.41009754330E-02  0.63472806864E-03  0.23906241166E-01  0.00000000000E+00 0. -1.
     999901    1    3    3    0    0  0.93908105910E-01 -0.55124943029E-01  0.91912130594E-01  0.89146246777E+00  0.88000000000E+00 0. -1.
        -11    1    4    4    0    0 -0.34886603516E-01  0.27459286830E-01 -0.61502309849E-01  0.75854352385E-01  0.51100000000E-03 0.  1.
         11    1    4    4    0    0 -0.35478191509E-01  0.23564680766E-01 -0.31044548814E-01  0.52706938674E-01  0.51100000000E-03 0. -1.
</event>
<event>
 8    1  0.1081309E+005  0.1043930E+01  0.7957747E-01            NaN
         13   -1    0    0    0    0  0.00000000000E+00  0.00000000000E+00  0.74505805969E-08  0.10566000000E+00  0.10566000000E+00 0.  1.
     999900   -1    0    0    0    0 -0.00000000000E+00 -0.00000000000E+00 -0.74505805969E-08  0.93827000000E+00  0.93827000000E+00 0. -1.
     999902    2    1    2    0    0  0.21482132041E-01 -0.86358706009E-02  0.68354891254E-03  0.10207669368E+01  0.10205040969E+01 0.  0.
     999903    2    3    3    0    0 -0.80272951940E-01 -0.10047557802E+00  0.82396364883E-03  0.13015554640E+00  0.20017461194E-01 0.  0.
         14    1    1    2    0    0 -0.21482132041E-01  0.86358706009E-02 -0.68354891254E-03  0.23163063208E-01  0.00000000000E+00 0.  1.
     999901    1    3    3    0    0  0.10175508398E+00  0.91839707415E-01 -0.14041473628E-03  0.89061139039E+00  0.88000000000E+00 0.  1.
        -11    1    4    4    0    0 -0.48617052470E-01 -0.74620492453E-01 -0.29064883739E-02  0.89109732804E-01  0.51100000000E-03 0. -1.
         11    1    4    4    0    0 -0.31655899470E-01 -0.25855085563E-01  0.37304520227E-02  0.41045813599E-01  0.51100000000E-03 0.  1.
</event>
<event>
 8    1  0.1081309E+005  0.1043930E+01  0.7957747E-01            NaN
         13   -1    0    0    0    0  0.00000000000E+00  0.00000000000E+00  0.74505805969E-08  0.10566000000E+00  0.10566000000E+00 0.  1.
     999900   -1    0    0    0    0 -0.00000000000E+00 -0.00000000000E+00 -0.74505805969E-08  0.93827000000E+00  0.93827000000E+00 0.  1.
     999902    2    1    2    0    0  0.17216151576E-01  0.10684519457E-02  0.16295601738E-01  0.10202006068E+01  0.10199246021E+01 0.  0.
     999903    2    3    3    0    0  0.71159819667E-01 -0.31660334794E-01 -0.10223432445E+00  0.13001498786E+00  0.19645438083E-01 0.  0.
         14    1    1    2    0    0 -0.17216151576E-01 -0.10684519457E-02 -0.16295601738E-01  0.23729393179E-01  0.00000000000E+00 0. -1.
     999901    1    3    3    0    0 -0.53943668090E-01  0.32728786740E-01  0.11852992619E+00  0.89018561896E+00  0.88000000000E+00 0. -1.
        -11    1    4    4    0    0  0.21359430617E-01 -0.50599029469E-02 -0.16966204773E-01  0.27747812878E-01  0.51100000000E-03 0. -1.
         11    1    4    4    0    0  0.49800389049E-01 -0.26600431847E-01 -0.85268119676E-01  0.10226717498E+00  0.51100000000E-03 0.  1.
</event>
<event>
 8    1  0.1081309E+005  0.1043930E+01  0.7957747E-01            NaN
         13   -1    0    0    0    0  0.00000000000E+00  0.00000000000E+00  0.74505805969E-08  0.10566000000E+00  0.10566000000E+00 0.  1.
     999900   -1    0    0    0    0 -0.00000000000E+00 -0.00000000000E+00 -0.74505805969E-08  0.93827000000E+00  0.93827000000E+00 0.  1.
     999902    2    1    2    0    0  0.16692720815E-01  0.10669481630E-02  0.16558683235E-01  0.10203933202E+01  0.10201218322E+01 0.  0.
     999903    2    3    3    0    0 -0.68925696573E-01 -0.45830192790E-02 -0.10555704627E+00  0.12782697143E+00  0.20632229466E-01 0.  0.
         14    1    1    2    0    0 -0.16692720815E-01 -0.10669481630E-02 -0.16558683235E-01  0.23536679822E-01  0.00000000000E+00 0. -1.
     999901    1    3    3    0    0  0.85618417388E-01  0.56499674419E-02  0.12211572951E+00  0.89256634875E+00  0.88000000000E+00 0. -1.
        -11    1    4    4    0    0 -0.40292709921E-01  0.71387620763E-02 -0.55050801253E-01  0.68595307685E-01  0.51100000000E-03 0.  1.
         11    1    4    4    0    0 -0.28632986651E-01 -0.11721781355E-01 -0.50506245020E-01  0.59231663743E-01  0.51100000000E-03 0. -1.
</event>
<event>
 8    1  0.1081309E+005  0.1043930E+01  0.7957747E-01            NaN
         13   -1    0    0    0    0  0.00000000000E+00  0.00000000000E+00  0.74505805969E-08  0.10566000000E+00  0.10566000000E+00 0.  1.
     999900   -1    0    0    0    0 -0.00000000000E+00 -0.00000000000E+00 -0.74505805969E-08  0.93827000000E+00  0.93827000000E+00 0. -1.
     999902    2    1    2    0    0  0.27874617975E-02 -0.13420490808E-02  0.22377993704E-01  0.10213391691E+01  0.10210892971E+01 0.  0.
     999903    2    3    3    0    0 -0.12454382790E-01  0.33327749013E-01 -0.12206663066E+00  0.12875944815E+00  0.20319514308E-01 0.  0.
         14    1    1    2    0    0 -0.27874617975E-02  0.13420490808E-02 -0.22377993704E-01  0.22590830910E-01  0.00000000000E+00 0. -1.
     999901    1    3    3    0    0  0.15241844588E-01 -0.34669798094E-01  0.14444462437E+00  0.89257972094E+00  0.88000000000E+00 0.  1.
        -11    1    4    4    0    0 -0.18056651160E-01  0.26992138724E-01 -0.95115214829E-01  0.10050762865E+00  0.51100000000E-03 0. -1.
         11    1    4    4    0    0  0.56022683693E-02  0.63356102894E-02 -0.26951415832E-01  0.28251819499E-01  0.51100000000E-03 0.  1.
</event>
<event>
 8    1  0.1081309E+005  0.1043930E+01  0.7957747E-01            NaN
         13   -1    0    0    0    0  0.00000000000E+00  0.00000000000E+00  0.74505805969E-08  0.10566000000E+00  0.10566000000E+00 0. -1.
     999900   -1    0    0    0    0 -0.00000000000E+00 -0.00000000000E+00 -0.74505805969E-08  0.93827000000E+00  0.93827000000E+00 0.  1.
     999902    2    1    2    0    0  0.12382187175E-01 -0.46239796059E-02  0.20021518232E-01  0.10199391488E+01  0.10196569553E+01 0.  0.
     999903    2    3    3    0    0  0.40889760773E-01  0.57766943969E-01  0.11030990590E+00  0.13266393673E+00  0.20553647261E-01 0.  0.
         14    1    1    2    0    0 -0.12382187175E-01  0.46239796059E-02 -0.20021518232E-01  0.23990851151E-01  0.00000000000E+00 0.  1.
     999901    1    3    3    0    0 -0.28507573598E-01 -0.62390923575E-01 -0.90288387673E-01  0.88727521212E+00  0.88000000000E+00 0. -1.
        -11    1    4    4    0    0  0.38682066291E-01  0.47830733014E-01  0.10351633451E+00  0.12041583743E+00  0.51100000000E-03 0. -1.
         11    1    4    4    0    0  0.22076944815E-02  0.99362109554E-02  0.67935713991E-02  0.12248099299E-01  0.51100000000E-03 0.  1.
</event>
<event>
 8    1  0.1081309E+005  0.1043930E+01  0.7957747E-01            NaN
         13   -1    0    0    0    0  0.00000000000E+00  0.00000000000E+00  0.74505805969E-08  0.10566000000E+00  0.10566000000E+00 0. -1.
     999900   -1    0    0    0    0 -0.00000000000E+00 -0.00000000000E+00 -0.74505805969E-08  0.93827000000E+00  0.93827000000E+00 0.  1.
     999902    2    1    2    0    0 -0.21580245881E-01  0.96949950662E-02  0.40711849825E-02  0.10199242822E+01  0.10196417346E+01 0.  0.
     999903    2    3    3    0    0  0.72862465537E-02  0.12779578872E+00 -0.20736922924E-01  0.13121931759E+00  0.20090702620E-01 0.  0.
         14    1    1    2    0    0  0.21580245881E-01 -0.96949950662E-02 -0.40711849825E-02  0.24005717835E-01  0.00000000000E+00 0.  1.
     999901    1    3    3    0    0 -0.28866492435E-01 -0.11810079366E+00  0.24808107907E-01  0.88870496458E+00  0.88000000000E+00 0.  1.
        -11    1    4    4    0    0 -0.21079087767E-03  0.21081514165E-01  0.38856816933E-02  0.21443747702E-01  0.51100000000E-03 0.  1.
         11    1    4    4    0    0  0.74970374313E-02  0.10671427456E+00 -0.24622604618E-01  0.10977556988E+00  0.51100000000E-03 0. -1.
</event>
<event>
 8    1  0.1081309E+005  0.1043930E+01  0.7957747E-01            NaN
         13   -1    0    0    0    0  0.00000000000E+00  0.00000000000E+00  0.74505805969E-08  0.10566000000E+00  0.10566000000E+00 0.  1.
     999900   -1    0    0    0    0 -0.00000000000E+00 -0.00000000000E+00 -0.74505805969E-08  0.93827000000E+00  0.93827000000E+00 0.  1.
     999902    2    1    2    0    0 -0.10989244796E-02  0.42827891458E-02  0.22855307709E-01  0.10206509320E+01  0.10203854222E+01 0.  0.
     999903    2    3    3    0    0 -0.46146156056E-01 -0.82115979154E-01 -0.85445785228E-01  0.12867384316E+00  0.19582490860E-01 0.  0.
         14    1    1    2    0    0  0.10989244796E-02 -0.42827891458E-02 -0.22855307709E-01  0.23279068030E-01  0.00000000000E+00 0. -1.
     999901    1    3    3    0    0  0.45047231576E-01  0.86398768300E-01  0.10830109294E+00  0.89197708881E+00  0.88000000000E+00 0. -1.
        -11    1    4    4    0    0 -0.16047311321E-01 -0.47408824605E-01 -0.48798512185E-01  0.69904712027E-01  0.51100000000E-03 0. -1.
         11    1    4    4    0    0 -0.30098844735E-01 -0.34707154549E-01 -0.36647273044E-01  0.58769131130E-01  0.51100000000E-03 0.  1.
</event>
<event>
 8    1  0.1081309E+005  0.1043930E+01  0.7957747E-01            NaN
         13   -1    0    0    0    0  0.00000000000E+00  0.00000000000E+00  0.74505805969E-08  0.10566000000E+00  0.10566000000E+00 0. -1.
     999900   -1    0    0    0    0 -0.00000000000E+00 -0.00000000000E+00 -0.74505805969E-08  0.93827000000E+00  0.93827000000E+00 0.  1.
     999902    2    1    2    0    0  0.17313458978E-01  0.11166733372E-01  0.10543203520E-01  0.10207867302E+01  0.10205243445E+01 0.  0.
     999903    2    3    3    0    0  0.10799383909E+00  0.54207930689E-01 -0.51791206449E-01  0.13288974595E+00  0.19395527333E-01 0.  0.
         14    1    1    2    0    0 -0.17313458978E-01 -0.11166733372E-01 -0.10543203520E-01  0.23143269787E-01  0.00000000000E+00 0.  1.
     999901    1    3    3    0    0 -0.90680380114E-01 -0.43041197318E-01  0.62334409969E-01  0.88789698427E+00  0.88000000000E+00 0. -1.
        -11    1    4    4    0    0  0.70517728706E-01  0.33759412626E-01 -0.23376597660E-01  0.81603764875E-01  0.51100000000E-03 0. -1.
         11    1    4    4    0    0  0.37476110387E-01  0.20448518064E-01 -0.28414608790E-01  0.51285981071E-01  0.51100000000E-03 0.  1.
</event>
<event>
 8    1  0.1081309E+005  0.1043930E+01  0.7957747E-01            NaN
         13   -1    0    0    0    0  0.00000000000E+00  0.00000000000E+00  0.74505805969E-08  0.10566000000E+00  0.10566000000E+00 0.  1.
     999900   -1    0    0    0    0 -0.00000000000E+00 -0.00000000000E+00 -0.74505805969E-08  0.93827000000E+00  0.93827000000E+00 0.  1.
     999902    2    1    2    0    0 -0.26336908680E-02  0.21441050744E-01  0.87914042352E-02  0.10206073978E+01  0.10203408826E+01 0.  0.
     999903    2    3    3    0    0 -0.12669438746E+00 -0.16202483930E-01  0.21134527048E-01  0.13102297527E+00  0.20158460179E-01 0.  0.
         14    1    1    2    0    0  0.26336908680E-02 -0.21441050744E-01 -0.87914042352E-02  0.23322602193E-01  0.00000000000E+00 0.  1.
     999901    1    3    3    0    0  0.12406069659E+00  0.37643534675E-01 -0.12343122813E-01  0.88958442254E+00  0.88000000000E+00 0.  1.
        -11    1    4    4    0    0 -0.60954734228E-01 -0.16865077709E-01  0.57922581634E-02  0.63511588286E-01  0.51100000000E-03 0. -1.
         11    1    4    4    0    0 -0.65739653227E-01  0.66259377904E-03  0.15342268885E-01  0.67511386984E-01  0.51100000000E-03 0.  1.
</event>
<event>
 8    1  0.1081309E+005  0.1043930E+01  0.7957747E-01            NaN
         13   -1    0    0    0    0  0.00000000000E+00  0.00000000000E+00  0.74505805969E-08  0.10566000000E+00  0.10566000000E+00 0. -1.
     999900   -1    0    0    0    0 -0.00000000000E+00 -0.00000000000E+00 -0.74505805969E-08  0.93827000000E+00  0.93827000000E+00 0.  1.
     999902    2    1    2    0    0 -0.22936751647E-01 -0.22462636372E-02  0.11386074434E-01  0.10182243009E+01  0.10178997711E+01 0.  0.
     999903    2    3    3    0    0 -0.46721022394E-01 -0.11720382279E+00 -0.21891313846E-01  0.12980530259E+00  0.21227268990E-01 0.  0.
         14    1    1    2    0    0  0.22936751647E-01  0.22462636372E-02 -0.11386074434E-01  0.25705699124E-01  0.00000000000E+00 0.  1.
     999901    1    3    3    0    0  0.23784270747E-01  0.11495755915E+00  0.33277388280E-01  0.88841899828E+00  0.88000000000E+00 0. -1.
        -11    1    4    4    0    0 -0.26562697774E-01 -0.56283372167E-01 -0.75592270379E-03  0.62243292294E-01  0.51100000000E-03 0.  1.
         11    1    4    4    0    0 -0.20158324619E-01 -0.60920450624E-01 -0.21135391142E-01  0.67562010297E-01  0.51100000000E-03 0. -1.
</event>
<event>
 8    1  0.1081309E+005  0.1043930E+01  0.7957747E-01            NaN
         13   -1    0    0    0    0  0.00000000000E+00  0.00000000000E+00  0.74505805969E-08  0.10566000000E+00  0.10566000000E+00 0.  1.
     999900   -1    0    0    0    0 -0.00000000000E+00 -0.00000000000E+00 -0.74505805969E-08  0.93827000000E+00  0.93827000000E+00 0.  1.
     999902    2    1    2    0    0  0.12791141348E-02 -0.47280446128E-02 -0.22922761608E-01  0.10204897880E+01  0.10202205467E+01 0.  0.
     999903    2    3    3    0    0 -0.51429948466E-01 -0.11913574787E+00 -0.33870398995E-02  0.13130532330E+00  0.19780037127E-01 0.  0.
         14    1    1    2    0    0 -0.12791141348E-02  0.47280446128E-02  0.22922761608E-01  0.23440211999E-01  0.00000000000E+00 0.  1.
     999901    1    3    3    0    0  0.52709062601E-01  0.11440770325E+00 -0.19535721708E-01  0.88918446470E+00  0.88000000000E+00 0. -1.
        -11    1    4    4    0    0 -0.27706326393E-01 -0.45852912540E-01 -0.78461024593E-02  0.54147507379E-01  0.51100000000E-03 0. -1.
         11    1    4    4    0    0 -0.23723622073E-01 -0.73282835326E-01  0.44590625598E-02  0.77157815921E-01  0.51100000000E-03 0.  1.
</event>
<event>
 8    1  0.1081309E+005  0.1043930E+01  0.7957747E-01            NaN
         13   -1    0    0    0    0  0.00000000000E+00  0.00000000000E+00  0.74505805969E-08  0.10566000000E+00  0.10566000000E+00 0.  1.
     999900   -1    0    0    0    0 -0.00000000000E+00 -0.00000000000E+00 -0.74505805969E-08  0.93827000000E+00  0.93827000000E+00 0.  1.
     999902    2    1    2    0    0 -0.22746315478E-01  0.60665156675E-02  0.41332777968E-02  0.10200285050E+01  0.10197484344E+01 0.  0.
     999903    2    3    3    0    0 -0.83619534189E-01 -0.99573043518E-01 -0.29936132447E-02  0.13159389408E+00  0.20024328831E-01 0.  0.
         14    1    1    2    0    0  0.22746315478E-01 -0.60665156675E-02 -0.41332777968E-02  0.23901495048E-01  0.00000000000E+00 0. -1.
     999901    1    3    3    0    0  0.60873218711E-01  0.10563955919E+00  0.71268910415E-02  0.88843461087E+00  0.88000000000E+00 0.  1.
        -11    1    4    4    0    0 -0.88777119890E-02 -0.28878674810E-02 -0.43951726733E-03  0.93599062589E-02  0.51100000000E-03 0.  1.
         11    1    4    4    0    0 -0.74741822200E-01 -0.96685176037E-01 -0.25540959773E-02  0.12223398782E+00  0.51100000000E-03 0. -1.
</event>
<event>
 8    1  0.1081309E+005  0.1043930E+01  0.7957747E-01            NaN
         13   -1    0    0    0    0  0.00000000000E+00  0.00000000000E+00  0.74505805969E-08  0.10566000000E+00  0.10566000000E+00 0.  1.
     999900   -1    0    0    0    0 -0.00000000000E+00 -0.00000000000E+00 -0.74505805969E-08  0.93827000000E+00  0.93827000000E+00 0.  1.
     999902    2    1    2    0    0 -0.23770389431E-01  0.20730211035E-02  0.30891662937E-02  0.10198702457E+01  0.10195864094E+01 0.  0.
     999903    2    3    3    0    0 -0.12551556749E+00  0.31406807320E-01 -0.24204597839E-01  0.13310223664E+00  0.19743292879E-01 0.  0.
         14    1    1    2    0    0  0.23770389431E-01 -0.20730211035E-02 -0.30891662937E-02  0.24059754333E-01  0.00000000000E+00 0.  1.
     999901    1    3    3    0    0  0.10174517806E+00 -0.29333786216E-01  0.27293764133E-01  0.88676800903E+00  0.88000000000E+00 0. -1.
        -11    1    4    4    0    0 -0.33045757959E-01  0.13876719802E-01 -0.13804986062E-01  0.38411251382E-01  0.51100000000E-03 0. -1.
         11    1    4    4    0    0 -0.92469809531E-01  0.17530087518E-01 -0.10399611777E-01  0.94690985259E-01  0.51100000000E-03 0.  1.
</event>
<event>
 8    1  0.1081309E+005  0.1043930E+01  0.7957747E-01            NaN
         13   -1    0    0    0    0  0.00000000000E+00  0.00000000000E+00  0.74505805969E-08  0.10566000000E+00  0.10566000000E+00 0.  1.
     999900   -1    0    0    0    0 -0.00000000000E+00 -0.00000000000E+00 -0.74505805969E-08  0.93827000000E+00  0.93827000000E+00 0.  1.
     999902    2    1    2    0    0 -0.73567437867E-02 -0.10590748954E-01 -0.19544008096E-01  0.10205151779E+01  0.10202465263E+01 0.  0.
     999903    2    3    3    0    0 -0.30307391010E-01 -0.10763670477E+00 -0.70002028604E-01  0.13344660016E+00  0.20087631056E-01 0.  0.
         14    1    1    2    0    0  0.73567437867E-02  0.10590748954E-01  0.19544008096E-01  0.23414822122E-01  0.00000000000E+00 0.  1.
     999901    1    3    3    0    0  0.22950647223E-01  0.97045955814E-01  0.50458020509E-01  0.88706857772E+00  0.88000000000E+00 0. -1.
        -11    1    4    4    0    0 -0.12838397035E-01 -0.17183293052E-01 -0.14436715703E-01  0.25860585451E-01  0.51100000000E-03 0. -1.
         11    1    4    4    0    0 -0.17468993975E-01 -0.90453411715E-01 -0.55565312901E-01  0.10758601471E+00  0.51100000000E-03 0.  1.
</event>
<event>
 8    1  0.1081309E+005  0.1043930E+01  0.7957747E-01            NaN
         13   -1    0    0    0    0  0.00000000000E+00  0.00000000000E+00  0.74505805969E-08  0.10566000000E+00  0.10566000000E+00 0. -1.
     999900   -1    0    0    0    0 -0.00000000000E+00 -0.00000000000E+00 -0.74505805969E-08  0.93827000000E+00  0.93827000000E+00 0.  1.
     999902    2    1    2    0    0  0.22571324484E-01 -0.12618740504E-02  0.61980832073E-02  0.10204891542E+01  0.10202198982E+01 0.  0.
     999903    2    3    3    0    0  0.53894513244E-02  0.12722525999E+00 -0.20783389054E-01  0.13058345123E+00  0.20119033546E-01 0.  0.
         14    1    1    2    0    0 -0.22571324484E-01  0.12618740504E-02 -0.61980832073E-02  0.23440845773E-01  0.00000000000E+00 0. -1.
     999901    1    3    3    0    0  0.17181873160E-01 -0.12848713404E+00  0.26981472261E-01  0.88990570300E+00  0.88000000000E+00 0.  1.
        -11    1    4    4    0    0  0.22420888137E-02  0.90581293477E-01 -0.55778522963E-02  0.90781998477E-01  0.51100000000E-03 0. -1.
         11    1    4    4    0    0  0.31473625107E-02  0.36643966510E-01 -0.15205536757E-01  0.39801452755E-01  0.51100000000E-03 0.  1.
</event>
<event>
 8    1  0.1081309E+005  0.1043930E+01  0.7957747E-01            NaN
         13   -1    0    0    0    0  0.00000000000E+00  0.00000000000E+00  0.74505805969E-08  0.10566000000E+00  0.10566000000E+00 0. -1.
     999900   -1    0    0    0    0 -0.00000000000E+00 -0.00000000000E+00 -0.74505805969E-08  0.93827000000E+00  0.93827000000E+00 0.  1.
     999902    2    1    2    0    0 -0.61577506435E-02 -0.74357233099E-02  0.13935339911E-01  0.10269770778E+01  0.10268371422E+01 0.  0.
     999903    2    3    3    0    0 -0.33192052305E-01  0.13014368960E+00  0.32085933533E-04  0.13576876945E+00  0.19851081797E-01 0.  0.
         14    1    1    2    0    0  0.61577506435E-02  0.74357233099E-02 -0.13935339911E-01  0.16952922242E-01  0.00000000000E+00 0.  1.
     999901    1    3    3    0    0  0.27034301661E-01 -0.13757941291E+00  0.13903253977E-01  0.89120830831E+00  0.88000000000E+00 0. -1.
        -11    1    4    4    0    0 -0.29448480174E-02  0.14943232800E-01 -0.63096802218E-02  0.16493802529E-01  0.51100000000E-03 0.  1.
         11    1    4    4    0    0 -0.30247204287E-01  0.11520045680E+00  0.63417661553E-02  0.11927496692E+00  0.51100000000E-03 0. -1.
</event>
<event>
 8    1  0.1081309E+005  0.1043930E+01  0.7957747E-01            NaN
         13   -1    0    0    0    0  0.00000000000E+00  0.00000000000E+00  0.74505805969E-08  0.10566000000E+00  0.10566000000E+00 0.  1.
     999900   -1    0    0    0    0 -0.00000000000E+00 -0.00000000000E+00 -0.74505805969E-08  0.93827000000E+00  0.93827000000E+00 0. -1.
     999902    2    1    2    0    0 -0.20813141086E-01  0.86507697708E-02  0.41325560293E-02  0.10210149246E+01  0.10207577458E+01 0.  0.
     999903    2    3    3    0    0 -0.46733732141E-01 -0.53206736337E-01  0.10983715300E+00  0.13215515509E+00  0.19641444089E-01 0.  0.
         14    1    1    2    0    0  0.20813141086E-01 -0.86507697708E-02 -0.41325560293E-02  0.22915075361E-01  0.00000000000E+00 0. -1.
     999901    1    3    3    0    0  0.25920591055E-01  0.61857506108E-01 -0.10570459697E+00  0.88885976955E+00  0.88000000000E+00 0. -1.
        -11    1    4    4    0    0 -0.18194363151E-01 -0.31444053119E-01  0.43038024920E-01  0.56323139445E-01  0.51100000000E-03 0. -1.
         11    1    4    4    0    0 -0.28539368990E-01 -0.21762683218E-01  0.66799128081E-01  0.75832015644E-01  0.51100000000E-03 0.  1.
</event>
<event>
 8    1  0.1290810E+005  0.1043930E+01  0.7957747E-01            NaN
         13   -1    0    0    0    0  0.00000000000E+00  0.00000000000E+00  0.74505805969E-08  0.10566000000E+00  0.10566000000E+00 0. -1.
     999900   -1    0    0    0    0 -0.00000000000E+00 -0.00000000000E+00 -0.74505805969E-08  0.93827000000E+00  0.93827000000E+00 0. -1.
     999902    2    1    2    0    0 -0.21661728613E-01 -0.81482253496E-02  0.66819193634E-02  0.10198411621E+01  0.10195566310E+01 0.  0.
     999903    2    3    3    0    0  0.20787010493E-01 -0.11797507877E+00  0.48979044019E-01  0.13099197362E+00  0.20241822648E-01 0.  0.
         14    1    1    2    0    0  0.21661728613E-01  0.81482253496E-02 -0.66819193634E-02  0.24088837856E-01  0.00000000000E+00 0.  1.
     999901    1    3    3    0    0 -0.42448739107E-01  0.10982685342E+00 -0.42297124655E-01  0.88884918852E+00  0.88000000000E+00 0.  1.
        -11    1    4    4    0    0  0.47035394732E-02 -0.80736511908E-01  0.30858506233E-01  0.86562209806E-01  0.51100000000E-03 0.  1.
         11    1    4    4    0    0  0.16083471020E-01 -0.37238566862E-01  0.18120537785E-01  0.44429763815E-01  0.51100000000E-03 0. -1.
</event>
<event>
 8    1  0.1081309E+005  0.1043930E+01  0.7957747E-01            NaN
         13   -1    0    0    0    0  0.00000000000E+00  0.00000000000E+00  0.74505805969E-08  0.10566000000E+00  0.10566000000E+00 0. -1.
     999900   -1    0    0    0    0 -0.00000000000E+00 -0.00000000000E+00 -0.74505805969E-08  0.93827000000E+00  0.93827000000E+00 0. -1.
     999902    2    1    2    0    0 -0.29458435016E-02 -0.23910919842E-01  0.14503606452E-02  0.10197946809E+01  0.10195090375E+01 0.  0.
     999903    2    3    3    0    0 -0.15655306038E-01  0.60401648787E-01 -0.11042265248E+00  0.12862370364E+00  0.21388014735E-01 0.  0.
         14    1    1    2    0    0  0.29458435016E-02  0.23910919842E-01 -0.14503606452E-02  0.24135319091E-01  0.00000000000E+00 0.  1.
     999901    1    3    3    0    0  0.12709462536E-01 -0.84312568629E-01  0.11187301312E+00  0.89117097727E+00  0.88000000000E+00 0.  1.
        -11    1    4    4    0    0 -0.20199581911E-01  0.39097438709E-01 -0.78002214053E-01  0.89561371926E-01  0.51100000000E-03 0. -1.
         11    1    4    4    0    0  0.45442758736E-02  0.21304210078E-01 -0.32420438423E-01  0.39062331712E-01  0.51100000000E-03 0.  1.
</event>
<event>
 8    1  0.1081309E+005  0.1043930E+01  0.7957747E-01            NaN
         13   -1    0    0    0    0  0.00000000000E+00  0.00000000000E+00  0.74505805969E-08  0.10566000000E+00  0.10566000000E+00 0.  1.
     999900   -1    0    0    0    0 -0.00000000000E+00 -0.00000000000E+00 -0.74505805969E-08  0.93827000000E+00  0.93827000000E+00 0.  1.
     999902    2    1    2    0    0  0.16797931453E-01  0.94101861593E-02  0.14274535908E-01  0.10199615941E+01  0.10196799346E+01 0.  0.
     999903    2    3    3    0    0 -0.53036956948E-01 -0.10314936976E+00 -0.49568395164E-01  0.12776067219E+00  0.20323687485E-01 0.  0.
         14    1    1    2    0    0 -0.16797931453E-01 -0.94101861593E-02 -0.14274535908E-01  0.23968405872E-01  0.00000000000E+00 0.  1.
     999901    1    3    3    0    0  0.69834888402E-01  0.11255955592E+00  0.63842931072E-01  0.89220092194E+00  0.88000000000E+00 0. -1.
        -11    1    4    4    0    0 -0.40045536075E-01 -0.73462710812E-01 -0.25757218621E-01  0.87544904315E-01  0.51100000000E-03 0. -1.
         11    1    4    4    0    0 -0.12991420874E-01 -0.29686658952E-01 -0.23811176543E-01  0.40215767870E-01  0.51100000000E-03 0.  1.
</event>
<event>
 7    1  0.1081309E+005  0.1043930E+01  0.7957747E-01            NaN
         13   -1    0    0    0    0  0.00000000000E+00  0.00000000000E+00  0.74505805969E-08  0.10566000000E+00  0.10566000000E+00 0. -1.
     999900   -1    0    0    0    0 -0.00000000000E+00 -0.00000000000E+00 -0.74505805969E-08  0.93827000000E+00  0.93827000000E+00 0. -1.
     999903    2    1    2    0    0  0.72190977105E-01 -0.36219143735E-01 -0.28191584613E-01  0.87870449836E-01  0.20077025755E-01 0.  0.
         14    1    1    2    0    0  0.14483148739E-01  0.65490408045E-01  0.24209394790E-01  0.71308133753E-01  0.00000000000E+00 0.  1.
     999901    1    1    2    0    0 -0.86674125844E-01 -0.29271264309E-01  0.39821898230E-02  0.88475141641E+00  0.88000000000E+00 0. -1.
        -11    1    3    3    0    0  0.60354350057E-01 -0.25573469446E-01 -0.15135920612E-01  0.67275605713E-01  0.51100000000E-03 0. -1.
         11    1    3    3    0    0  0.11836627048E-01 -0.10645674290E-01 -0.13055664001E-01  0.20594844123E-01  0.51100000000E-03 0.  1.
</event>
<event>
 8    1  0.1081309E+005  0.1043930E+01  0.7957747E-01            NaN
         13   -1    0    0    0    0  0.00000000000E+00  0.00000000000E+00  0.74505805969E-08  0.10566000000E+00  0.10566000000E+00 0. -1.
     999900   -1    0    0    0    0 -0.00000000000E+00 -0.00000000000E+00 -0.74505805969E-08  0.93827000000E+00  0.93827000000E+00 0.  1.
     999902    2    1    2    0    0 -0.17310111389E-01 -0.40614152095E-02 -0.15882046028E-01  0.10200893952E+01  0.10198107667E+01 0.  0.
     999903    2    3    3    0    0  0.10381348632E+00  0.70840622915E-01  0.14933043884E-01  0.12810799912E+00  0.19824980259E-01 0.  0.
         14    1    1    2    0    0  0.17310111389E-01  0.40614152095E-02  0.15882046028E-01  0.23840604771E-01  0.00000000000E+00 0. -1.
     999901    1    3    3    0    0 -0.12112359771E+00 -0.74902038125E-01 -0.30815089912E-01  0.89198139611E+00  0.88000000000E+00 0. -1.
        -11    1    4    4    0    0  0.47592721963E-01  0.43163139719E-01  0.12068947676E-01  0.65376176344E-01  0.51100000000E-03 0.  1.
         11    1    4    4    0    0  0.56220764356E-01  0.27677483196E-01  0.28640962081E-02  0.62731822777E-01  0.51100000000E-03 0. -1.
</event>
<event>
 8    1  0.1081309E+005  0.1043930E+01  0.7957747E-01            NaN
         13   -1    0    0    0    0  0.00000000000E+00  0.00000000000E+00  0.74505805969E-08  0.10566000000E+00  0.10566000000E+00 0.  1.
     999900   -1    0    0    0    0 -0.00000000000E+00 -0.00000000000E+00 -0.74505805969E-08  0.93827000000E+00  0.93827000000E+00 0. -1.
     999902    2    1    2    0    0  0.21465038128E-01  0.99431560868E-02  0.27324147399E-02  0.10201165520E+01  0.10198385654E+01 0.  0.
     999903    2    3    3    0    0 -0.55655188284E-01 -0.93078997163E-01  0.66547140522E-01  0.12847009034E+00  0.17743801868E-01 0.  0.
         14    1    1    2    0    0 -0.21465038128E-01 -0.99431560868E-02 -0.27324147399E-02  0.23813447989E-01  0.00000000000E+00 0. -1.
     999901    1    3    3    0    0  0.77120226413E-01  0.10302215325E+00 -0.63814725782E-01  0.89164646167E+00  0.88000000000E+00 0. -1.
        -11    1    4    4    0    0 -0.30250914058E-01 -0.36600660029E-01  0.34823204589E-01  0.58886694717E-01  0.51100000000E-03 0.  1.
         11    1    4    4    0    0 -0.25404274226E-01 -0.56478337135E-01  0.31723935933E-01  0.69583395624E-01  0.51100000000E-03 0. -1.
</event>
<event>
 8    1  0.1081309E+005  0.1043930E+01  0.7957747E-01            NaN
         13   -1    0    0    0    0  0.00000000000E+00  0.00000000000E+00  0.74505805969E-08  0.10566000000E+00  0.10566000000E+00 0.  1.
     999900   -1    0    0    0    0 -0.00000000000E+00 -0.00000000000E+00 -0.74505805969E-08  0.93827000000E+00  0.93827000000E+00 0.  1.
     999902    2    1    2    0    0 -0.11250497870E-01 -0.18079186951E-01 -0.92638079219E-02  0.10207082679E+01  0.10204440795E+01 0.  0.
     999903    2    3    3    0    0 -0.80205210305E-01  0.61035217321E-01  0.79700047611E-01  0.13001841791E+00  0.19862474521E-01 0.  0.
         14    1    1    2    0    0  0.11250497870E-01  0.18079186951E-01  0.92638079219E-02  0.23221732070E-01  0.00000000000E+00 0.  1.
     999901    1    3    3    0    0  0.68954712435E-01 -0.79114404272E-01 -0.88963855533E-01  0.89068985002E+00  0.88000000000E+00 0.  1.
        -11    1    4    4    0    0 -0.27408194367E-01  0.11048776867E-01  0.28778458347E-01  0.41252216602E-01  0.51100000000E-03 0.  1.
         11    1    4    4    0    0 -0.52797015938E-01  0.49986440454E-01  0.50921589263E-01  0.88766201312E-01  0.51100000000E-03 0. -1.
</event>
<event>
 8    1  0.1081309E+005  0.1043930E+01  0.7957747E-01            NaN
         13   -1    0    0    0    0  0.00000000000E+00  0.00000000000E+00  0.74505805969E-08  0.10566000000E+00  0.10566000000E+00 0.  1.
     999900   -1    0    0    0    0 -0.00000000000E+00 -0.00000000000E+00 -0.74505805969E-08  0.93827000000E+00  0.93827000000E+00 0.  1.
     999902    2    1    2    0    0 -0.12972959217E-01  0.19728240758E-01  0.80773571684E-02  0.10189751437E+01  0.10186695238E+01 0.  0.
     999903    2    3    3    0    0  0.68122810403E-01  0.65883537086E-01  0.87396342901E-01  0.13049422847E+00  0.20230302885E-01 0.  0.
         14    1    1    2    0    0  0.12972959217E-01 -0.19728240758E-01 -0.80773571684E-02  0.24954856302E-01  0.00000000000E+00 0. -1.
     999901    1    3    3    0    0 -0.81095769620E-01 -0.46155296328E-01 -0.79318985732E-01  0.88848091523E+00  0.88000000000E+00 0.  1.
        -11    1    4    4    0    0  0.46798397480E-01  0.45731524154E-01  0.47001535456E-01  0.80565921855E-01  0.51100000000E-03 0.  1.
         11    1    4    4    0    0  0.21324412923E-01  0.20152012932E-01  0.40394807445E-01  0.49928306613E-01  0.51100000000E-03 0. -1.
</event>
<event>
 8    1  0.1081309E+005  0.1043930E+01  0.7957747E-01            NaN
         13   -1    0    0    0    0  0.00000000000E+00  0.00000000000E+00  0.74505805969E-08  0.10566000000E+00  0.10566000000E+00 0.  1.
     999900   -1    0    0    0    0 -0.00000000000E+00 -0.00000000000E+00 -0.74505805969E-08  0.93827000000E+00  0.93827000000E+00 0.  1.
     999902    2    1    2    0    0  0.12941258463E-01 -0.19181538417E-01  0.10008141994E-01  0.10187194765E+01  0.10184074830E+01 0.  0.
     999903    2    3    3    0    0 -0.18949883527E-01  0.72414432165E-02 -0.12429627956E+00  0.12756691018E+00  0.20303075522E-01 0.  0.
         14    1    1    2    0    0 -0.12941258463E-01  0.19181538417E-01 -0.10008141994E-01  0.25210523454E-01  0.00000000000E+00 0. -1.
     999901    1    3    3    0    0  0.31891141989E-01 -0.26422981634E-01  0.13430442155E+00  0.89115256637E+00  0.88000000000E+00 0. -1.
        -11    1    4    4    0    0  0.80525516617E-03 -0.13666777764E-02 -0.54329378088E-01  0.54354932513E-01  0.51100000000E-03 0.  1.
         11    1    4    4    0    0 -0.19755138693E-01  0.86081209929E-02 -0.69966901467E-01  0.73211977666E-01  0.51100000000E-03 0. -1.
</event>
<event>
 8    1  0.1081309E+005  0.1043930E+01  0.7957747E-01            NaN
         13   -1    0    0    0    0  0.00000000000E+00  0.00000000000E+00  0.74505805969E-08  0.10566000000E+00  0.10566000000E+00 0.  1.
     999900   -1    0    0    0    0 -0.00000000000E+00 -0.00000000000E+00 -0.74505805969E-08  0.93827000000E+00  0.93827000000E+00 0.  1.
     999902    2    1    2    0    0 -0.21483026174E-01  0.28485411935E-02  0.12308656300E-01  0.10190073673E+01  0.10187025459E+01 0.  0.
     999903    2    3    3    0    0  0.13251148606E-01 -0.84644792353E-01  0.95707387833E-01  0.13006592113E+00  0.20418274679E-01 0.  0.
         14    1    1    2    0    0  0.21483026174E-01 -0.28485411935E-02 -0.12308656300E-01  0.24922632695E-01  0.00000000000E+00 0. -1.
     999901    1    3    3    0    0 -0.34734174779E-01  0.87493333547E-01 -0.83398731532E-01  0.88894144618E+00  0.88000000000E+00 0. -1.
        -11    1    4    4    0    0  0.52040398380E-02 -0.70192264830E-02  0.39360246441E-02  0.95971340542E-02  0.51100000000E-03 0.  1.
         11    1    4    4    0    0  0.80471087676E-02 -0.77625565870E-01  0.91771363189E-01  0.12046878707E+00  0.51100000000E-03 0. -1.
</event>
<event>
 8    1  0.1081309E+005  0.1043930E+01  0.7957747E-01            NaN
         13   -1    0    0    0    0  0.00000000000E+00  0.00000000000E+00  0.74505805969E-08  0.10566000000E+00  0.10566000000E+00 0.  1.
     999900   -1    0    0    0    0 -0.00000000000E+00 -0.00000000000E+00 -0.74505805969E-08  0.93827000000E+00  0.93827000000E+00 0. -1.
     999902    2    1    2    0    0  0.10136881037E-01  0.19689784116E-01  0.10249845073E-01  0.10195270641E+01  0.10192349735E+01 0.  0.
     999903    2    3    3    0    0  0.37111030808E-01  0.11732511949E+00  0.46778275655E-01  0.13296370501E+00  0.18674247116E-01 0.  0.
         14    1    1    2    0    0 -0.10136881037E-01 -0.19689784116E-01 -0.10249845073E-01  0.24402935883E-01  0.00000000000E+00 0. -1.
     999901    1    3    3    0    0 -0.26974149771E-01 -0.97635335376E-01 -0.36528430582E-01  0.88656335911E+00  0.88000000000E+00 0. -1.
        -11    1    4    4    0    0  0.13480883814E-01  0.70038412587E-01  0.22499626468E-01  0.74790425713E-01  0.51100000000E-03 0. -1.
         11    1    4    4    0    0  0.23630146993E-01  0.47286706905E-01  0.24278649187E-01  0.58173279297E-01  0.51100000000E-03 0.  1.
</event>
<event>
 8    1  0.1081309E+005  0.1043930E+01  0.7957747E-01            NaN
         13   -1    0    0    0    0  0.00000000000E+00  0.00000000000E+00  0.74505805969E-08  0.10566000000E+00  0.10566000000E+00 0.  1.
     999900   -1    0    0    0    0 -0.00000000000E+00 -0.00000000000E+00 -0.74505805969E-08  0.93827000000E+00  0.93827000000E+00 0. -1.
     999902    2    1    2    0    0 -0.20971814084E-03  0.16324939633E-01  0.15418428949E-01  0.10214739187E+01  0.10212270516E+01 0.  0.
     999903    2    3    3    0    0  0.13801338656E-01  0.11520453585E+00 -0.61120499057E-01  0.13252414973E+00  0.19088552306E-01 0.  0.
         14    1    1    2    0    0  0.20971814084E-03 -0.16324939633E-01 -0.15418428949E-01  0.22456081291E-01  0.00000000000E+00 0.  1.
     999901    1    3    3    0    0 -0.14011056797E-01 -0.98879596215E-01  0.76538928006E-01  0.88894976897E+00  0.88000000000E+00 0.  1.
        -11    1    4    4    0    0  0.13701561306E-01  0.77394816677E-01 -0.32291638246E-01  0.84974710664E-01  0.51100000000E-03 0. -1.
         11    1    4    4    0    0  0.99777350138E-04  0.37809719171E-01 -0.28828860811E-01  0.47549439071E-01  0.51100000000E-03 0.  1.
</event>
<event>
 7    1  0.1081309E+005  0.1043930E+01  0.7957747E-01            NaN
         13   -1    0    0    0    0  0.00000000000E+00  0.00000000000E+00  0.74505805969E-08  0.10566000000E+00  0.10566000000E+00 0.  1.
     999900   -1    0    0    0    0 -0.00000000000E+00 -0.00000000000E+00 -0.74505805969E-08  0.93827000000E+00  0.93827000000E+00 0.  1.
     999902    2    1    2    0    0 -0.13068783240E-01  0.17320617502E-01 -0.46958934293E-02  0.10217298130E+01  0.10214886013E+01 0.  0.
         14    1    1    2    0    0  0.13068783240E-01 -0.17320617502E-01  0.46958934293E-02  0.22200186962E-01  0.00000000000E+00 0.  1.
     999901    1    3    3    0    0  0.51864603894E-01 -0.80821754899E-01 -0.31661076878E-01  0.88579033467E+00  0.88000000000E+00 0.  1.
        -11    1    3    3    0    0 -0.26757747858E-01  0.37085396747E-01  0.42319400993E-01  0.62309682584E-01  0.51100000000E-03 0. -1.
         11    1    3    3    0    0 -0.38175639275E-01  0.61056975654E-01 -0.15354217545E-01  0.73629795786E-01  0.51100000000E-03 0.  1.
</event>
<event>
 8    1  0.1081309E+005  0.1043930E+01  0.7957747E-01            NaN
         13   -1    0    0    0    0  0.00000000000E+00  0.00000000000E+00  0.74505805969E-08  0.10566000000E+00  0.10566000000E+00 0. -1.
     999900   -1    0    0    0    0 -0.00000000000E+00 -0.00000000000E+00 -0.74505805969E-08  0.93827000000E+00  0.93827000000E+00 0.  1.
     999902    2    1    2    0    0  0.10261024947E-01 -0.18460610823E-01 -0.11005366527E-01  0.10201140205E+01  0.10198359741E+01 0.  0.
     999903    2    3    3    0    0  0.27997662664E-01 -0.12476416405E-01  0.12431225041E+00  0.12957415263E+00  0.19909679721E-01 0.  0.
         14    1    1    2    0    0 -0.10261024947E-01  0.18460610823E-01  0.11005366527E-01  0.23815979453E-01  0.00000000000E+00 0.  1.
     999901    1    3    3    0    0 -0.17736637717E-01 -0.59841944176E-02 -0.13531761694E+00  0.89053986792E+00  0.88000000000E+00 0.  1.
        -11    1    4    4    0    0  0.75880025364E-02 -0.50272169340E-02  0.76658895156E-01  0.77199080436E-01  0.51100000000E-03 0.  1.
         11    1    4    4    0    0  0.20409660128E-01 -0.74491994710E-02  0.47653355253E-01  0.52375072192E-01  0.51100000000E-03 0. -1.
</event>
<event>
 8    1  0.1081309E+005  0.1043930E+01  0.7957747E-01            NaN
         13   -1    0    0    0    0  0.00000000000E+00  0.00000000000E+00  0.74505805969E-08  0.10566000000E+00  0.10566000000E+00 0.  1.
     999900   -1    0    0    0    0 -0.00000000000E+00 -0.00000000000E+00 -0.74505805969E-08  0.93827000000E+00  0.93827000000E+00 0.  1.
     999902    2    1    2    0    0 -0.35311650803E-02 -0.43782879095E-02 -0.21410797716E-01  0.10217926833E+01  0.10215528507E+01 0.  0.
     999903    2    3    3    0    0  0.17531833279E-01  0.12295758111E+00  0.35178711315E-01  0.13057977609E+00  0.19687667857E-01 0.  0.
         14    1    1    2    0    0  0.35311650803E-02  0.43782879095E-02  0.21410797716E-01  0.22137316700E-01  0.00000000000E+00 0.  1.
     999901    1    3    3    0    0 -0.21062998360E-01 -0.12733586902E+00 -0.56589509030E-01  0.89121290721E+00  0.88000000000E+00 0.  1.
        -11    1    4    4    0    0  0.12944121960E-01  0.11758193305E+00  0.35443805724E-01  0.12348921313E+00  0.51100000000E-03 0.  1.
         11    1    4    4    0    0  0.45877113193E-02  0.53756480524E-02 -0.26509440909E-03  0.70905629663E-02  0.51100000000E-03 0. -1.
</event>
<event>
 8    1  0.1081309E+005  0.1043930E+01  0.7957747E-01            NaN
         13   -1    0    0    0    0  0.00000000000E+00  0.00000000000E+00  0.74505805969E-08  0.10566000000E+00  0.10566000000E+00 0. -1.
     999900   -1    0    0    0    0 -0.00000000000E+00 -0.00000000000E+00 -0.74505805969E-08  0.93827000000E+00  0.93827000000E+00 0.  1.
     999902    2    1    2    0    0  0.19325353062E-01 -0.25628568286E-02 -0.12997364302E-01  0.10204999128E+01  0.10202309068E+01 0.  0.
     999903    2    3    3    0    0  0.49898755153E-01 -0.87554009029E-03 -0.12199844206E+00  0.13324638936E+00  0.19502001854E-01 0.  0.
         14    1    1    2    0    0 -0.19325353062E-01  0.25628568286E-02  0.12997364302E-01  0.23430087172E-01  0.00000000000E+00 0. -1.
     999901    1    3    3    0    0 -0.30573402091E-01 -0.16873167383E-02  0.10900107776E+00  0.88725352347E+00  0.88000000000E+00 0. -1.
        -11    1    4    4    0    0  0.22879192632E-01  0.91977659605E-02 -0.52699000013E-01  0.58185067479E-01  0.51100000000E-03 0. -1.
         11    1    4    4    0    0  0.27019562521E-01 -0.10073306051E-01 -0.69299442047E-01  0.75061321882E-01  0.51100000000E-03 0.  1.
</event>
<event>
 8    1  0.1081309E+005  0.1043930E+01  0.7957747E-01            NaN
         13   -1    0    0    0    0  0.00000000000E+00  0.00000000000E+00  0.74505805969E-08  0.10566000000E+00  0.10566000000E+00 0. -1.
     999900   -1    0    0    0    0 -0.00000000000E+00 -0.00000000000E+00 -0.74505805969E-08  0.93827000000E+00  0.93827000000E+00 0. -1.
     999902    2    1    2    0    0  0.23611590780E-01  0.11477039494E-02 -0.25245414762E-02  0.10201561119E+01  0.10198790590E+01 0.  0.
     999903    2    3    3    0    0  0.47755671306E-01 -0.19714399610E-01  0.11913995104E+00  0.13121268702E+00  0.18793073375E-01 0.  0.
         14    1    1    2    0    0 -0.23611590780E-01 -0.11477039494E-02  0.25245414762E-02  0.23773888054E-01  0.00000000000E+00 0. -1.
     999901    1    3    3    0    0 -0.24144080526E-01  0.20862103559E-01 -0.12166449251E+00  0.88894342493E+00  0.88000000000E+00 0. -1.
        -11    1    4    4    0    0  0.38301368137E-01 -0.15677299154E-01  0.72795439497E-01  0.83738937434E-01  0.51100000000E-03 0. -1.
         11    1    4    4    0    0  0.94543031687E-02 -0.40371004557E-02  0.46344511539E-01  0.47473749582E-01  0.51100000000E-03 0.  1.
</event>
<event>
 8    1  0.1081309E+005  0.1043930E+01  0.7957747E-01            NaN
         13   -1    0    0    0    0  0.00000000000E+00  0.00000000000E+00  0.74505805969E-08  0.10566000000E+00  0.10566000000E+00 0.  1.
     999900   -1    0    0    0    0 -0.00000000000E+00 -0.00000000000E+00 -0.74505805969E-08  0.93827000000E+00  0.93827000000E+00 0.  1.
     999902    2    1    2    0    0  0.10779536577E-01 -0.17403712839E-01 -0.75539154963E-02  0.10221091552E+01  0.10218762038E+01 0.  0.
     999903    2    3    3    0    0 -0.74792636104E-01  0.10236728669E+00  0.17411571115E-01  0.12953368801E+00  0.20070219776E-01 0.  0.
         14    1    1    2    0    0 -0.10779536577E-01  0.17403712839E-01  0.75539154963E-02  0.21820844822E-01  0.00000000000E+00 0.  1.
     999901    1    3    3    0    0  0.85572172681E-01 -0.11977099953E+00 -0.24965486611E-01  0.89257546717E+00  0.88000000000E+00 0. -1.
        -11    1    4    4    0    0 -0.49106478480E-01  0.70428924636E-01  0.24357355489E-02  0.85894549203E-01  0.51100000000E-03 0.  1.
         11    1    4    4    0    0 -0.25686157624E-01  0.31938362053E-01  0.14975835566E-01  0.43639138809E-01  0.51100000000E-03 0. -1.
</event>
<event>
 8    1  0.1081309E+005  0.1043930E+01  0.7957747E-01            NaN
         13   -1    0    0    0    0  0.00000000000E+00  0.00000000000E+00  0.74505805969E-08  0.10566000000E+00  0.10566000000E+00 0. -1.
     999900   -1    0    0    0    0 -0.00000000000E+00 -0.00000000000E+00 -0.74505805969E-08  0.93827000000E+00  0.93827000000E+00 0.  1.
     999902    2    1    2    0    0  0.13731182636E-01 -0.21619735642E-01  0.50810032934E-03  0.10183132767E+01  0.10179910181E+01 0.  0.
     999903    2    3    3    0    0  0.80072834284E-02 -0.12230118272E+00 -0.43029153519E-01  0.13148465219E+00  0.20371789949E-01 0.  0.
         14    1    1    2    0    0 -0.13731182636E-01  0.21619735642E-01 -0.50810032934E-03  0.25616723283E-01  0.00000000000E+00 0.  1.
     999901    1    3    3    0    0  0.57238992073E-02  0.10068144708E+00  0.43537253849E-01  0.88682862453E+00  0.88000000000E+00 0. -1.
        -11    1    4    4    0    0 -0.67093180845E-03 -0.77163260675E-01 -0.35353454505E-01  0.84880780003E-01  0.51100000000E-03 0. -1.
         11    1    4    4    0    0  0.86782152369E-02 -0.45137922047E-01 -0.76756990143E-02  0.46603872187E-01  0.51100000000E-03 0.  1.
</event>
<event>
 8    1  0.1081309E+005  0.1043930E+01  0.7957747E-01            NaN
         13   -1    0    0    0    0  0.00000000000E+00  0.00000000000E+00  0.74505805969E-08  0.10566000000E+00  0.10566000000E+00 0. -1.
     999900   -1    0    0    0    0 -0.00000000000E+00 -0.00000000000E+00 -0.74505805969E-08  0.93827000000E+00  0.93827000000E+00 0. -1.
     999902    2    1    2    0    0 -0.67738938110E-02  0.71650681577E-02  0.10173712437E-01  0.10297621398E+01  0.10296646717E+01 0.  0.
     999903    2    3    3    0    0  0.54114084726E-02  0.10039436006E+00 -0.93549564411E-01  0.13869609248E+00  0.19410672158E-01 0.  0.
         14    1    1    2    0    0  0.67738938110E-02 -0.71650681577E-02 -0.10173712437E-01  0.14167860242E-01  0.00000000000E+00 0.  1.
     999901    1    3    3    0    0 -0.12185302284E-01 -0.93229291899E-01  0.10372327685E+00  0.89106604728E+00  0.88000000000E+00 0.  1.
        -11    1    4    4    0    0  0.49449433487E-02  0.45252949723E-01 -0.55076341982E-01  0.71455905917E-01  0.51100000000E-03 0. -1.
         11    1    4    4    0    0  0.46646512393E-03  0.55141410334E-01 -0.38473222430E-01  0.67240186559E-01  0.51100000000E-03 0.  1.
</event>
<event>
 8    1  0.1081309E+005  0.1043930E+01  0.7957747E-01            NaN
         13   -1    0    0    0    0  0.00000000000E+00  0.00000000000E+00  0.74505805969E-08  0.10566000000E+00  0.10566000000E+00 0.  1.
     999900   -1    0    0    0    0 -0.00000000000E+00 -0.00000000000E+00 -0.74505805969E-08  0.93827000000E+00  0.93827000000E+00 0. -1.
     999902    2    1    2    0    0  0.77626472072E-02 -0.69511257770E-02 -0.28787181736E-01  0.10133149927E+01  0.10128524057E+01 0.  0.
     999903    2    3    3    0    0  0.20670318224E-02 -0.11233081723E+00 -0.54972803314E-01  0.12662282164E+00  0.19719146392E-01 0.  0.
         14    1    1    2    0    0 -0.77626472072E-02  0.69511257770E-02  0.28787181736E-01  0.30615007325E-01  0.00000000000E+00 0.  1.
     999901    1    3    3    0    0  0.56956153848E-02  0.10537969145E+00  0.26185621578E-01  0.88669217104E+00  0.88000000000E+00 0. -1.
        -11    1    4    4    0    0 -0.69269214500E-02 -0.46481681224E-01 -0.16394057073E-01  0.49775045540E-01  0.51100000000E-03 0. -1.
         11    1    4    4    0    0  0.89939532724E-02 -0.65849136006E-01 -0.38578746241E-01  0.76847776095E-01  0.51100000000E-03 0.  1.
</event>
<event>
 8    1  0.1081309E+005  0.1043930E+01  0.7957747E-01            NaN
         13   -1    0    0    0    0  0.00000000000E+00  0.00000000000E+00  0.74505805969E-08  0.10566000000E+00  0.10566000000E+00 0. -1.
     999900   -1    0    0    0    0 -0.00000000000E+00 -0.00000000000E+00 -0.74505805969E-08  0.93827000000E+00  0.93827000000E+00 0. -1.
     999902    2    1    2    0    0  0.13818057708E-01 -0.17183727896E-01  0.65246520475E-02  0.10209345590E+01  0.10206755525E+01 0.  0.
     999903    2    3    3    0    0 -0.52559700053E-01 -0.91719796859E-01 -0.75461999767E-01  0.13150584156E+00  0.20596838342E-01 0.  0.
         14    1    1    2    0    0 -0.13818057708E-01  0.17183727896E-01 -0.65246520475E-02  0.22995441018E-01  0.00000000000E+00 0.  1.
     999901    1    3    3    0    0  0.66377757761E-01  0.74536068963E-01  0.81986651815E-01  0.88942871742E+00  0.88000000000E+00 0.  1.
        -11    1    4    4    0    0 -0.49144954777E-01 -0.69107057849E-01 -0.58292177331E-01  0.10290408682E+00  0.51100000000E-03 0. -1.
         11    1    4    4    0    0 -0.34147452757E-02 -0.22612739010E-01 -0.17169822436E-01  0.28601754742E-01  0.51100000000E-03 0.  1.
</event>
<event>
 8    1  0.1081309E+005  0.1043930E+01  0.7957747E-01            NaN
         13   -1    0    0    0    0  0.00000000000E+00  0.00000000000E+00  0.74505805969E-08  0.10566000000E+00  0.10566000000E+00 0.  1.
     999900   -1    0    0    0    0 -0.00000000000E+00 -0.00000000000E+00 -0.74505805969E-08  0.93827000000E+00  0.93827000000E+00 0. -1.
     999902    2    1    2    0    0 -0.14546639427E-01 -0.15606865319E-01  0.99962201891E-02  0.10203693680E+01  0.10200973207E+01 0.  0.
     999903    2    3    3    0    0 -0.31508366952E-01  0.11396857488E+00  0.49405611300E-01  0.12984671524E+00  0.20919889645E-01 0.  0.
         14    1    1    2    0    0  0.14546639427E-01  0.15606865319E-01 -0.99962201891E-02  0.23560632033E-01  0.00000000000E+00 0. -1.
     999901    1    3    3    0    0  0.16961727525E-01 -0.12957544020E+00 -0.39409391111E-01  0.89052265272E+00  0.88000000000E+00 0.  1.
        -11    1    4    4    0    0  0.48905530250E-03  0.30734068848E-01  0.97391780551E-02  0.32248021230E-01  0.51100000000E-03 0. -1.
         11    1    4    4    0    0 -0.31997422254E-01  0.83234506036E-01  0.39666433245E-01  0.97598694014E-01  0.51100000000E-03 0.  1.
</event>
<event>
 8    1  0.1081309E+005  0.1043930E+01  0.7957747E-01            NaN
         13   -1    0    0    0    0  0.00000000000E+00  0.00000000000E+00  0.74505805969E-08  0.10566000000E+00  0.10566000000E+00 0.  1.
     999900   -1    0    0    0    0 -0.00000000000E+00 -0.00000000000E+00 -0.74505805969E-08  0.93827000000E+00  0.93827000000E+00 0.  1.
     999902    2    1    2    0    0  0.13391705930E-01  0.35970829566E-02 -0.20037897431E-01  0.10195621087E+01  0.10192708665E+01 0.  0.
     999903    2    3    3    0    0  0.72246314126E-01  0.10408750613E+00 -0.29561827150E-01  0.13183867468E+00  0.21302480590E-01 0.  0.
         14    1    1    2    0    0 -0.13391705930E-01 -0.35970829566E-02  0.20037897431E-01  0.24367891312E-01  0.00000000000E+00 0.  1.
     999901    1    3    3    0    0 -0.58854608196E-01 -0.10049042317E+00  0.95239297194E-02  0.88772343401E+00  0.88000000000E+00 0.  1.
        -11    1    4    4    0    0  0.19894119151E-01  0.34666238783E-01 -0.18971624334E-01  0.44245991220E-01  0.51100000000E-03 0.  1.
         11    1    4    4    0    0  0.52352194975E-01  0.69421267346E-01 -0.10590202816E-01  0.87592683458E-01  0.51100000000E-03 0. -1.
</event>
<event>
 8    1  0.1081309E+005  0.1043930E+01  0.7957747E-01            NaN
         13   -1    0    0    0    0  0.00000000000E+00  0.00000000000E+00  0.74505805969E-08  0.10566000000E+00  0.10566000000E+00 0. -1.
     999900   -1    0    0    0    0 -0.00000000000E+00 -0.00000000000E+00 -0.74505805969E-08  0.93827000000E+00  0.93827000000E+00 0. -1.
     999902    2    1    2    0    0 -0.72875492499E-02  0.21653012528E-01 -0.91499604130E-02  0.10193193702E+01  0.10190222251E+01 0.  0.
     999903    2    3    3    0    0 -0.74971208274E-01 -0.57580434740E-01  0.84416580812E-01  0.12824489824E+00  0.19606281501E-01 0.  0.
         14    1    1    2    0    0  0.72875492499E-02 -0.21653012528E-01  0.91499604130E-02  0.24610629841E-01  0.00000000000E+00 0. -1.
     999901    1    3    3    0    0  0.67683659024E-01  0.79233447269E-01 -0.93566541225E-01  0.89107447192E+00  0.88000000000E+00 0. -1.
        -11    1    4    4    0    0 -0.34202618404E-01 -0.27047769403E-01  0.26129565866E-01  0.50837154412E-01  0.51100000000E-03 0. -1.
         11    1    4    4    0    0 -0.40768589869E-01 -0.30532665337E-01  0.58287014946E-01  0.77407743830E-01  0.51100000000E-03 0.  1.
</event>
<event>
 8    1  0.1081309E+005  0.1043930E+01  0.7957747E-01            NaN
         13   -1    0    0    0    0  0.00000000000E+00  0.00000000000E+00  0.74505805969E-08  0.10566000000E+00  0.10566000000E+00 0.  1.
     999900   -1    0    0    0    0 -0.00000000000E+00 -0.00000000000E+00 -0.74505805969E-08  0.93827000000E+00  0.93827000000E+00 0. -1.
     999902    2    1    2    0    0  0.20568932500E-01  0.27041455619E-02 -0.77920860364E-02  0.10217689984E+01  0.10215286467E+01 0.  0.
     999903    2    3    3    0    0 -0.63571077162E-01 -0.10180910027E+00 -0.46216273617E-01  0.13077013309E+00  0.23632795273E-01 0.  0.
         14    1    1    2    0    0 -0.20568932500E-01 -0.27041455619E-02  0.77920860364E-02  0.22161001606E-01  0.00000000000E+00 0. -1.
     999901    1    3    3    0    0  0.84140009662E-01  0.10451324583E+00  0.38424187580E-01  0.89099886530E+00  0.88000000000E+00 0. -1.
        -11    1    4    4    0    0 -0.92468540443E-02 -0.26462379713E-01 -0.26192416104E-02  0.28158185264E-01  0.51100000000E-03 0.  1.
         11    1    4    4    0    0 -0.54324223118E-01 -0.75346720557E-01 -0.43597032006E-01  0.10261194783E+00  0.51100000000E-03 0. -1.
</event>
<event>
 8    1  0.1081309E+005  0.1043930E+01  0.7957747E-01            NaN
         13   -1    0    0    0    0  0.00000000000E+00  0.00000000000E+00  0.74505805969E-08  0.10566000000E+00  0.10566000000E+00 0. -1.
     999900   -1    0    0    0    0 -0.00000000000E+00 -0.00000000000E+00 -0.74505805969E-08  0.93827000000E+00  0.93827000000E+00 0. -1.
     999902    2    1    2    0    0 -0.22409515547E-01  0.33988823148E-02  0.33029709455E-02  0.10210247952E+01  0.10207678404E+01 0.  0.
     999903    2    3    3    0    0  0.63648907059E-01  0.62430491299E-01  0.92916895004E-01  0.13033885825E+00  0.20147431102E-01 0.  0.
         14    1    1    2    0    0  0.22409515547E-01 -0.33988823148E-02 -0.33029709455E-02  0.22905204760E-01  0.00000000000E+00 0. -1.
     999901    1    3    3    0    0 -0.86058422605E-01 -0.59031608984E-01 -0.89613924059E-01  0.89068593699E+00  0.88000000000E+00 0. -1.
        -11    1    4    4    0    0  0.20360154820E-01  0.30401323623E-01  0.28532135905E-01  0.46401727152E-01  0.51100000000E-03 0. -1.
         11    1    4    4    0    0  0.43288752239E-01  0.32029167676E-01  0.64384759099E-01  0.83937131102E-01  0.51100000000E-03 0.  1.
</event>
<event>
 8    1  0.1081309E+005  0.1043930E+01  0.7957747E-01            NaN
         13   -1    0    0    0    0  0.00000000000E+00  0.00000000000E+00  0.74505805969E-08  0.10566000000E+00  0.10566000000E+00 0. -1.
     999900   -1    0    0    0    0 -0.00000000000E+00 -0.00000000000E+00 -0.74505805969E-08  0.93827000000E+00  0.93827000000E+00 0. -1.
     999902    2    1    2    0    0  0.19426315360E-01 -0.98612407587E-02  0.94029989461E-02  0.10202014900E+01  0.10199255061E+01 0.  0.
     999903    2    3    3    0    0 -0.28066235458E-01 -0.51811512375E-01 -0.11351790985E+00  0.12940133424E+00  0.19653067430E-01 0.  0.
         14    1    1    2    0    0 -0.19426315360E-01  0.98612407587E-02 -0.94029989461E-02  0.23728510003E-01  0.00000000000E+00 0.  1.
     999901    1    3    3    0    0  0.47492550818E-01  0.41950271617E-01  0.12292090880E+00  0.89080015575E+00  0.88000000000E+00 0.  1.
        -11    1    4    4    0    0 -0.22256975137E-01 -0.38453190421E-01 -0.64956440646E-01  0.78699562249E-01  0.51100000000E-03 0. -1.
         11    1    4    4    0    0 -0.58092603206E-02 -0.13358321954E-01 -0.48561469206E-01  0.50701771994E-01  0.51100000000E-03 0.  1.
</event>
<event>
 8    1  0.1081309E+005  0.1043930E+01  0.7957747E-01            NaN
         13   -1    0    0    0    0  0.00000000000E+00  0.00000000000E+00  0.74505805969E-08  0.10566000000E+00  0.10566000000E+00 0. -1.
     999900   -1    0    0    0    0 -0.00000000000E+00 -0.00000000000E+00 -0.74505805969E-08  0.93827000000E+00  0.93827000000E+00 0.  1.
     999902    2    1    2    0    0  0.25405330706E-01  0.16018462025E-01 -0.58899839279E-02  0.10133242184E+01  0.10128619145E+01 0.  0.
     999903    2    3    3    0    0  0.10145992332E+00 -0.68426787619E-01  0.20606048566E-01  0.12562081021E+00  0.19484286412E-01 0.  0.
         14    1    1    2    0    0 -0.25405330706E-01 -0.16018462025E-01  0.58899839279E-02  0.30605781555E-01  0.00000000000E+00 0. -1.
     999901    1    3    3    0    0 -0.76054592617E-01  0.84445249644E-01 -0.26496032493E-01  0.88770340823E+00  0.88000000000E+00 0. -1.
        -11    1    4    4    0    0  0.67062054252E-01 -0.55892038025E-01  0.14061874216E-01  0.88426446624E-01  0.51100000000E-03 0. -1.
         11    1    4    4    0    0  0.34397869071E-01 -0.12534749594E-01  0.65441743493E-02  0.37194363590E-01  0.51100000000E-03 0.  1.
</event>
<event>
 8    1  0.1081309E+005  0.1043930E+01  0.7957747E-01            NaN
         13   -1    0    0    0    0  0.00000000000E+00  0.00000000000E+00  0.74505805969E-08  0.10566000000E+00  0.10566000000E+00 0.  1.
     999900   -1    0    0    0    0 -0.00000000000E+00 -0.00000000000E+00 -0.74505805969E-08  0.93827000000E+00  0.93827000000E+00 0.  1.
     999902    2    1    2    0    0  0.85059859715E-02 -0.20719266348E-01 -0.92182172499E-02  0.10197098570E+01  0.10194221781E+01 0.  0.
     999903    2    3    3    0    0 -0.60346163838E-02 -0.13100175919E+00  0.14193479422E-02  0.13264344739E+00  0.19859307181E-01 0.  0.
         14    1    1    2    0    0 -0.85059859715E-02  0.20719266348E-01  0.92182172499E-02  0.24220142952E-01  0.00000000000E+00 0. -1.
     999901    1    3    3    0    0  0.14540602355E-01  0.11028249284E+00 -0.10637565192E-01  0.88706640965E+00  0.88000000000E+00 0.  1.
        -11    1    4    4    0    0 -0.80104339528E-02 -0.61936678977E-01  0.91334446360E-02  0.63118936831E-01  0.51100000000E-03 0. -1.
         11    1    4    4    0    0  0.19758175690E-02 -0.69065080214E-01 -0.77140966939E-02  0.69524510562E-01  0.51100000000E-03 0.  1.
</event>
<event>
 8    1  0.1081309E+005  0.1043930E+01  0.7957747E-01            NaN
         13   -1    0    0    0    0  0.00000000000E+00  0.00000000000E+00  0.74505805969E-08  0.10566000000E+00  0.10566000000E+00 0.  1.
     999900   -1    0    0    0    0 -0.00000000000E+00 -0.00000000000E+00 -0.74505805969E-08  0.93827000000E+00  0.93827000000E+00 0. -1.
     999902    2    1    2    0    0  0.12087838322E-01 -0.10040301906E-01 -0.18153479431E-01  0.10199201622E+01  0.10196375164E+01 0.  0.
     999903    2    3    3    0    0 -0.12494163890E+00 -0.26123209299E-02  0.22781320652E-01  0.12834407994E+00  0.18329673562E-01 0.  0.
         14    1    1    2    0    0 -0.12087838322E-01  0.10040301906E-01  0.18153479431E-01  0.24009837840E-01  0.00000000000E+00 0.  1.
     999901    1    3    3    0    0  0.13702947722E+00 -0.74279809763E-02 -0.40934800083E-01  0.89157608222E+00  0.88000000000E+00 0. -1.
        -11    1    4    4    0    0 -0.17298770464E-01 -0.38575907896E-02 -0.20995593643E-02  0.17854907919E-01  0.51100000000E-03 0. -1.
         11    1    4    4    0    0 -0.10764286844E+00  0.12452698597E-02  0.24880880016E-01  0.11048917202E+00  0.51100000000E-03 0.  1.
</event>
<event>
 8    1  0.1081309E+005  0.1043930E+01  0.7957747E-01            NaN
         13   -1    0    0    0    0  0.00000000000E+00  0.00000000000E+00  0.74505805969E-08  0.10566000000E+00  0.10566000000E+00 0. -1.
     999900   -1    0    0    0    0 -0.00000000000E+00 -0.00000000000E+00 -0.74505805969E-08  0.93827000000E+00  0.93827000000E+00 0.  1.
     999902    2    1    2    0    0 -0.11993205955E-02  0.12745311559E-01  0.20137498479E-01  0.10200678923E+01  0.10197887550E+01 0.  0.
     999903    2    3    3    0    0 -0.68500003532E-01 -0.91263521202E-01  0.59979607014E-01  0.13049798906E+00  0.20270449083E-01 0.  0.
         14    1    1    2    0    0  0.11993205955E-02 -0.12745311559E-01 -0.20137498479E-01  0.23862107653E-01  0.00000000000E+00 0.  1.
     999901    1    3    3    0    0  0.67300682936E-01  0.10400883276E+00 -0.39842108534E-01  0.88956990328E+00  0.88000000000E+00 0.  1.
        -11    1    4    4    0    0 -0.24992320988E-01 -0.45765901349E-01  0.34810685550E-01  0.62699113105E-01  0.51100000000E-03 0.  1.
         11    1    4    4    0    0 -0.43507682544E-01 -0.45497619853E-01  0.25168921464E-01  0.67798875959E-01  0.51100000000E-03 0. -1.
</event>
<event>
 8    1  0.1081309E+005  0.1043930E+01  0.7957747E-01            NaN
         13   -1    0    0    0    0  0.00000000000E+00  0.00000000000E+00  0.74505805969E-08  0.10566000000E+00  0.10566000000E+00 0. -1.
     999900   -1    0    0    0    0 -0.00000000000E+00 -0.00000000000E+00 -0.74505805969E-08  0.93827000000E+00  0.93827000000E+00 0. -1.
     999902    2    1    2    0    0  0.16680803632E-01  0.13159939755E-01  0.90552116734E-02  0.10208338946E+01  0.10205725895E+01 0.  0.
     999903    2    3    3    0    0 -0.60745421043E-03  0.11959041116E+00 -0.52615471374E-01  0.13211031431E+00  0.19557910827E-01 0.  0.
         14    1    1    2    0    0 -0.16680803632E-01 -0.13159939755E-01 -0.90552116734E-02  0.23096105356E-01  0.00000000000E+00 0.  1.
     999901    1    3    3    0    0  0.17288257842E-01 -0.10643047141E+00  0.61670683047E-01  0.88872358034E+00  0.88000000000E+00 0.  1.
        -11    1    4    4    0    0  0.63949502467E-02  0.32707508944E-01 -0.20964108576E-01  0.39375519036E-01  0.51100000000E-03 0. -1.
         11    1    4    4    0    0 -0.70024044571E-02  0.86882902216E-01 -0.31651362798E-01  0.92734795269E-01  0.51100000000E-03 0.  1.
</event>
<event>
 8    1  0.1081309E+005  0.1043930E+01  0.7957747E-01            NaN
         13   -1    0    0    0    0  0.00000000000E+00  0.00000000000E+00  0.74505805969E-08  0.10566000000E+00  0.10566000000E+00 0.  1.
     999900   -1    0    0    0    0 -0.00000000000E+00 -0.00000000000E+00 -0.74505805969E-08  0.93827000000E+00  0.93827000000E+00 0. -1.
     999902    2    1    2    0    0 -0.13411397715E-01 -0.10230294357E-01  0.18176648033E-01  0.10191325194E+01  0.10188307892E+01 0.  0.
     999903    2    3    3    0    0  0.12550154994E+00 -0.15179483174E-01  0.61255100521E-02  0.12814063871E+00  0.20036109157E-01 0.  0.
         14    1    1    2    0    0  0.13411397715E-01  0.10230294357E-01 -0.18176648033E-01  0.24797480618E-01  0.00000000000E+00 0. -1.
     999901    1    3    3    0    0 -0.13891294765E+00  0.49491888171E-02  0.12051137980E-01  0.89099188067E+00  0.88000000000E+00 0.  1.
        -11    1    4    4    0    0  0.61241027864E-01 -0.79636204015E-02 -0.70045556200E-02  0.62154707498E-01  0.51100000000E-03 0.  1.
         11    1    4    4    0    0  0.64260522072E-01 -0.72158627723E-02  0.13130065672E-01  0.65985931213E-01  0.51100000000E-03 0. -1.
</event>
<event>
 8    1  0.1081309E+005  0.1043930E+01  0.7957747E-01            NaN
         13   -1    0    0    0    0  0.00000000000E+00  0.00000000000E+00  0.74505805969E-08  0.10566000000E+00  0.10566000000E+00 0. -1.
     999900   -1    0    0    0    0 -0.00000000000E+00 -0.00000000000E+00 -0.74505805969E-08  0.93827000000E+00  0.93827000000E+00 0.  1.
     999902    2    1    2    0    0 -0.54980906229E-02 -0.21965541067E-01 -0.85986070432E-02  0.10197091404E+01  0.10194214443E+01 0.  0.
     999903    2    3    3    0    0  0.38864796994E-01  0.11365135780E+00  0.36266720689E-01  0.12708777239E+00  0.20221851742E-01 0.  0.
         14    1    1    2    0    0  0.54980906229E-02  0.21965541067E-01  0.85986070432E-02  0.24220859562E-01  0.00000000000E+00 0.  1.
     999901    1    3    3    0    0 -0.44362887617E-01 -0.13561689886E+00 -0.44865327732E-01  0.89262136804E+00  0.88000000000E+00 0.  1.
        -11    1    4    4    0    0  0.34609382584E-02  0.35551748121E-01  0.14959202824E-01  0.38729107377E-01  0.51100000000E-03 0. -1.
         11    1    4    4    0    0  0.35403858735E-01  0.78099609677E-01  0.21307517865E-01  0.88358665018E-01  0.51100000000E-03 0.  1.
</event>
<event>
 8    1  0.1081309E+005  0.1043930E+01  0.7957747E-01            NaN
         13   -1    0    0    0    0  0.00000000000E+00  0.00000000000E+00  0.74505805969E-08  0.10566000000E+00  0.10566000000E+00 0.  1.
     999900   -1    0    0    0    0 -0.00000000000E+00 -0.00000000000E+00 -0.74505805969E-08  0.93827000000E+00  0.93827000000E+00 0. -1.
     999902    2    1    2    0    0  0.20450071915E-01 -0.14253154037E-01  0.44857616461E-03  0.10189989137E+01  0.10186938829E+01 0.  0.
     999903    2    3    3    0    0 -0.75740797607E-01  0.57332889493E-01 -0.81957313056E-01  0.12705274071E+00  0.20041684542E-01 0.  0.
         14    1    1    2    0    0 -0.20450071915E-01  0.14253154037E-01 -0.44857616461E-03  0.24931086256E-01  0.00000000000E+00 0.  1.
     999901    1    3    3    0    0  0.96190869522E-01 -0.71586043530E-01  0.82405889221E-01  0.89194617303E+00  0.88000000000E+00 0. -1.
        -11    1    4    4    0    0 -0.31066270052E-01  0.35085715764E-01 -0.44758666215E-01  0.64805245991E-01  0.51100000000E-03 0. -1.
         11    1    4    4    0    0 -0.44674527556E-01  0.22247173729E-01 -0.37198646841E-01  0.62247494721E-01  0.51100000000E-03 0.  1.
</event>
<event>
 8    1  0.1081309E+005  0.1043930E+01  0.7957747E-01            NaN
         13   -1    0    0    0    0  0.00000000000E+00  0.00000000000E+00  0.74505805969E-08  0.10566000000E+00  0.10566000000E+00 0.  1.
     999900   -1    0    0    0    0 -0.00000000000E+00 -0.00000000000E+00 -0.74505805969E-08  0.93827000000E+00  0.93827000000E+00 0.  1.
     999902    2    1    2    0    0  0.15613448848E-01 -0.62944503548E-02 -0.19332872297E-01  0.10182948709E+01  0.10179721432E+01 0.  0.
     999903    2    3    3    0    0 -0.67417469175E-01 -0.97738243275E-01 -0.47050791877E-01  0.12923672680E+00  0.19760445072E-01 0.  0.
         14    1    1    2    0    0 -0.15613448848E-01  0.62944503548E-02  0.19332872297E-01  0.25635129051E-01  0.00000000000E+00 0.  1.
     999901    1    3    3    0    0  0.83030918022E-01  0.91443792921E-01  0.27717919580E-01  0.88905814415E+00  0.88000000000E+00 0. -1.
        -11    1    4    4    0    0 -0.28805661862E-01 -0.58950089975E-01 -0.24436864607E-01  0.70016431901E-01  0.51100000000E-03 0.  1.
         11    1    4    4    0    0 -0.38611807313E-01 -0.38788153301E-01 -0.22613927270E-01  0.59220294900E-01  0.51100000000E-03 0. -1.
</event>
<event>
 8    1  0.1081309E+005  0.1043930E+01  0.7957747E-01            NaN
         13   -1    0    0    0    0  0.00000000000E+00  0.00000000000E+00  0.74505805969E-08  0.10566000000E+00  0.10566000000E+00 0. -1.
     999900   -1    0    0    0    0 -0.00000000000E+00 -0.00000000000E+00 -0.74505805969E-08  0.93827000000E+00  0.93827000000E+00 0.  1.
     999902    2    1    2    0    0  0.21286396240E-01  0.43931269802E-02  0.77074078114E-02  0.10208688993E+01  0.10206083946E+01 0.  0.
     999903    2    3    3    0    0 -0.17460263571E-01 -0.60180312989E-01  0.11352447248E+00  0.13133627823E+00  0.20853806676E-01 0.  0.
         14    1    1    2    0    0 -0.21286396240E-01 -0.43931269802E-02 -0.77074078114E-02  0.23061100683E-01  0.00000000000E+00 0.  1.
     999901    1    3    3    0    0  0.38746659811E-01  0.64573439969E-01 -0.10581706467E+00  0.88953262108E+00  0.88000000000E+00 0.  1.
        -11    1    4    4    0    0  0.43625476714E-02 -0.16529092969E-01  0.25911216338E-01  0.31046658269E-01  0.51100000000E-03 0. -1.
         11    1    4    4    0    0 -0.21822811242E-01 -0.43651220020E-01  0.87613256143E-01  0.10028961996E+00  0.51100000000E-03 0.  1.
</event>
<event>
 8    1  0.1081309E+005  0.1043930E+01  0.7957747E-01            NaN
         13   -1    0    0    0    0  0.00000000000E+00  0.00000000000E+00  0.74505805969E-08  0.10566000000E+00  0.10566000000E+00 0. -1.
     999900   -1    0    0    0    0 -0.00000000000E+00 -0.00000000000E+00 -0.74505805969E-08  0.93827000000E+00  0.93827000000E+00 0. -1.
     999902    2    1    2    0    0  0.42508787808E-03  0.14912724691E-01 -0.18922975613E-01  0.10198333392E+01  0.10195486210E+01 0.  0.
     999903    2    3    3    0    0  0.92144361852E-01 -0.75722844728E-01 -0.47378284970E-01  0.12998114004E+00  0.20636430008E-01 0.  0.
         14    1    1    2    0    0 -0.42508787808E-03 -0.14912724691E-01  0.18922975613E-01  0.24096660836E-01  0.00000000000E+00 0. -1.
     999901    1    3    3    0    0 -0.91719273974E-01  0.90635569420E-01  0.28455309357E-01  0.88985219913E+00  0.88000000000E+00 0.  1.
        -11    1    4    4    0    0  0.69064346000E-01 -0.44567067064E-01 -0.34170587112E-01  0.89016838293E-01  0.51100000000E-03 0. -1.
         11    1    4    4    0    0  0.23080015852E-01 -0.31155777664E-01 -0.13207697858E-01  0.40964301743E-01  0.51100000000E-03 0.  1.
</event>
<event>
 8    1  0.1081309E+005  0.1043930E+01  0.7957747E-01            NaN
         13   -1    0    0    0    0  0.00000000000E+00  0.00000000000E+00  0.74505805969E-08  0.10566000000E+00  0.10566000000E+00 0. -1.
     999900   -1    0    0    0    0 -0.00000000000E+00 -0.00000000000E+00 -0.74505805969E-08  0.93827000000E+00  0.93827000000E+00 0.  1.
     999902    2    1    2    0    0 -0.36633903636E-02 -0.11159159300E-01 -0.20842727391E-01  0.10200058166E+01  0.10197252078E+01 0.  0.
     999903    2    3    3    0    0  0.10420032395E+00  0.35631505674E-01  0.62569797224E-01  0.12827626319E+00  0.20310304441E-01 0.  0.
         14    1    1    2    0    0  0.36633903636E-02  0.11159159300E-01  0.20842727391E-01  0.23924183378E-01  0.00000000000E+00 0. -1.
     999901    1    3    3    0    0 -0.10786371431E+00 -0.46790664974E-01 -0.83412524615E-01  0.89172955343E+00  0.88000000000E+00 0.  1.
        -11    1    4    4    0    0  0.67170860151E-01  0.14705951506E-01  0.31698944711E-01  0.75718384029E-01  0.51100000000E-03 0.  1.
         11    1    4    4    0    0  0.37029463798E-01  0.20925554168E-01  0.30870852513E-01  0.52557879165E-01  0.51100000000E-03 0. -1.
</event>
<event>
 8    1  0.1081309E+005  0.1043930E+01  0.7957747E-01            NaN
         13   -1    0    0    0    0  0.00000000000E+00  0.00000000000E+00  0.74505805969E-08  0.10566000000E+00  0.10566000000E+00 0.  1.
     999900   -1    0    0    0    0 -0.00000000000E+00 -0.00000000000E+00 -0.74505805969E-08  0.93827000000E+00  0.93827000000E+00 0.  1.
     999902    2    1    2    0    0  0.31313307666E-02  0.23415921072E-01  0.11773498969E-02  0.10202763165E+01  0.10200020908E+01 0.  0.
     999903    2    3    3    0    0 -0.32331175962E-01 -0.68480294410E-01  0.10246622515E+00  0.12900646953E+00  0.20211042080E-01 0.  0.
         14    1    1    2    0    0 -0.31313307666E-02 -0.23415921072E-01 -0.11773498969E-02  0.23653683536E-01  0.00000000000E+00 0. -1.
     999901    1    3    3    0    0  0.35462506728E-01  0.91896215482E-01 -0.10128887526E+00  0.89126984693E+00  0.88000000000E+00 0.  1.
        -11    1    4    4    0    0 -0.61570435501E-02 -0.20986150182E-01  0.16655788227E-01  0.27495528495E-01  0.51100000000E-03 0.  1.
         11    1    4    4    0    0 -0.26174132412E-01 -0.47494144228E-01  0.85810436926E-01  0.10151094103E+00  0.51100000000E-03 0. -1.
</event>
<event>
 8    1  0.1081309E+005  0.1043930E+01  0.7957747E-01            NaN
         13   -1    0    0    0    0  0.00000000000E+00  0.00000000000E+00  0.74505805969E-08  0.10566000000E+00  0.10566000000E+00 0.  1.
     999900   -1    0    0    0    0 -0.00000000000E+00 -0.00000000000E+00 -0.74505805969E-08  0.93827000000E+00  0.93827000000E+00 0. -1.
     999902    2    1    2    0    0  0.88814939306E-02  0.66543990380E-02 -0.21402020021E-01  0.10198217354E+01  0.10195367397E+01 0.  0.
     999903    2    3    3    0    0 -0.50543624339E-01  0.12693532985E-01  0.11390237520E+00  0.12747925900E+00  0.23694443610E-01 0.  0.
         14    1    1    2    0    0 -0.88814939306E-02 -0.66543990380E-02  0.21402020021E-01  0.24108264599E-01  0.00000000000E+00 0.  1.
     999901    1    3    3    0    0  0.59425118269E-01 -0.60391339470E-02 -0.13530439522E+00  0.89234247640E+00  0.88000000000E+00 0. -1.
        -11    1    4    4    0    0 -0.51699556909E-01  0.79998990460E-02  0.10235894923E+00  0.11495415686E+00  0.51100000000E-03 0. -1.
         11    1    4    4    0    0  0.11559325703E-02  0.46936339390E-02  0.11543425968E-01  0.12525102145E-01  0.51100000000E-03 0.  1.
</event>
<event>
 8    1  0.1081309E+005  0.1043930E+01  0.7957747E-01            NaN
         13   -1    0    0    0    0  0.00000000000E+00  0.00000000000E+00  0.74505805969E-08  0.10566000000E+00  0.10566000000E+00 0. -1.
     999900   -1    0    0    0    0 -0.00000000000E+00 -0.00000000000E+00 -0.74505805969E-08  0.93827000000E+00  0.93827000000E+00 0. -1.
     999902    2    1    2    0    0 -0.59820150142E-02  0.13787044625E-01  0.19124504651E-01  0.10196068879E+01  0.10193167281E+01 0.  0.
     999903    2    3    3    0    0  0.27696490955E-01  0.82231106297E-01  0.98288830286E-01  0.13276652923E+00  0.20909487593E-01 0.  0.
         14    1    1    2    0    0  0.59820150142E-02 -0.13787044625E-01 -0.19124504651E-01  0.24323112080E-01  0.00000000000E+00 0.  1.
     999901    1    3    3    0    0 -0.33678505969E-01 -0.68444061672E-01 -0.79164325635E-01  0.88684035869E+00  0.88000000000E+00 0. -1.
        -11    1    4    4    0    0  0.29092884051E-01  0.78319962510E-01  0.86521286857E-01  0.12027720744E+00  0.51100000000E-03 0.  1.
         11    1    4    4    0    0 -0.13963930962E-02  0.39111437870E-02  0.11767543429E-01  0.12489321789E-01  0.51100000000E-03 0. -1.
</event>
<event>
 8    1  0.1081309E+005  0.1043930E+01  0.7957747E-01            NaN
         13   -1    0    0    0    0  0.00000000000E+00  0.00000000000E+00  0.74505805969E-08  0.10566000000E+00  0.10566000000E+00 0. -1.
     999900   -1    0    0    0    0 -0.00000000000E+00 -0.00000000000E+00 -0.74505805969E-08  0.93827000000E+00  0.93827000000E+00 0. -1.
     999902    2    1    2    0    0  0.83469713500E-02 -0.31427760075E-02  0.22151493413E-01  0.10200503511E+01  0.10197707983E+01 0.  0.
     999903    2    3    3    0    0 -0.24644187410E-01 -0.11784800703E+00 -0.43553168042E-01  0.12956575879E+00  0.19872560753E-01 0.  0.
         14    1    1    2    0    0 -0.83469713500E-02  0.31427760075E-02 -0.22151493413E-01  0.23879648912E-01  0.00000000000E+00 0.  1.
     999901    1    3    3    0    0  0.32991158760E-01  0.11470523102E+00  0.65704661455E-01  0.89048459230E+00  0.88000000000E+00 0.  1.
        -11    1    4    4    0    0 -0.11615085149E-02 -0.43757469281E-01 -0.99737345200E-02  0.44897680577E-01  0.51100000000E-03 0.  1.
         11    1    4    4    0    0 -0.23482678896E-01 -0.74090537748E-01 -0.33579433522E-01  0.84668078215E-01  0.51100000000E-03 0. -1.
</event>
<event>
 8    1  0.1081309E+005  0.1043930E+01  0.7957747E-01            NaN
         13   -1    0    0    0    0  0.00000000000E+00  0.00000000000E+00  0.74505805969E-08  0.10566000000E+00  0.10566000000E+00 0. -1.
     999900   -1    0    0    0    0 -0.00000000000E+00 -0.00000000000E+00 -0.74505805969E-08  0.93827000000E+00  0.93827000000E+00 0. -1.
     999902    2    1    2    0    0  0.92749476244E-02  0.10166194441E-01 -0.19027346699E-01  0.10204477496E+01  0.10201775304E+01 0.  0.
     999903    2    3    3    0    0  0.51163789775E-01  0.11621331503E+00 -0.34711288674E-01  0.13295315639E+00  0.18665483065E-01 0.  0.
         14    1    1    2    0    0 -0.92749476244E-02 -0.10166194441E-01  0.19027346699E-01  0.23482250430E-01  0.00000000000E+00 0. -1.
     999901    1    3    3    0    0 -0.41888842151E-01 -0.10604712059E+00  0.15683941975E-01  0.88749459318E+00  0.88000000000E+00 0.  1.
        -11    1    4    4    0    0  0.19731300622E-01  0.67598887391E-01 -0.17686863855E-01  0.72608677682E-01  0.51100000000E-03 0. -1.
         11    1    4    4    0    0  0.31432489154E-01  0.48614427643E-01 -0.17024424819E-01  0.60344478711E-01  0.51100000000E-03 0.  1.
</event>
<event>
 8    1  0.1081309E+005  0.1043930E+01  0.7957747E-01            NaN
         13   -1    0    0    0    0  0.00000000000E+00  0.00000000000E+00  0.74505805969E-08  0.10566000000E+00  0.10566000000E+00 0. -1.
     999900   -1    0    0    0    0 -0.00000000000E+00 -0.00000000000E+00 -0.74505805969E-08  0.93827000000E+00  0.93827000000E+00 0.  1.
     999902    2    1    2    0    0 -0.58707686686E-02 -0.92715455129E-02  0.24436116794E-01  0.10171428522E+01  0.10167900622E+01 0.  0.
     999903    2    3    3    0    0 -0.72353672687E-01  0.92758303364E-01  0.48009388508E-01  0.12844393488E+00  0.18809205927E-01 0.  0.
         14    1    1    2    0    0  0.58707686686E-02  0.92715455129E-02 -0.24436116794E-01  0.26787147756E-01  0.00000000000E+00 0.  1.
     999901    1    3    3    0    0  0.66482904018E-01 -0.10202984888E+00 -0.23573271715E-01  0.88869891737E+00  0.88000000000E+00 0. -1.
        -11    1    4    4    0    0 -0.19116749248E-01  0.32057970172E-01  0.23316453895E-01  0.44012290291E-01  0.51100000000E-03 0. -1.
         11    1    4    4    0    0 -0.53236923439E-01  0.60700333191E-01  0.24692934613E-01  0.84431644587E-01  0.51100000000E-03 0.  1.
</event>
<event>
 8    1  0.1081309E+005  0.1043930E+01  0.7957747E-01            NaN
         13   -1    0    0    0    0  0.00000000000E+00  0.00000000000E+00  0.74505805969E-08  0.10566000000E+00  0.10566000000E+00 0. -1.
     999900   -1    0    0    0    0 -0.00000000000E+00 -0.00000000000E+00 -0.74505805969E-08  0.93827000000E+00  0.93827000000E+00 0. -1.
     999902    2    1    2    0    0  0.23455864492E-01 -0.83146544961E-02  0.94680995681E-02  0.10173037729E+01  0.10169552647E+01 0.  0.
     999903    2    3    3    0    0  0.29207972648E-02  0.11579552797E+00  0.49079050795E-01  0.12747566940E+00  0.20595089405E-01 0.  0.
         14    1    1    2    0    0 -0.23455864492E-01  0.83146544961E-02 -0.94680995681E-02  0.26626227068E-01  0.00000000000E+00 0.  1.
     999901    1    3    3    0    0  0.20535067227E-01 -0.12411018247E+00 -0.39610951226E-01  0.88982810353E+00  0.88000000000E+00 0. -1.
        -11    1    4    4    0    0  0.16396935038E-02  0.55720608638E-01  0.12514063807E-01  0.57134383131E-01  0.51100000000E-03 0. -1.
         11    1    4    4    0    0  0.12811037610E-02  0.60074919332E-01  0.36564986988E-01  0.70341286269E-01  0.51100000000E-03 0.  1.
</event>
<event>
 8    1  0.1081309E+005  0.1043930E+01  0.7957747E-01            NaN
         13   -1    0    0    0    0  0.00000000000E+00  0.00000000000E+00  0.74505805969E-08  0.10566000000E+00  0.10566000000E+00 0.  1.
     999900   -1    0    0    0    0 -0.00000000000E+00 -0.00000000000E+00 -0.74505805969E-08  0.93827000000E+00  0.93827000000E+00 0. -1.
     999902    2    1    2    0    0 -0.18595317183E-01 -0.46995237387E-02 -0.13928292247E-01  0.10202262309E+01  0.10199508290E+01 0.  0.
     999903    2    3    3    0    0  0.53143526438E-01 -0.11736100999E+00 -0.31291583776E-02  0.13008259448E+00  0.17715775091E-01 0.  0.
         14    1    1    2    0    0  0.18595317183E-01  0.46995237387E-02  0.13928292247E-01  0.23703769098E-01  0.00000000000E+00 0.  1.
     999901    1    3    3    0    0 -0.71738843622E-01  0.11266148625E+00 -0.10799133870E-01  0.89014363642E+00  0.88000000000E+00 0.  1.
        -11    1    4    4    0    0  0.36129874422E-01 -0.91379221543E-01  0.34834948030E-02  0.98325611173E-01  0.51100000000E-03 0.  1.
         11    1    4    4    0    0  0.17013652016E-01 -0.25981788446E-01 -0.66126531807E-02  0.31756983308E-01  0.51100000000E-03 0. -1.
</event>
<event>
 8    1  0.1081309E+005  0.1043930E+01  0.7957747E-01            NaN
         13   -1    0    0    0    0  0.00000000000E+00  0.00000000000E+00  0.74505805969E-08  0.10566000000E+00  0.10566000000E+00 0.  1.
     999900   -1    0    0    0    0 -0.00000000000E+00 -0.00000000000E+00 -0.74505805969E-08  0.93827000000E+00  0.93827000000E+00 0.  1.
     999902    2    1    2    0    0  0.22628287801E-01 -0.43984548953E-02  0.66621795478E-02  0.10199347828E+01  0.10196524852E+01 0.  0.
     999903    2    3    3    0    0 -0.92416234804E-01  0.25354240786E-01 -0.81742662439E-01  0.12755824722E+00  0.20140645249E-01 0.  0.
         14    1    1    2    0    0 -0.22628287801E-01  0.43984548953E-02 -0.66621795478E-02  0.23995217244E-01  0.00000000000E+00 0. -1.
     999901    1    3    3    0    0  0.11504452260E+00 -0.29752695681E-01  0.88404841987E-01  0.89237653553E+00  0.88000000000E+00 0.  1.
        -11    1    4    4    0    0 -0.41015058070E-01  0.44193912205E-02 -0.25287779746E-01  0.48389037319E-01  0.51100000000E-03 0. -1.
         11    1    4    4    0    0 -0.51401176734E-01  0.20934849566E-01 -0.56454882693E-01  0.79169209904E-01  0.51100000000E-03 0.  1.
</event>
<event>
 8    1  0.1081309E+005  0.1043930E+01  0.7957747E-01            NaN
         13   -1    0    0    0    0  0.00000000000E+00  0.00000000000E+00  0.74505805969E-08  0.10566000000E+00  0.10566000000E+00 0. -1.
     999900   -1    0    0    0    0 -0.00000000000E+00 -0.00000000000E+00 -0.74505805969E-08  0.93827000000E+00  0.93827000000E+00 0. -1.
     999902    2    1    2    0    0 -0.27748072011E-01 -0.13925279361E-01  0.74507685036E-02  0.10120022244E+01  0.10114984524E+01 0.  0.
     999903    2    3    3    0    0  0.35498074809E-01 -0.97195149336E-01 -0.63658578065E-01  0.12296314452E+00  0.18987100315E-01 0.  0.
         14    1    1    2    0    0  0.27748072011E-01  0.13925279361E-01 -0.74507685036E-02  0.31927775633E-01  0.00000000000E+00 0.  1.
     999901    1    3    3    0    0 -0.63246146820E-01  0.83269869975E-01  0.71109346568E-01  0.88903907985E+00  0.88000000000E+00 0.  1.
        -11    1    4    4    0    0  0.22551147380E-01 -0.81179620961E-01 -0.54994545816E-01  0.10061484134E+00  0.51100000000E-03 0.  1.
         11    1    4    4    0    0  0.12946927429E-01 -0.16015528375E-01 -0.86640322482E-02  0.22348303175E-01  0.51100000000E-03 0. -1.
</event>
<event>
 8    1  0.1081309E+005  0.1043930E+01  0.7957747E-01            NaN
         13   -1    0    0    0    0  0.00000000000E+00  0.00000000000E+00  0.74505805969E-08  0.10566000000E+00  0.10566000000E+00 0.  1.
     999900   -1    0    0    0    0 -0.00000000000E+00 -0.00000000000E+00 -0.74505805969E-08  0.93827000000E+00  0.93827000000E+00 0. -1.
     999902    2    1    2    0    0 -0.17829446743E-01  0.12318222196E-01 -0.10987066362E-01  0.10196330167E+01  0.10193434874E+01 0.  0.
     999903    2    3    3    0    0  0.12127866113E-01  0.86172502017E-01 -0.96977930083E-01  0.13185696169E+00  0.20217670060E-01 0.  0.
         14    1    1    2    0    0  0.17829446743E-01 -0.12318222196E-01  0.10987066362E-01  0.24296983280E-01  0.00000000000E+00 0.  1.
     999901    1    3    3    0    0 -0.29957312856E-01 -0.73854279821E-01  0.85990863720E-01  0.88777605503E+00  0.88000000000E+00 0. -1.
        -11    1    4    4    0    0  0.13529599200E-01  0.63794512653E-01 -0.82495780316E-01  0.10515990106E+00  0.51100000000E-03 0. -1.
         11    1    4    4    0    0 -0.14017330872E-02  0.22377989365E-01 -0.14482149767E-01  0.26697060635E-01  0.51100000000E-03 0.  1.
</event>
<event>
 8    1  0.1081309E+005  0.1043930E+01  0.7957747E-01            NaN
         13   -1    0    0    0    0  0.00000000000E+00  0.00000000000E+00  0.74505805969E-08  0.10566000000E+00  0.10566000000E+00 0.  1.
     999900   -1    0    0    0    0 -0.00000000000E+00 -0.00000000000E+00 -0.74505805969E-08  0.93827000000E+00  0.93827000000E+00 0.  1.
     999902    2    1    2    0    0  0.20858743426E-03 -0.21428868923E-01 -0.11561164868E-01  0.10195804525E+01  0.10192896539E+01 0.  0.
     999903    2    3    3    0    0  0.47622303853E-01  0.85500102659E-02  0.11719206619E+00  0.12844399366E+00  0.20564353377E-01 0.  0.
         14    1    1    2    0    0 -0.20858743426E-03  0.21428868923E-01  0.11561164868E-01  0.24349547535E-01  0.00000000000E+00 0.  1.
     999901    1    3    3    0    0 -0.47413716419E-01 -0.29978879189E-01 -0.12875323106E+00  0.89113645880E+00  0.88000000000E+00 0.  1.
        -11    1    4    4    0    0  0.20406004070E-01 -0.63130588639E-02  0.53268943785E-01  0.57394261101E-01  0.51100000000E-03 0. -1.
         11    1    4    4    0    0  0.27216299783E-01  0.14863069130E-01  0.63923122406E-01  0.71049732560E-01  0.51100000000E-03 0.  1.
</event>
<event>
 8    1  0.1081309E+005  0.1043930E+01  0.7957747E-01            NaN
         13   -1    0    0    0    0  0.00000000000E+00  0.00000000000E+00  0.74505805969E-08  0.10566000000E+00  0.10566000000E+00 0.  1.
     999900   -1    0    0    0    0 -0.00000000000E+00 -0.00000000000E+00 -0.74505805969E-08  0.93827000000E+00  0.93827000000E+00 0. -1.
     999902    2    1    2    0    0  0.18891249014E-01 -0.93883292846E-02 -0.66058607213E-02  0.10218244032E+01  0.10215852649E+01 0.  0.
     999903    2    3    3    0    0  0.11268163897E+00 -0.61750337832E-01  0.33853164220E-01  0.13436998185E+00  0.19974967119E-01 0.  0.
         14    1    1    2    0    0 -0.18891249014E-01  0.93883292846E-02  0.66058607213E-02  0.22105596846E-01  0.00000000000E+00 0.  1.
     999901    1    3    3    0    0 -0.93790389959E-01  0.52362008547E-01 -0.40459024941E-01  0.88745442130E+00  0.88000000000E+00 0.  1.
        -11    1    4    4    0    0  0.31080175868E-01 -0.20194650879E-01  0.18810389676E-01  0.41567933999E-01  0.51100000000E-03 0.  1.
         11    1    4    4    0    0  0.81601463105E-01 -0.41555686952E-01  0.15042774543E-01  0.92802047854E-01  0.51100000000E-03 0. -1.
</event>
<event>
 8    1  0.1081309E+005  0.1043930E+01  0.7957747E-01            NaN
         13   -1    0    0    0    0  0.00000000000E+00  0.00000000000E+00  0.74505805969E-08  0.10566000000E+00  0.10566000000E+00 0. -1.
     999900   -1    0    0    0    0 -0.00000000000E+00 -0.00000000000E+00 -0.74505805969E-08  0.93827000000E+00  0.93827000000E+00 0. -1.
     999902    2    1    2    0    0 -0.10432874335E-02 -0.25116316400E-01 -0.41190650649E-02  0.10184567887E+01  0.10181381762E+01 0.  0.
     999903    2    3    3    0    0 -0.34864654210E-01  0.48798103277E-01 -0.11134314114E+00  0.12822972282E+00  0.21184138881E-01 0.  0.
         14    1    1    2    0    0  0.10432874335E-02  0.25116316400E-01  0.41190650649E-02  0.25473211324E-01  0.00000000000E+00 0. -1.
     999901    1    3    3    0    0  0.33821366776E-01 -0.73914419676E-01  0.10722407607E+00  0.89022706585E+00  0.88000000000E+00 0.  1.
        -11    1    4    4    0    0 -0.33887701288E-01  0.35730749985E-01 -0.97062272575E-01  0.10884120852E+00  0.51100000000E-03 0.  1.
         11    1    4    4    0    0 -0.97695292130E-03  0.13067353291E-01 -0.14280868564E-01  0.19388514306E-01  0.51100000000E-03 0. -1.
</event>
<event>
 8    1  0.1081309E+005  0.1043930E+01  0.7957747E-01            NaN
         13   -1    0    0    0    0  0.00000000000E+00  0.00000000000E+00  0.74505805969E-08  0.10566000000E+00  0.10566000000E+00 0.  1.
     999900   -1    0    0    0    0 -0.00000000000E+00 -0.00000000000E+00 -0.74505805969E-08  0.93827000000E+00  0.93827000000E+00 0. -1.
     999902    2    1    2    0    0  0.19700519854E-01  0.10533781802E-02  0.13259828873E-01  0.10201593637E+01  0.10198823874E+01 0.  0.
     999903    2    3    3    0    0 -0.59260931848E-01  0.33102734268E-01  0.10967188671E+00  0.13080152966E+00  0.21759328303E-01 0.  0.
         14    1    1    2    0    0 -0.19700519854E-01 -0.10533781802E-02 -0.13259828873E-01  0.23770636294E-01  0.00000000000E+00 0. -1.
     999901    1    3    3    0    0  0.78961451701E-01 -0.32049356088E-01 -0.96412057835E-01  0.88935783404E+00  0.88000000000E+00 0. -1.
        -11    1    4    4    0    0 -0.22612530072E-01  0.15544175106E-01  0.26109034259E-01  0.37879950989E-01  0.51100000000E-03 0. -1.
         11    1    4    4    0    0 -0.36648401775E-01  0.17558559162E-01  0.83562852449E-01  0.92921578672E-01  0.51100000000E-03 0.  1.
</event>
<event>
 8    1  0.1081309E+005  0.1043930E+01  0.7957747E-01            NaN
         13   -1    0    0    0    0  0.00000000000E+00  0.00000000000E+00  0.74505805969E-08  0.10566000000E+00  0.10566000000E+00 0. -1.
     999900   -1    0    0    0    0 -0.00000000000E+00 -0.00000000000E+00 -0.74505805969E-08  0.93827000000E+00  0.93827000000E+00 0.  1.
     999902    2    1    2    0    0 -0.44036623435E-02 -0.25386781303E-02  0.22784414566E-01  0.10205854787E+01  0.10203184565E+01 0.  0.
     999903    2    3    3    0    0  0.57589766059E-01  0.62615774092E-01  0.99808359477E-01  0.13265475171E+00  0.19956407714E-01 0.  0.
         14    1    1    2    0    0  0.44036623435E-02  0.25386781303E-02 -0.22784414566E-01  0.23344521323E-01  0.00000000000E+00 0.  1.
     999901    1    3    3    0    0 -0.61993428402E-01 -0.65154452222E-01 -0.77023944912E-01  0.88793072697E+00  0.88000000000E+00 0.  1.
        -11    1    4    4    0    0  0.54087744555E-01  0.59424346553E-01  0.84436925707E-01  0.11656154005E+00  0.51100000000E-03 0. -1.
         11    1    4    4    0    0  0.35020215044E-02  0.31914275384E-02  0.15371433771E-01  0.16093211659E-01  0.51100000000E-03 0.  1.
</event>
<event>
 8    1  0.1081309E+005  0.1043930E+01  0.7957747E-01            NaN
         13   -1    0    0    0    0  0.00000000000E+00  0.00000000000E+00  0.74505805969E-08  0.10566000000E+00  0.10566000000E+00 0. -1.
     999900   -1    0    0    0    0 -0.00000000000E+00 -0.00000000000E+00 -0.74505805969E-08  0.93827000000E+00  0.93827000000E+00 0. -1.
     999902    2    1    2    0    0  0.23890762807E-01  0.15008305723E-01 -0.18975026197E-02  0.10156524770E+01  0.10152587531E+01 0.  0.
     999903    2    3    3    0    0 -0.41297672297E-01  0.55061399041E-01  0.10364534416E+00  0.12604971465E+00  0.20221715942E-01 0.  0.
         14    1    1    2    0    0 -0.23890762807E-01 -0.15008305723E-01  0.18975026197E-02  0.28277522953E-01  0.00000000000E+00 0. -1.
     999901    1    3    3    0    0  0.65188435104E-01 -0.40053093317E-01 -0.10554284678E+00  0.88960276240E+00  0.88000000000E+00 0.  1.
        -11    1    4    4    0    0 -0.46512021746E-02  0.19331876772E-01  0.21734877438E-01  0.29462198822E-01  0.51100000000E-03 0.  1.
         11    1    4    4    0    0 -0.36646470122E-01  0.35729522269E-01  0.81910466724E-01  0.96587515829E-01  0.51100000000E-03 0. -1.
</event>
<event>
 8    1  0.1081309E+005  0.1043930E+01  0.7957747E-01            NaN
         13   -1    0    0    0    0  0.00000000000E+00  0.00000000000E+00  0.74505805969E-08  0.10566000000E+00  0.10566000000E+00 0.  1.
     999900   -1    0    0    0    0 -0.00000000000E+00 -0.00000000000E+00 -0.74505805969E-08  0.93827000000E+00  0.93827000000E+00 0. -1.
     999902    2    1    2    0    0 -0.84346313099E-02 -0.22474501449E-01  0.29245762584E-02  0.10197473747E+01  0.10194605970E+01 0.  0.
     999903    2    3    3    0    0  0.57124516800E-01 -0.10827271704E+00 -0.44667521397E-01  0.13187106379E+00  0.20213815125E-01 0.  0.
         14    1    1    2    0    0  0.84346313099E-02  0.22474501449E-01 -0.29245762584E-02  0.24182625313E-01  0.00000000000E+00 0. -1.
     999901    1    3    3    0    0 -0.65559148109E-01  0.85798215590E-01  0.47592097655E-01  0.88787631090E+00  0.88000000000E+00 0. -1.
        -11    1    4    4    0    0  0.29469543114E-01 -0.35439583881E-01 -0.14423687643E-01  0.48298260457E-01  0.51100000000E-03 0.  1.
         11    1    4    4    0    0  0.27654973686E-01 -0.72833133159E-01 -0.30243833753E-01  0.83572803329E-01  0.51100000000E-03 0. -1.
</event>
<event>
 8    1  0.1081309E+005  0.1043930E+01  0.7957747E-01            NaN
         13   -1    0    0    0    0  0.00000000000E+00  0.00000000000E+00  0.74505805969E-08  0.10566000000E+00  0.10566000000E+00 0.  1.
     999900   -1    0    0    0    0 -0.00000000000E+00 -0.00000000000E+00 -0.74505805969E-08  0.93827000000E+00  0.93827000000E+00 0.  1.
     999902    2    1    2    0    0  0.52773289111E-02  0.21484769883E-01  0.76736751767E-02  0.10205135351E+01  0.10202448454E+01 0.  0.
     999903    2    3    3    0    0  0.12064562923E+00 -0.44521101461E-01 -0.82313360722E-02  0.13039017896E+00  0.19908479332E-01 0.  0.
         14    1    1    2    0    0 -0.52773289111E-02 -0.21484769883E-01 -0.76736751767E-02  0.23416464892E-01  0.00000000000E+00 0. -1.
     999901    1    3    3    0    0 -0.11536830032E+00  0.66005871343E-01  0.15905011249E-01  0.89012335614E+00  0.88000000000E+00 0. -1.
        -11    1    4    4    0    0  0.79178376138E-02 -0.41903527936E-02 -0.57133312451E-02  0.10637409644E-01  0.51100000000E-03 0. -1.
         11    1    4    4    0    0  0.11272779162E+00 -0.40330748667E-01 -0.25180048270E-02  0.11975276932E+00  0.51100000000E-03 0.  1.
</event>
<event>
 8    1  0.1081309E+005  0.1043930E+01  0.7957747E-01            NaN
         13   -1    0    0    0    0  0.00000000000E+00  0.00000000000E+00  0.74505805969E-08  0.10566000000E+00  0.10566000000E+00 0. -1.
     999900   -1    0    0    0    0 -0.00000000000E+00 -0.00000000000E+00 -0.74505805969E-08  0.93827000000E+00  0.93827000000E+00 0.  1.
     999902    2    1    2    0    0  0.17106765577E-02  0.18635605408E-01  0.13809174169E-01  0.10206726249E+01  0.10204076155E+01 0.  0.
     999903    2    3    3    0    0  0.36601014258E-01  0.14497464485E-01 -0.12214873485E+00  0.12953906992E+00  0.17613815243E-01 0.  0.
         14    1    1    2    0    0 -0.17106765577E-02 -0.18635605408E-01 -0.13809174169E-01  0.23257375055E-01  0.00000000000E+00 0.  1.
     999901    1    3    3    0    0 -0.34890337701E-01  0.41381409225E-02  0.13595790902E+00  0.89113355503E+00  0.88000000000E+00 0. -1.
        -11    1    4    4    0    0  0.23270384822E-01  0.15021786775E-01 -0.99138169724E-01  0.10293591552E+00  0.51100000000E-03 0. -1.
         11    1    4    4    0    0  0.13330629437E-01 -0.52432229014E-03 -0.23010565128E-01  0.26603154391E-01  0.51100000000E-03 0.  1.
</event>
<event>
 8    1  0.1081309E+005  0.1043930E+01  0.7957747E-01            NaN
         13   -1    0    0    0    0  0.00000000000E+00  0.00000000000E+00  0.74505805969E-08  0.10566000000E+00  0.10566000000E+00 0. -1.
     999900   -1    0    0    0    0 -0.00000000000E+00 -0.00000000000E+00 -0.74505805969E-08  0.93827000000E+00  0.93827000000E+00 0.  1.
     999902    2    1    2    0    0  0.17925009657E-01  0.78724348022E-02 -0.13814028935E-01  0.10199694366E+01  0.10196879636E+01 0.  0.
     999903    2    3    3    0    0  0.94432449050E-01  0.20167152148E-01  0.86208541391E-01  0.13091990882E+00  0.19593582017E-01 0.  0.
         14    1    1    2    0    0 -0.17925009657E-01 -0.78724348022E-02  0.13814028935E-01  0.23960563356E-01  0.00000000000E+00 0. -1.
     999901    1    3    3    0    0 -0.76507439393E-01 -0.12294717346E-01 -0.10002257033E+00  0.88904952783E+00  0.88000000000E+00 0.  1.
        -11    1    4    4    0    0  0.35588391287E-01  0.12667169423E-01  0.44653642132E-01  0.58491021980E-01  0.51100000000E-03 0. -1.
         11    1    4    4    0    0  0.58844057763E-01  0.74999827252E-02  0.41554899259E-01  0.72428886836E-01  0.51100000000E-03 0.  1.
</event>
<event>
 8    1  0.1081309E+005  0.1043930E+01  0.7957747E-01            NaN
         13   -1    0    0    0    0  0.00000000000E+00  0.00000000000E+00  0.74505805969E-08  0.10566000000E+00  0.10566000000E+00 0.  1.
     999900   -1    0    0    0    0 -0.00000000000E+00 -0.00000000000E+00 -0.74505805969E-08  0.93827000000E+00  0.93827000000E+00 0.  1.
     999902    2    1    2    0    0  0.17292891071E-01  0.16174932666E-01  0.52489741410E-02  0.10196766650E+01  0.10193881876E+01 0.  0.
     999903    2    3    3    0    0 -0.12505143526E+00  0.41356761723E-02 -0.20612910162E-01  0.12778222732E+00  0.15761988308E-01 0.  0.
         14    1    1    2    0    0 -0.17292891071E-01 -0.16174932666E-01 -0.52489741410E-02  0.24253334985E-01  0.00000000000E+00 0. -1.
     999901    1    3    3    0    0  0.14234432633E+00  0.12039256494E-01  0.25861884303E-01  0.89189443770E+00  0.88000000000E+00 0.  1.
        -11    1    4    4    0    0 -0.81217984021E-01  0.10029050400E-01 -0.14942304871E-01  0.83189400624E-01  0.51100000000E-03 0. -1.
         11    1    4    4    0    0 -0.43833451238E-01 -0.58933742281E-02 -0.56706052909E-02  0.44592826694E-01  0.51100000000E-03 0.  1.
</event>
<event>
 8    1  0.1081309E+005  0.1043930E+01  0.7957747E-01            NaN
         13   -1    0    0    0    0  0.00000000000E+00  0.00000000000E+00  0.74505805969E-08  0.10566000000E+00  0.10566000000E+00 0.  1.
     999900   -1    0    0    0    0 -0.00000000000E+00 -0.00000000000E+00 -0.74505805969E-08  0.93827000000E+00  0.93827000000E+00 0. -1.
     999902    2    1    2    0    0  0.43023317744E-02 -0.22278566734E-01  0.66224977808E-02  0.10202931205E+01  0.10200192889E+01 0.  0.
     999903    2    3    3    0    0  0.36578736295E-01 -0.12353512044E+00 -0.28055450725E-01  0.13322084835E+00  0.19019889259E-01 0.  0.
         14    1    1    2    0    0 -0.43023317744E-02  0.22278566734E-01 -0.66224977808E-02  0.23636879474E-01  0.00000000000E+00 0.  1.
     999901    1    3    3    0    0 -0.32276404521E-01  0.10125655371E+00  0.34677948506E-01  0.88707227218E+00  0.88000000000E+00 0. -1.
        -11    1    4    4    0    0  0.28157271792E-01 -0.88497872300E-01 -0.28610564071E-01  0.97177831082E-01  0.51100000000E-03 0.  1.
         11    1    4    4    0    0  0.84214645036E-02 -0.35037248141E-01  0.55511334619E-03  0.36043017265E-01  0.51100000000E-03 0. -1.
</event>
<event>
 8    1  0.1081309E+005  0.1043930E+01  0.7957747E-01            NaN
         13   -1    0    0    0    0  0.00000000000E+00  0.00000000000E+00  0.74505805969E-08  0.10566000000E+00  0.10566000000E+00 0. -1.
     999900   -1    0    0    0    0 -0.00000000000E+00 -0.00000000000E+00 -0.74505805969E-08  0.93827000000E+00  0.93827000000E+00 0.  1.
     999902    2    1    2    0    0 -0.87726478814E-02 -0.16070042351E-01 -0.13190750656E-01  0.10213645061E+01  0.10211152006E+01 0.  0.
     999903    2    3    3    0    0  0.55875618394E-01  0.80241660818E-01 -0.84328032942E-01  0.13090627832E+00  0.21550584700E-01 0.  0.
         14    1    1    2    0    0  0.87726478814E-02  0.16070042351E-01  0.13190750656E-01  0.22565493898E-01  0.00000000000E+00 0. -1.
     999901    1    3    3    0    0 -0.64648266276E-01 -0.96311703169E-01  0.71137282286E-01  0.89045822779E+00  0.88000000000E+00 0.  1.
        -11    1    4    4    0    0  0.23964539767E-01  0.48081773240E-01 -0.36061496953E-01  0.64705863472E-01  0.51100000000E-03 0.  1.
         11    1    4    4    0    0  0.31911078627E-01  0.32159887579E-01 -0.48266535989E-01  0.66200414844E-01  0.51100000000E-03 0. -1.
</event>
<event>
 8    1  0.1081309E+005  0.1043930E+01  0.7957747E-01            NaN
         13   -1    0    0    0    0  0.00000000000E+00  0.00000000000E+00  0.74505805969E-08  0.10566000000E+00  0.10566000000E+00 0. -1.
     999900   -1    0    0    0    0 -0.00000000000E+00 -0.00000000000E+00 -0.74505805969E-08  0.93827000000E+00  0.93827000000E+00 0. -1.
     999902    2    1    2    0    0 -0.18997347844E-01  0.12195702845E-01 -0.60092049757E-02  0.10205688156E+01  0.10203014076E+01 0.  0.
     999903    2    3    3    0    0 -0.13305701599E-01  0.11355113267E+00  0.63708199304E-01  0.13199364462E+00  0.17108072252E-01 0.  0.
         14    1    1    2    0    0  0.18997347844E-01 -0.12195702845E-01  0.60092049757E-02  0.23361184418E-01  0.00000000000E+00 0.  1.
     999901    1    3    3    0    0 -0.56916462450E-02 -0.10135542982E+00 -0.69717404280E-01  0.88857517096E+00  0.88000000000E+00 0. -1.
        -11    1    4    4    0    0  0.41321123166E-02  0.24381848042E-01  0.14204303813E-01  0.28523187654E-01  0.51100000000E-03 0.  1.
         11    1    4    4    0    0 -0.17437813915E-01  0.89169284625E-01  0.49503895492E-01  0.10347045696E+00  0.51100000000E-03 0. -1.
</event>
<event>
 8    1  0.1081309E+005  0.1043930E+01  0.7957747E-01            NaN
         13   -1    0    0    0    0  0.00000000000E+00  0.00000000000E+00  0.74505805969E-08  0.10566000000E+00  0.10566000000E+00 0. -1.
     999900   -1    0    0    0    0 -0.00000000000E+00 -0.00000000000E+00 -0.74505805969E-08  0.93827000000E+00  0.93827000000E+00 0. -1.
     999902    2    1    2    0    0  0.11153964956E-01 -0.34937591472E-01  0.56260669677E-02  0.10068261072E+01  0.10061421924E+01 0.  0.
     999903    2    3    3    0    0 -0.44851357915E-01  0.14628813942E-01 -0.10492195772E+00  0.11676190136E+00  0.19976934025E-01 0.  0.
         14    1    1    2    0    0 -0.11153964956E-01  0.34937591472E-01 -0.56260669677E-02  0.37103892810E-01  0.00000000000E+00 0.  1.
     999901    1    3    3    0    0  0.56005322872E-01 -0.49566405414E-01  0.11054802469E+00  0.89006420583E+00  0.88000000000E+00 0.  1.
        -11    1    4    4    0    0 -0.77833492972E-02 -0.32124797027E-03 -0.38142809696E-01  0.38933517424E-01  0.51100000000E-03 0.  1.
         11    1    4    4    0    0 -0.37068008618E-01  0.14950061912E-01 -0.66779148026E-01  0.77828383936E-01  0.51100000000E-03 0. -1.
</event>
<event>
 8    1  0.1081309E+005  0.1043930E+01  0.7957747E-01            NaN
         13   -1    0    0    0    0  0.00000000000E+00  0.00000000000E+00  0.74505805969E-08  0.10566000000E+00  0.10566000000E+00 0.  1.
     999900   -1    0    0    0    0 -0.00000000000E+00 -0.00000000000E+00 -0.74505805969E-08  0.93827000000E+00  0.93827000000E+00 0.  1.
     999902    2    1    2    0    0  0.15901775059E-01 -0.83050220850E-02 -0.15604743440E-01  0.10201529552E+01  0.10198758278E+01 0.  0.
     999903    2    3    3    0    0 -0.23912318987E-01  0.82283756368E-01 -0.96770412181E-01  0.13089520030E+00  0.20654908019E-01 0.  0.
         14    1    1    2    0    0 -0.15901775059E-01  0.83050220850E-02  0.15604743440E-01  0.23777044806E-01  0.00000000000E+00 0.  1.
     999901    1    3    3    0    0  0.39814094046E-01 -0.90588778453E-01  0.81165668741E-01  0.88925775490E+00  0.88000000000E+00 0. -1.
        -11    1    4    4    0    0 -0.14533135169E-01  0.72345278241E-01 -0.75222234255E-01  0.10537408101E+00  0.51100000000E-03 0. -1.
         11    1    4    4    0    0 -0.93791838183E-02  0.99384781265E-02 -0.21548177926E-01  0.25521119284E-01  0.51100000000E-03 0.  1.
</event>
<event>
 8    1  0.1081309E+005  0.1043930E+01  0.7957747E-01            NaN
         13   -1    0    0    0    0  0.00000000000E+00  0.00000000000E+00  0.74505805969E-08  0.10566000000E+00  0.10566000000E+00 0.  1.
     999900   -1    0    0    0    0 -0.00000000000E+00 -0.00000000000E+00 -0.74505805969E-08  0.93827000000E+00  0.93827000000E+00 0.  1.
     999902    2    1    2    0    0  0.16555213029E-01  0.16119582633E-01 -0.17524871855E-02  0.10207570150E+01  0.10204939473E+01 0.  0.
     999903    2    3    3    0    0 -0.11689572696E+00 -0.38385472180E-01 -0.32299053368E-01  0.12850534249E+00  0.18230160288E-01 0.  0.
         14    1    1    2    0    0 -0.16555213029E-01 -0.16119582633E-01  0.17524871855E-02  0.23172985005E-01  0.00000000000E+00 0.  1.
     999901    1    3    3    0    0  0.13345093999E+00  0.54505054813E-01  0.30546566182E-01  0.89225167251E+00  0.88000000000E+00 0. -1.
        -11    1    4    4    0    0 -0.31062298018E-01 -0.93812247033E-02 -0.41093266096E-03  0.32454640989E-01  0.51100000000E-03 0. -1.
         11    1    4    4    0    0 -0.85833428941E-01 -0.29004247477E-01 -0.31888120707E-01  0.96050701500E-01  0.51100000000E-03 0.  1.
</event>
<event>
 8    1  0.1081309E+005  0.1043930E+01  0.7957747E-01            NaN
         13   -1    0    0    0    0  0.00000000000E+00  0.00000000000E+00  0.74505805969E-08  0.10566000000E+00  0.10566000000E+00 0. -1.
     999900   -1    0    0    0    0 -0.00000000000E+00 -0.00000000000E+00 -0.74505805969E-08  0.93827000000E+00  0.93827000000E+00 0. -1.
     999902    2    1    2    0    0 -0.18509410169E-01 -0.91702564994E-02 -0.87907222928E-02  0.10214807535E+01  0.10212340384E+01 0.  0.
     999903    2    3    3    0    0  0.11953549821E+00  0.42517352383E-01  0.86333868206E-02  0.12905058526E+00  0.21978571421E-01 0.  0.
         14    1    1    2    0    0  0.18509410169E-01  0.91702564994E-02  0.87907222928E-02  0.22449246479E-01  0.00000000000E+00 0. -1.
     999901    1    3    3    0    0 -0.13804490838E+00 -0.51687608883E-01 -0.17424109113E-01  0.89243016826E+00  0.88000000000E+00 0. -1.
        -11    1    4    4    0    0  0.38865446485E-01  0.16898255992E-01 -0.70568743754E-02  0.42966668279E-01  0.51100000000E-03 0. -1.
         11    1    4    4    0    0  0.80670051727E-01  0.25619096391E-01  0.15690261196E-01  0.86083916982E-01  0.51100000000E-03 0.  1.
</event>
<event>
 8    1  0.1081309E+005  0.1043930E+01  0.7957747E-01            NaN
         13   -1    0    0    0    0  0.00000000000E+00  0.00000000000E+00  0.74505805969E-08  0.10566000000E+00  0.10566000000E+00 0.  1.
     999900   -1    0    0    0    0 -0.00000000000E+00 -0.00000000000E+00 -0.74505805969E-08  0.93827000000E+00  0.93827000000E+00 0.  1.
     999902    2    1    2    0    0 -0.13487711451E-01 -0.10002622421E-01 -0.16097021656E-01  0.10206687678E+01  0.10204036695E+01 0.  0.
     999903    2    3    3    0    0  0.17698108482E-01  0.58046546315E-01 -0.11594124837E+00  0.13186501316E+00  0.16229110813E-01 0.  0.
         14    1    1    2    0    0  0.13487711451E-01  0.10002622421E-01  0.16097021656E-01  0.23261232161E-01  0.00000000000E+00 0.  1.
     999901    1    3    3    0    0 -0.31185819933E-01 -0.68049168736E-01  0.99844226715E-01  0.88880375468E+00  0.88000000000E+00 0. -1.
        -11    1    4    4    0    0  0.15936179791E-01  0.24703318261E-01 -0.52562078836E-01  0.60226647026E-01  0.51100000000E-03 0.  1.
         11    1    4    4    0    0  0.17619286910E-02  0.33343228054E-01 -0.63379169535E-01  0.71638366130E-01  0.51100000000E-03 0. -1.
</event>
<event>
 8    1  0.1081309E+005  0.1043930E+01  0.7957747E-01            NaN
         13   -1    0    0    0    0  0.00000000000E+00  0.00000000000E+00  0.74505805969E-08  0.10566000000E+00  0.10566000000E+00 0.  1.
     999900   -1    0    0    0    0 -0.00000000000E+00 -0.00000000000E+00 -0.74505805969E-08  0.93827000000E+00  0.93827000000E+00 0. -1.
     999902    2    1    2    0    0  0.15490142628E-01  0.71412160048E-03  0.19451741054E-01  0.10190538122E+01  0.10187501399E+01 0.  0.
     999903    2    3    3    0    0  0.11311007058E+00 -0.53154919067E-02 -0.60677829505E-01  0.13001683062E+00  0.20010865351E-01 0.  0.
         14    1    1    2    0    0 -0.15490142628E-01 -0.71412160048E-03 -0.19451741054E-01  0.24876187777E-01  0.00000000000E+00 0.  1.
     999901    1    3    3    0    0 -0.97619927949E-01  0.60296135072E-02  0.80129570559E-01  0.88903698160E+00  0.88000000000E+00 0.  1.
        -11    1    4    4    0    0  0.62988988393E-01  0.55605577246E-02 -0.27679414306E-01  0.69028570594E-01  0.51100000000E-03 0.  1.
         11    1    4    4    0    0  0.50121082184E-01 -0.10876049631E-01 -0.32998415199E-01  0.60988260030E-01  0.51100000000E-03 0. -1.
</event>
<event>
 8    1  0.1081309E+005  0.1043930E+01  0.7957747E-01            NaN
         13   -1    0    0    0    0  0.00000000000E+00  0.00000000000E+00  0.74505805969E-08  0.10566000000E+00  0.10566000000E+00 0. -1.
     999900   -1    0    0    0    0 -0.00000000000E+00 -0.00000000000E+00 -0.74505805969E-08  0.93827000000E+00  0.93827000000E+00 0. -1.
     999902    2    1    2    0    0  0.81566919044E-02  0.15289271122E-01  0.16692521855E-01  0.10198689585E+01  0.10195850914E+01 0.  0.
     999903    2    3    3    0    0  0.15200453643E-02  0.33209705970E-01  0.12693112480E+00  0.13278511989E+00  0.20376027940E-01 0.  0.
         14    1    1    2    0    0 -0.81566919044E-02 -0.15289271122E-01 -0.16692521855E-01  0.24061041543E-01  0.00000000000E+00 0.  1.
     999901    1    3    3    0    0  0.66366465401E-02 -0.17920434847E-01 -0.11023860294E+00  0.88708383856E+00  0.88000000000E+00 0. -1.
        -11    1    4    4    0    0 -0.48700243567E-03 -0.22056408794E-03  0.33900797334E-01  0.33908863160E-01  0.51100000000E-03 0. -1.
         11    1    4    4    0    0  0.20070477999E-02  0.33430270057E-01  0.93030327461E-01  0.98876256733E-01  0.51100000000E-03 0.  1.
</event>
<event>
 8    1  0.1081309E+005  0.1043930E+01  0.7957747E-01            NaN
         13   -1    0    0    0    0  0.00000000000E+00  0.00000000000E+00  0.74505805969E-08  0.10566000000E+00  0.10566000000E+00 0. -1.
     999900   -1    0    0    0    0 -0.00000000000E+00 -0.00000000000E+00 -0.74505805969E-08  0.93827000000E+00  0.93827000000E+00 0. -1.
     999902    2    1    2    0    0 -0.30780141457E-02  0.21264271588E-01 -0.14064356884E-01  0.10182502502E+01  0.10179263836E+01 0.  0.
     999903    2    3    3    0    0 -0.47756810965E-01  0.35249046254E-01  0.11167193487E+00  0.12808094948E+00  0.20270676532E-01 0.  0.
         14    1    1    2    0    0  0.30780141457E-02 -0.21264271588E-01  0.14064356884E-01  0.25679749839E-01  0.00000000000E+00 0. -1.
     999901    1    3    3    0    0  0.44678796820E-01 -0.13984774666E-01 -0.12573629175E+00  0.89016930068E+00  0.88000000000E+00 0. -1.
        -11    1    4    4    0    0 -0.44566306028E-01  0.23395152536E-01  0.92524137258E-01  0.10533027054E+00  0.51100000000E-03 0. -1.
         11    1    4    4    0    0 -0.31905049376E-02  0.11853893717E-01  0.19147797612E-01  0.22750678944E-01  0.51100000000E-03 0.  1.
</event>
<event>
 8    1  0.1081309E+005  0.1043930E+01  0.7957747E-01            NaN
         13   -1    0    0    0    0  0.00000000000E+00  0.00000000000E+00  0.74505805969E-08  0.10566000000E+00  0.10566000000E+00 0. -1.
     999900   -1    0    0    0    0 -0.00000000000E+00 -0.00000000000E+00 -0.74505805969E-08  0.93827000000E+00  0.93827000000E+00 0. -1.
     999902    2    1    2    0    0 -0.45732355338E-02  0.20885464172E-01  0.68377202157E-02  0.10214829175E+01  0.10212362504E+01 0.  0.
     999903    2    3    3    0    0 -0.41691899752E-03 -0.28063526762E-01  0.12729114530E+00  0.13191993132E+00  0.20300178622E-01 0.  0.
         14    1    1    2    0    0  0.45732355338E-02 -0.20885464172E-01 -0.68377202157E-02  0.22447082543E-01  0.00000000000E+00 0.  1.
     999901    1    3    3    0    0 -0.41563165363E-02  0.48948990934E-01 -0.12045342509E+00  0.88956298613E+00  0.88000000000E+00 0. -1.
        -11    1    4    4    0    0  0.74162011525E-02 -0.67201480797E-02  0.61458377255E-01  0.62270006308E-01  0.51100000000E-03 0.  1.
         11    1    4    4    0    0 -0.78331201500E-02 -0.21343378682E-01  0.65832768050E-01  0.69649925017E-01  0.51100000000E-03 0. -1.
</event>
<event>
 8    1  0.1081309E+005  0.1043930E+01  0.7957747E-01            NaN
         13   -1    0    0    0    0  0.00000000000E+00  0.00000000000E+00  0.74505805969E-08  0.10566000000E+00  0.10566000000E+00 0. -1.
     999900   -1    0    0    0    0 -0.00000000000E+00 -0.00000000000E+00 -0.74505805969E-08  0.93827000000E+00  0.93827000000E+00 0.  1.
     999902    2    1    2    0    0  0.14621586414E-01 -0.86686086102E-02  0.16890051786E-01  0.10199673329E+01  0.10196858098E+01 0.  0.
     999903    2    3    3    0    0 -0.25372703323E-01 -0.77711474263E-01 -0.98046735545E-01  0.12891350424E+00  0.17963349328E-01 0.  0.
         14    1    1    2    0    0 -0.14621586414E-01  0.86686086102E-02 -0.16890051786E-01  0.23962667085E-01  0.00000000000E+00 0.  1.
     999901    1    3    3    0    0  0.39994289737E-01  0.69042865653E-01  0.11493678733E+00  0.89105382867E+00  0.88000000000E+00 0. -1.
        -11    1    4    4    0    0 -0.41368403657E-02 -0.17423923832E-01 -0.33975817020E-01  0.38409944456E-01  0.51100000000E-03 0.  1.
         11    1    4    4    0    0 -0.21235862957E-01 -0.60287550431E-01 -0.64070918525E-01  0.90503559787E-01  0.51100000000E-03 0. -1.
</event>
<event>
 8    1  0.1081309E+005  0.1043930E+01  0.7957747E-01            NaN
         13   -1    0    0    0    0  0.00000000000E+00  0.00000000000E+00  0.74505805969E-08  0.10566000000E+00  0.10566000000E+00 0.  1.
     999900   -1    0    0    0    0 -0.00000000000E+00 -0.00000000000E+00 -0.74505805969E-08  0.93827000000E+00  0.93827000000E+00 0. -1.
     999902    2    1    2    0    0  0.17212726289E-01  0.12012436017E-01  0.55027563415E-02  0.10222307629E+01  0.10220004284E+01 0.  0.
     999903    2    3    3    0    0  0.60306660475E-01  0.10759696691E+00 -0.49620964638E-01  0.13429376378E+00  0.18936057472E-01 0.  0.
         14    1    1    2    0    0 -0.17212726289E-01 -0.12012436017E-01 -0.55027563415E-02  0.21699237145E-01  0.00000000000E+00 0. -1.
     999901    1    3    3    0    0 -0.43093934186E-01 -0.95584530895E-01  0.55123720979E-01  0.88793699907E+00  0.88000000000E+00 0. -1.
        -11    1    4    4    0    0  0.95720256617E-02  0.19025425622E-01 -0.16611384840E-01  0.27014620535E-01  0.51100000000E-03 0. -1.
         11    1    4    4    0    0  0.50734634813E-01  0.88571541289E-01 -0.33009579798E-01  0.10727914325E+00  0.51100000000E-03 0.  1.
</event>
<event>
 8    1  0.1081309E+005  0.1043930E+01  0.7957747E-01            NaN
         13   -1    0    0    0    0  0.00000000000E+00  0.00000000000E+00  0.74505805969E-08  0.10566000000E+00  0.10566000000E+00 0.  1.
     999900   -1    0    0    0    0 -0.00000000000E+00 -0.00000000000E+00 -0.74505805969E-08  0.93827000000E+00  0.93827000000E+00 0.  1.
     999902    2    1    2    0    0 -0.97514720108E-02 -0.14636822852E-01  0.14568311275E-01  0.10210922356E+01  0.10208368088E+01 0.  0.
     999903    2    3    3    0    0  0.10901897399E+00  0.63199137557E-01  0.23701747721E-01  0.12966176986E+00  0.19264839466E-01 0.  0.
         14    1    1    2    0    0  0.97514720108E-02  0.14636822852E-01 -0.14568311275E-01  0.22837764405E-01  0.00000000000E+00 0. -1.
     999901    1    3    3    0    0 -0.11877044601E+00 -0.77835960410E-01 -0.91334364460E-02  0.89143046573E+00  0.88000000000E+00 0. -1.
        -11    1    4    4    0    0  0.10910973302E-01  0.13897015475E-01  0.31374760597E-02  0.17952193585E-01  0.51100000000E-03 0. -1.
         11    1    4    4    0    0  0.98108000693E-01  0.49302122083E-01  0.20564271662E-01  0.11170957628E+00  0.51100000000E-03 0.  1.
</event>
<event>
 8    1  0.1081309E+005  0.1043930E+01  0.7957747E-01            NaN
         13   -1    0    0    0    0  0.00000000000E+00  0.00000000000E+00  0.74505805969E-08  0.10566000000E+00  0.10566000000E+00 0. -1.
     999900   -1    0    0    0    0 -0.00000000000E+00 -0.00000000000E+00 -0.74505805969E-08  0.93827000000E+00  0.93827000000E+00 0.  1.
     999902    2    1    2    0    0 -0.25627963135E-02 -0.21487181311E-01  0.10357764305E-01  0.10199393734E+01  0.10196571851E+01 0.  0.
     999903    2    3    3    0    0  0.45399651247E-01 -0.11308417330E+00  0.49378527055E-01  0.13302730035E+00  0.20220413442E-01 0.  0.
         14    1    1    2    0    0  0.25627963135E-02  0.21487181311E-01 -0.10357764305E-01  0.23990626649E-01  0.00000000000E+00 0.  1.
     999901    1    3    3    0    0 -0.47962447561E-01  0.91596991984E-01 -0.39020762751E-01  0.88691207301E+00  0.88000000000E+00 0.  1.
        -11    1    4    4    0    0  0.22843520626E-01 -0.81780118812E-01  0.32734922663E-01  0.91003574382E-01  0.51100000000E-03 0.  1.
         11    1    4    4    0    0  0.22556130621E-01 -0.31304054483E-01  0.16643604392E-01  0.42023725964E-01  0.51100000000E-03 0. -1.
</event>
<event>
 8    1  0.1081309E+005  0.1043930E+01  0.7957747E-01            NaN
         13   -1    0    0    0    0  0.00000000000E+00  0.00000000000E+00  0.74505805969E-08  0.10566000000E+00  0.10566000000E+00 0. -1.
     999900   -1    0    0    0    0 -0.00000000000E+00 -0.00000000000E+00 -0.74505805969E-08  0.93827000000E+00  0.93827000000E+00 0.  1.
     999902    2    1    2    0    0 -0.96721344439E-02  0.11913573123E-02 -0.22887281217E-01  0.10190543662E+01  0.10187507075E+01 0.  0.
     999903    2    3    3    0    0  0.13206236398E-01  0.39695815603E-02 -0.13019905613E+00  0.13223592059E+00  0.18557538094E-01 0.  0.
         14    1    1    2    0    0  0.96721344439E-02 -0.11913573123E-02  0.22887281217E-01  0.24875633830E-01  0.00000000000E+00 0. -1.
     999901    1    3    3    0    0 -0.22878370842E-01 -0.27782242479E-02  0.10731177491E+00  0.88681844558E+00  0.88000000000E+00 0. -1.
        -11    1    4    4    0    0  0.53631485758E-02 -0.67617847582E-02 -0.73019427372E-01  0.73529470218E-01  0.51100000000E-03 0.  1.
         11    1    4    4    0    0  0.78430878220E-02  0.10731366318E-01 -0.57179628758E-01  0.58706450374E-01  0.51100000000E-03 0. -1.
</event>
<event>
 8    1  0.1081309E+005  0.1043930E+01  0.7957747E-01            NaN
         13   -1    0    0    0    0  0.00000000000E+00  0.00000000000E+00  0.74505805969E-08  0.10566000000E+00  0.10566000000E+00 0.  1.
     999900   -1    0    0    0    0 -0.00000000000E+00 -0.00000000000E+00 -0.74505805969E-08  0.93827000000E+00  0.93827000000E+00 0. -1.
     999902    2    1    2    0    0 -0.21898294454E-01 -0.52344971103E-02 -0.46524469830E-02  0.10209391209E+01  0.10206802183E+01 0.  0.
     999903    2    3    3    0    0 -0.67237232139E-01 -0.10890689459E+00 -0.31026917595E-01  0.13330225933E+00  0.20621970118E-01 0.  0.
         14    1    1    2    0    0  0.21898294454E-01  0.52344971103E-02  0.46524469830E-02  0.22990879125E-01  0.00000000000E+00 0.  1.
     999901    1    3    3    0    0  0.45338937684E-01  0.10367239748E+00  0.26374470612E-01  0.88763686154E+00  0.88000000000E+00 0. -1.
        -11    1    4    4    0    0 -0.44319294810E-01 -0.88018392371E-01 -0.21592625678E-01  0.10088577646E+00  0.51100000000E-03 0. -1.
         11    1    4    4    0    0 -0.22917937328E-01 -0.20888502223E-01 -0.94342919167E-02  0.32416482867E-01  0.51100000000E-03 0.  1.
</event>
<event>
 7    1  0.1081309E+005  0.1043930E+01  0.7957747E-01            NaN
         13   -1    0    0    0    0  0.00000000000E+00  0.00000000000E+00  0.74505805969E-08  0.10566000000E+00  0.10566000000E+00 0. -1.
     999900   -1    0    0    0    0 -0.00000000000E+00 -0.00000000000E+00 -0.74505805969E-08  0.93827000000E+00  0.93827000000E+00 0. -1.
     999903    2    1    2    0    0  0.21185200384E-01 -0.20033969759E-01  0.20790994596E-01  0.43607124675E-01  0.24882588421E-01 0.  0.
         14    1    1    2    0    0 -0.28395249774E-01  0.10728586501E+00  0.28581972816E-01  0.11460137962E+00  0.00000000000E+00 0. -1.
     999901    1    1    2    0    0  0.72100493905E-02 -0.87251895254E-01 -0.49372967412E-01  0.88572149570E+00  0.88000000000E+00 0. -1.
        -11    1    3    3    0    0  0.68215072732E-02 -0.14067180901E-01  0.23076181633E-01  0.27878124394E-01  0.51100000000E-03 0. -1.
         11    1    3    3    0    0  0.14363693111E-01 -0.59667888576E-02 -0.22851870368E-02  0.15729000281E-01  0.51100000000E-03 0.  1.
</event>
<event>
 8    1  0.1081309E+005  0.1043930E+01  0.7957747E-01            NaN
         13   -1    0    0    0    0  0.00000000000E+00  0.00000000000E+00  0.74505805969E-08  0.10566000000E+00  0.10566000000E+00 0.  1.
     999900   -1    0    0    0    0 -0.00000000000E+00 -0.00000000000E+00 -0.74505805969E-08  0.93827000000E+00  0.93827000000E+00 0.  1.
     999902    2    1    2    0    0 -0.98938104097E-02  0.17046189862E-01  0.12930732538E-01  0.10203574754E+01  0.10200851502E+01 0.  0.
     999903    2    3    3    0    0 -0.10030102707E+00  0.64561644680E-01 -0.52907968593E-01  0.13200736543E+00  0.19954683445E-01 0.  0.
         14    1    1    2    0    0  0.98938104097E-02 -0.17046189862E-01 -0.12930732538E-01  0.23572524625E-01  0.00000000000E+00 0. -1.
     999901    1    3    3    0    0  0.90407216665E-01 -0.47515454818E-01  0.65838701131E-01  0.88835010994E+00  0.88000000000E+00 0. -1.
        -11    1    4    4    0    0 -0.78955555866E-01  0.44648514812E-01 -0.32364375982E-01  0.96307754780E-01  0.51100000000E-03 0.  1.
         11    1    4    4    0    0 -0.21345471208E-01  0.19913129868E-01 -0.20543592612E-01  0.35699610651E-01  0.51100000000E-03 0. -1.
</event>
<event>
 8    1  0.1081309E+005  0.1043930E+01  0.7957747E-01            NaN
         13   -1    0    0    0    0  0.00000000000E+00  0.00000000000E+00  0.74505805969E-08  0.10566000000E+00  0.10566000000E+00 0. -1.
     999900   -1    0    0    0    0 -0.00000000000E+00 -0.00000000000E+00 -0.74505805969E-08  0.93827000000E+00  0.93827000000E+00 0. -1.
     999902    2    1    2    0    0 -0.43458186690E-02 -0.20457694938E-01  0.95287504585E-02  0.10209473868E+01  0.10206886725E+01 0.  0.
     999903    2    3    3    0    0  0.51079980252E-02 -0.66378592849E-01 -0.11173663443E+00  0.13139502915E+00  0.18637837268E-01 0.  0.
         14    1    1    2    0    0  0.43458186690E-02  0.20457694938E-01 -0.95287504585E-02  0.22982613154E-01  0.00000000000E+00 0. -1.
     999901    1    3    3    0    0 -0.94538166942E-02  0.45920897911E-01  0.12126538489E+00  0.88955235770E+00  0.88000000000E+00 0.  1.
        -11    1    4    4    0    0  0.11318709470E-01 -0.45974682033E-01 -0.69822275026E-01  0.84363474223E-01  0.51100000000E-03 0.  1.
         11    1    4    4    0    0 -0.62107114450E-02 -0.20403910816E-01 -0.41914359406E-01  0.47031554925E-01  0.51100000000E-03 0. -1.
</event>
<event>
 8    1  0.1081309E+005  0.1043930E+01  0.7957747E-01            NaN
         13   -1    0    0    0    0  0.00000000000E+00  0.00000000000E+00  0.74505805969E-08  0.10566000000E+00  0.10566000000E+00 0. -1.
     999900   -1    0    0    0    0 -0.00000000000E+00 -0.00000000000E+00 -0.74505805969E-08  0.93827000000E+00  0.93827000000E+00 0.  1.
     999902    2    1    2    0    0 -0.14185747552E-01  0.13298100612E-01  0.14569433991E-01  0.10196330183E+01  0.10193434890E+01 0.  0.
     999903    2    3    3    0    0 -0.48424832709E-01 -0.11767746711E+00  0.10573660795E-01  0.12927192272E+00  0.20161275102E-01 0.  0.
         14    1    1    2    0    0  0.14185747552E-01 -0.13298100612E-01 -0.14569433991E-01  0.24296981711E-01  0.00000000000E+00 0.  1.
     999901    1    3    3    0    0  0.34239085157E-01  0.13097556772E+00  0.39957731959E-02  0.89036109557E+00  0.88000000000E+00 0.  1.
        -11    1    4    4    0    0 -0.31092668435E-01 -0.96897675285E-01  0.89876526542E-02  0.10216140429E+00  0.51100000000E-03 0.  1.
         11    1    4    4    0    0 -0.17332164274E-01 -0.20779791825E-01  0.15860081406E-02  0.27110518430E-01  0.51100000000E-03 0. -1.
</event>
<event>
 7    1  0.1081309E+005  0.1043930E+01  0.7957747E-01            NaN
         13   -1    0    0    0    0  0.00000000000E+00  0.00000000000E+00  0.74505805969E-08  0.10566000000E+00  0.10566000000E+00 0.  1.
     999900   -1    0    0    0    0 -0.00000000000E+00 -0.00000000000E+00 -0.74505805969E-08  0.93827000000E+00  0.93827000000E+00 0. -1.
     999903    2    1    2    0    0 -0.29631046689E-01  0.41458258847E-01 -0.11944089541E-01  0.56212175039E-01  0.20502711847E-01 0.  0.
         14    1    1    2    0    0 -0.52894599575E-01  0.33007416758E-01  0.76133866503E-01  0.98405761284E-01  0.00000000000E+00 0.  1.
     999901    1    1    2    0    0  0.82525646264E-01 -0.74465675606E-01 -0.64189776962E-01  0.88931206368E+00  0.88000000000E+00 0. -1.
        -11    1    3    3    0    0 -0.11619687813E-01  0.58057644941E-02 -0.96676535120E-02  0.16200268259E-01  0.51100000000E-03 0. -1.
         11    1    3    3    0    0 -0.18011358876E-01  0.35652494353E-01 -0.22764360291E-02  0.40011906780E-01  0.51100000000E-03 0.  1.
</event>
<event>
 8    1  0.1081309E+005  0.1043930E+01  0.7957747E-01            NaN
         13   -1    0    0    0    0  0.00000000000E+00  0.00000000000E+00  0.74505805969E-08  0.10566000000E+00  0.10566000000E+00 0. -1.
     999900   -1    0    0    0    0 -0.00000000000E+00 -0.00000000000E+00 -0.74505805969E-08  0.93827000000E+00  0.93827000000E+00 0. -1.
     999902    2    1    2    0    0 -0.89720437914E-03  0.11862461313E-01  0.21984233572E-01  0.10189334104E+01  0.10186267547E+01 0.  0.
     999903    2    3    3    0    0  0.11511234771E+00 -0.43378054777E-01 -0.29344271808E-01  0.12812234951E+00  0.20536356169E-01 0.  0.
         14    1    1    2    0    0  0.89720437914E-03 -0.11862461313E-01 -0.21984233572E-01  0.24996589565E-01  0.00000000000E+00 0.  1.
     999901    1    3    3    0    0 -0.11600955209E+00  0.55240516090E-01  0.51328505381E-01  0.89081106092E+00  0.88000000000E+00 0.  1.
        -11    1    4    4    0    0  0.36474094449E-01 -0.17253540893E-01 -0.42242458505E-03  0.40354476861E-01  0.51100000000E-03 0.  1.
         11    1    4    4    0    0  0.78638253265E-01 -0.26124513884E-01 -0.28921847223E-01  0.87767872653E-01  0.51100000000E-03 0. -1.
</event>
<event>
 8    1  0.1081309E+005  0.1043930E+01  0.7957747E-01            NaN
         13   -1    0    0    0    0  0.00000000000E+00  0.00000000000E+00  0.74505805969E-08  0.10566000000E+00  0.10566000000E+00 0.  1.
     999900   -1    0    0    0    0 -0.00000000000E+00 -0.00000000000E+00 -0.74505805969E-08  0.93827000000E+00  0.93827000000E+00 0.  1.
     999902    2    1    2    0    0 -0.10756074666E-01 -0.25596451548E-01 -0.11665678233E-01  0.10138142313E+01  0.10133668320E+01 0.  0.
     999903    2    3    3    0    0 -0.11732682810E+00  0.38283336277E-01  0.21372624245E-02  0.12497877189E+00  0.19594057884E-01 0.  0.
         14    1    1    2    0    0  0.10756074666E-01  0.25596451548E-01  0.11665678233E-01  0.30115768672E-01  0.00000000000E+00 0.  1.
     999901    1    3    3    0    0  0.10657075344E+00 -0.63879787825E-01 -0.13802940657E-01  0.88883545944E+00  0.88000000000E+00 0. -1.
        -11    1    4    4    0    0 -0.42252254690E-01  0.22350367520E-01 -0.40978158121E-02  0.47977548604E-01  0.51100000000E-03 0.  1.
         11    1    4    4    0    0 -0.75074573410E-01  0.15932968757E-01  0.62350782366E-02  0.77001223288E-01  0.51100000000E-03 0. -1.
</event>
<event>
 8    1  0.1081309E+005  0.1043930E+01  0.7957747E-01            NaN
         13   -1    0    0    0    0  0.00000000000E+00  0.00000000000E+00  0.74505805969E-08  0.10566000000E+00  0.10566000000E+00 0. -1.
     999900   -1    0    0    0    0 -0.00000000000E+00 -0.00000000000E+00 -0.74505805969E-08  0.93827000000E+00  0.93827000000E+00 0. -1.
     999902    2    1    2    0    0 -0.98884674208E-02 -0.18128702916E-01 -0.43103627487E-02  0.10228347189E+01  0.10226171577E+01 0.  0.
     999903    2    3    3    0    0 -0.72408629146E-01 -0.33252268329E-01  0.10559325354E+00  0.13366865021E+00  0.19200258612E-01 0.  0.
         14    1    1    2    0    0  0.98884674208E-02  0.18128702916E-01  0.43103627487E-02  0.21095281093E-01  0.00000000000E+00 0. -1.
     999901    1    3    3    0    0  0.62520161725E-01  0.15123565412E-01 -0.10990361629E+00  0.88916606870E+00  0.88000000000E+00 0. -1.
        -11    1    4    4    0    0 -0.13995534090E-01  0.21341302241E-03  0.25001155906E-01  0.28657275467E-01  0.51100000000E-03 0. -1.
         11    1    4    4    0    0 -0.58413095056E-01 -0.33465681351E-01  0.80592097637E-01  0.10501137474E+00  0.51100000000E-03 0.  1.
</event>
<event>
 8    1  0.1081309E+005  0.1043930E+01  0.7957747E-01            NaN
         13   -1    0    0    0    0  0.00000000000E+00  0.00000000000E+00  0.74505805969E-08  0.10566000000E+00  0.10566000000E+00 0. -1.
     999900   -1    0    0    0    0 -0.00000000000E+00 -0.00000000000E+00 -0.74505805969E-08  0.93827000000E+00  0.93827000000E+00 0. -1.
     999902    2    1    2    0    0  0.13704366537E-01 -0.17567060182E-01  0.61654866784E-02  0.10208123770E+01  0.10205505792E+01 0.  0.
     999903    2    3    3    0    0 -0.16053594687E-01 -0.93944194771E-01 -0.89050366127E-01  0.13188883613E+00  0.19531199537E-01 0.  0.
         14    1    1    2    0    0 -0.13704366537E-01  0.17567060182E-01 -0.61654866784E-02  0.23117622966E-01  0.00000000000E+00 0.  1.
     999901    1    3    3    0    0  0.29757961224E-01  0.76377134590E-01  0.95215852806E-01  0.88892354090E+00  0.88000000000E+00 0.  1.
        -11    1    4    4    0    0 -0.42923613739E-02 -0.73724737501E-01 -0.69192364961E-01  0.10120081905E+00  0.51100000000E-03 0. -1.
         11    1    4    4    0    0 -0.11761233313E-01 -0.20219457270E-01 -0.19858001166E-01  0.30688017085E-01  0.51100000000E-03 0.  1.
</event>
<event>
 8    1  0.1081309E+005  0.1043930E+01  0.7957747E-01            NaN
         13   -1    0    0    0    0  0.00000000000E+00  0.00000000000E+00  0.74505805969E-08  0.10566000000E+00  0.10566000000E+00 0.  1.
     999900   -1    0    0    0    0 -0.00000000000E+00 -0.00000000000E+00 -0.74505805969E-08  0.93827000000E+00  0.93827000000E+00 0. -1.
     999902    2    1    2    0    0  0.22144439105E-01  0.14328220187E-01 -0.34179570336E-02  0.10173338253E+01  0.10169861138E+01 0.  0.
     999903    2    3    3    0    0 -0.43655733325E-01 -0.54306124969E-01  0.10287986173E+00  0.12585215849E+00  0.19988036077E-01 0.  0.
         14    1    1    2    0    0 -0.22144439105E-01 -0.14328220187E-01  0.34179570336E-02  0.26596174673E-01  0.00000000000E+00 0. -1.
     999901    1    3    3    0    0  0.65800172429E-01  0.68634345156E-01 -0.10629781876E+00  0.89148166683E+00  0.88000000000E+00 0. -1.
        -11    1    4    4    0    0 -0.73704376870E-02 -0.20643572614E-01  0.42096091072E-01  0.47463906777E-01  0.51100000000E-03 0.  1.
         11    1    4    4    0    0 -0.36285295638E-01 -0.33662552355E-01  0.60783770659E-01  0.78388251716E-01  0.51100000000E-03 0. -1.
</event>
<event>
 8    1  0.1081309E+005  0.1043930E+01  0.7957747E-01            NaN
         13   -1    0    0    0    0  0.00000000000E+00  0.00000000000E+00  0.74505805969E-08  0.10566000000E+00  0.10566000000E+00 0.  1.
     999900   -1    0    0    0    0 -0.00000000000E+00 -0.00000000000E+00 -0.74505805969E-08  0.93827000000E+00  0.93827000000E+00 0. -1.
     999902    2    1    2    0    0  0.17532935075E-01  0.71771114277E-02 -0.14995332955E-01  0.10197685689E+01  0.10194822997E+01 0.  0.
     999903    2    3    3    0    0 -0.37466508038E-01  0.35383610702E-01  0.11525936050E+00  0.12803608073E+00  0.21278596162E-01 0.  0.
         14    1    1    2    0    0 -0.17532935075E-01 -0.71771114277E-02  0.14995332955E-01  0.24161431068E-01  0.00000000000E+00 0.  1.
     999901    1    3    3    0    0  0.54999443113E-01 -0.28206499274E-01 -0.13025469346E+00  0.89173248820E+00  0.88000000000E+00 0. -1.
        -11    1    4    4    0    0 -0.62260463406E-02  0.12714972636E-01  0.52302748239E-01  0.54187385770E-01  0.51100000000E-03 0. -1.
         11    1    4    4    0    0 -0.31240461697E-01  0.22668638066E-01  0.62956612265E-01  0.73848694962E-01  0.51100000000E-03 0.  1.
</event>
<event>
 8    1  0.1081309E+005  0.1043930E+01  0.7957747E-01            NaN
         13   -1    0    0    0    0  0.00000000000E+00  0.00000000000E+00  0.74505805969E-08  0.10566000000E+00  0.10566000000E+00 0. -1.
     999900   -1    0    0    0    0 -0.00000000000E+00 -0.00000000000E+00 -0.74505805969E-08  0.93827000000E+00  0.93827000000E+00 0.  1.
     999902    2    1    2    0    0  0.76716930271E-02 -0.29887286097E-01  0.19646775719E-02  0.10130113211E+01  0.10125393682E+01 0.  0.
     999903    2    3    3    0    0 -0.61528583807E-01  0.66076701165E-01 -0.79164516455E-01  0.12139497356E+00  0.17827559481E-01 0.  0.
         14    1    1    2    0    0 -0.76716930271E-02  0.29887286097E-01 -0.19646775719E-02  0.30918678854E-01  0.00000000000E+00 0. -1.
     999901    1    3    3    0    0  0.69200276834E-01 -0.95963987262E-01  0.81129194027E-01  0.89161634759E+00  0.88000000000E+00 0. -1.
        -11    1    4    4    0    0 -0.34578025891E-01  0.47443167548E-01 -0.44296924231E-01  0.73545718019E-01  0.51100000000E-03 0. -1.
         11    1    4    4    0    0 -0.26950557916E-01  0.18633533617E-01 -0.34867592223E-01  0.47849255538E-01  0.51100000000E-03 0.  1.
</event>
<event>
 8    1  0.1081309E+005  0.1043930E+01  0.7957747E-01            NaN
         13   -1    0    0    0    0  0.00000000000E+00  0.00000000000E+00  0.74505805969E-08  0.10566000000E+00  0.10566000000E+00 0. -1.
     999900   -1    0    0    0    0 -0.00000000000E+00 -0.00000000000E+00 -0.74505805969E-08  0.93827000000E+00  0.93827000000E+00 0.  1.
     999902    2    1    2    0    0  0.19152653444E-01  0.11352398524E-01 -0.63203187040E-03  0.10216566852E+01  0.10214138642E+01 0.  0.
     999903    2    3    3    0    0  0.12462781797E+00  0.35867618391E-01  0.29093446389E-01  0.13452106404E+00  0.20758347393E-01 0.  0.
         14    1    1    2    0    0 -0.19152653444E-01 -0.11352398524E-01  0.63203187040E-03  0.22273314762E-01  0.00000000000E+00 0.  1.
     999901    1    3    3    0    0 -0.10547516453E+00 -0.24515219867E-01 -0.29725478260E-01  0.88713562120E+00  0.88000000000E+00 0.  1.
        -11    1    4    4    0    0  0.55422446776E-01  0.26709675204E-01  0.13984551224E-01  0.63094240229E-01  0.51100000000E-03 0. -1.
         11    1    4    4    0    0  0.69205371197E-01  0.91579431871E-02  0.15108895165E-01  0.71426823813E-01  0.51100000000E-03 0.  1.
</event>
<event>
 8    1  0.1081309E+005  0.1043930E+01  0.7957747E-01            NaN
         13   -1    0    0    0    0  0.00000000000E+00  0.00000000000E+00  0.74505805969E-08  0.10566000000E+00  0.10566000000E+00 0. -1.
     999900   -1    0    0    0    0 -0.00000000000E+00 -0.00000000000E+00 -0.74505805969E-08  0.93827000000E+00  0.93827000000E+00 0. -1.
     999902    2    1    2    0    0 -0.94359715215E-02 -0.15458442387E-01 -0.14078710278E-01  0.10209907088E+01  0.10207329799E+01 0.  0.
     999903    2    3    3    0    0  0.81123005681E-01  0.16982607208E-01  0.96643203823E-01  0.12885131813E+00  0.19834372691E-01 0.  0.
         14    1    1    2    0    0  0.94359715215E-02  0.15458442387E-01  0.14078710278E-01  0.22939291241E-01  0.00000000000E+00 0.  1.
     999901    1    3    3    0    0 -0.90558977203E-01 -0.32441049594E-01 -0.11072191410E+00  0.89213939063E+00  0.88000000000E+00 0. -1.
        -11    1    4    4    0    0  0.50988762017E-01  0.11651429012E-01  0.45884984936E-01  0.69579469771E-01  0.51100000000E-03 0. -1.
         11    1    4    4    0    0  0.30134243664E-01  0.53311781958E-02  0.50758218887E-01  0.59271848358E-01  0.51100000000E-03 0.  1.
</event>
<event>
 8    1  0.1081309E+005  0.1043930E+01  0.7957747E-01            NaN
         13   -1    0    0    0    0  0.00000000000E+00  0.00000000000E+00  0.74505805969E-08  0.10566000000E+00  0.10566000000E+00 0. -1.
     999900   -1    0    0    0    0 -0.00000000000E+00 -0.00000000000E+00 -0.74505805969E-08  0.93827000000E+00  0.93827000000E+00 0.  1.
     999902    2    1    2    0    0 -0.29378500982E-02  0.28352411331E-02  0.22738775948E-01  0.10208275870E+01  0.10205661374E+01 0.  0.
     999903    2    3    3    0    0  0.11583532600E+00 -0.53582729372E-01  0.21882630991E-01  0.13105751121E+00  0.20206188904E-01 0.  0.
         14    1    1    2    0    0  0.29378500982E-02 -0.28352411331E-02 -0.22738775948E-01  0.23102413015E-01  0.00000000000E+00 0.  1.
     999901    1    3    3    0    0 -0.11877317610E+00  0.56417970505E-01  0.85614495695E-03  0.88977007577E+00  0.88000000000E+00 0. -1.
        -11    1    4    4    0    0  0.65751616020E-01 -0.22521539344E-01  0.18987643712E-01  0.72050582776E-01  0.51100000000E-03 0.  1.
         11    1    4    4    0    0  0.50083709979E-01 -0.31061190028E-01  0.28949872798E-02  0.59006928436E-01  0.51100000000E-03 0. -1.
</event>
<event>
 8    1  0.1081309E+005  0.1043930E+01  0.7957747E-01            NaN
         13   -1    0    0    0    0  0.00000000000E+00  0.00000000000E+00  0.74505805969E-08  0.10566000000E+00  0.10566000000E+00 0.  1.
     999900   -1    0    0    0    0 -0.00000000000E+00 -0.00000000000E+00 -0.74505805969E-08  0.93827000000E+00  0.93827000000E+00 0. -1.
     999902    2    1    2    0    0  0.14187339110E-01 -0.79916927664E-02  0.16865267177E-01  0.10204867711E+01  0.10202174597E+01 0.  0.
     999903    2    3    3    0    0  0.70153494542E-01  0.79632591218E-01 -0.71531458563E-01  0.12996770515E+00  0.22627249887E-01 0.  0.
         14    1    1    2    0    0 -0.14187339110E-01  0.79916927664E-02 -0.16865267177E-01  0.23443228900E-01  0.00000000000E+00 0. -1.
     999901    1    3    3    0    0 -0.55966155432E-01 -0.87624283984E-01  0.88396725740E-01  0.89051906595E+00  0.88000000000E+00 0.  1.
        -11    1    4    4    0    0  0.46724883322E-01  0.37169807908E-01 -0.34616326353E-01  0.69017103044E-01  0.51100000000E-03 0. -1.
         11    1    4    4    0    0  0.23428611220E-01  0.42462783310E-01 -0.36915132210E-01  0.60950602107E-01  0.51100000000E-03 0.  1.
</event>
<event>
 8    1  0.1081309E+005  0.1043930E+01  0.7957747E-01            NaN
         13   -1    0    0    0    0  0.00000000000E+00  0.00000000000E+00  0.74505805969E-08  0.10566000000E+00  0.10566000000E+00 0. -1.
     999900   -1    0    0    0    0 -0.00000000000E+00 -0.00000000000E+00 -0.74505805969E-08  0.93827000000E+00  0.93827000000E+00 0.  1.
     999902    2    1    2    0    0 -0.10368856155E-01  0.22080822123E-01  0.15199229400E-02  0.10194885179E+01  0.10191954925E+01 0.  0.
     999903    2    3    3    0    0  0.59162911766E-01 -0.67071978570E-01  0.87289118834E-01  0.12811920967E+00  0.28217745844E-01 0.  0.
         14    1    1    2    0    0  0.10368856155E-01 -0.22080822123E-01 -0.15199229400E-02  0.24441482143E-01  0.00000000000E+00 0.  1.
     999901    1    3    3    0    0 -0.69531767921E-01  0.89152800693E-01 -0.85769195894E-01  0.89136930819E+00  0.88000000000E+00 0.  1.
        -11    1    4    4    0    0  0.14415115144E-01 -0.29265827359E-01  0.46215383368E-01  0.56572139578E-01  0.51100000000E-03 0. -1.
         11    1    4    4    0    0  0.44747796622E-01 -0.37806151212E-01  0.41073735467E-01  0.71547070088E-01  0.51100000000E-03 0.  1.
</event>
<event>
 8    1  0.1081309E+005  0.1043930E+01  0.7957747E-01            NaN
         13   -1    0    0    0    0  0.00000000000E+00  0.00000000000E+00  0.74505805969E-08  0.10566000000E+00  0.10566000000E+00 0.  1.
     999900   -1    0    0    0    0 -0.00000000000E+00 -0.00000000000E+00 -0.74505805969E-08  0.93827000000E+00  0.93827000000E+00 0.  1.
     999902    2    1    2    0    0  0.22800827180E-01  0.43540713295E-02 -0.57620546165E-02  0.10200127065E+01  0.10197322611E+01 0.  0.
     999903    2    3    3    0    0 -0.85952220788E-01  0.74720331838E-01  0.55793360226E-01  0.12840309168E+00  0.20088371235E-01 0.  0.
         14    1    1    2    0    0 -0.22800827180E-01 -0.43540713295E-02  0.57620546165E-02  0.23917293548E-01  0.00000000000E+00 0.  1.
     999901    1    3    3    0    0  0.10875304797E+00 -0.70366260509E-01 -0.61555414842E-01  0.89160961477E+00  0.88000000000E+00 0.  1.
        -11    1    4    4    0    0 -0.16944162862E-01  0.94680994650E-02  0.17013341755E-01  0.25815973374E-01  0.51100000000E-03 0. -1.
         11    1    4    4    0    0 -0.69008057926E-01  0.65252232373E-01  0.38780018471E-01  0.10258711830E+00  0.51100000000E-03 0.  1.
</event>
<event>
 8    1  0.1081309E+005  0.1043930E+01  0.7957747E-01            NaN
         13   -1    0    0    0    0  0.00000000000E+00  0.00000000000E+00  0.74505805969E-08  0.10566000000E+00  0.10566000000E+00 0. -1.
     999900   -1    0    0    0    0 -0.00000000000E+00 -0.00000000000E+00 -0.74505805969E-08  0.93827000000E+00  0.93827000000E+00 0.  1.
     999902    2    1    2    0    0  0.18610716170E-01 -0.38409081967E-02 -0.14009610404E-01  0.10203210924E+01  0.10200479161E+01 0.  0.
     999903    2    3    3    0    0  0.71515277322E-01 -0.10958051483E+00  0.35130814273E-03  0.13229744807E+00  0.19497877508E-01 0.  0.
         14    1    1    2    0    0 -0.18610716170E-01  0.38409081967E-02  0.14009610404E-01  0.23608907552E-01  0.00000000000E+00 0. -1.
     999901    1    3    3    0    0 -0.52904561152E-01  0.10573960663E+00 -0.14360918546E-01  0.88802364438E+00  0.88000000000E+00 0. -1.
        -11    1    4    4    0    0  0.45878117970E-01 -0.77261257798E-01  0.84504697131E-02  0.90253948525E-01  0.51100000000E-03 0.  1.
         11    1    4    4    0    0  0.25637159351E-01 -0.32319257028E-01 -0.80991615704E-02  0.42043499540E-01  0.51100000000E-03 0. -1.
</event>
<event>
 8    1  0.1081309E+005  0.1043930E+01  0.7957747E-01            NaN
         13   -1    0    0    0    0  0.00000000000E+00  0.00000000000E+00  0.74505805969E-08  0.10566000000E+00  0.10566000000E+00 0. -1.
     999900   -1    0    0    0    0 -0.00000000000E+00 -0.00000000000E+00 -0.74505805969E-08  0.93827000000E+00  0.93827000000E+00 0. -1.
     999902    2    1    2    0    0  0.10860320732E-01 -0.18528365208E-01  0.12660223170E-01  0.10189995340E+01  0.10186945186E+01 0.  0.
     999903    2    3    3    0    0 -0.82652514025E-01  0.24179166591E-01  0.94338736170E-01  0.12925801929E+00  0.19793136090E-01 0.  0.
         14    1    1    2    0    0 -0.10860320732E-01  0.18528365208E-01 -0.12660223170E-01  0.24930465989E-01  0.00000000000E+00 0.  1.
     999901    1    3    3    0    0  0.93512834757E-01 -0.42707531800E-01 -0.81678513000E-01  0.88974151472E+00  0.88000000000E+00 0. -1.
        -11    1    4    4    0    0 -0.47056600634E-01  0.23705657255E-01  0.58742060612E-01  0.78912436631E-01  0.51100000000E-03 0.  1.
         11    1    4    4    0    0 -0.35595913391E-01  0.47350933654E-03  0.35596675558E-01  0.50345582656E-01  0.51100000000E-03 0. -1.
</event>
<event>
 8    1  0.1081309E+005  0.1043930E+01  0.7957747E-01            NaN
         13   -1    0    0    0    0  0.00000000000E+00  0.00000000000E+00  0.74505805969E-08  0.10566000000E+00  0.10566000000E+00 0. -1.
     999900   -1    0    0    0    0 -0.00000000000E+00 -0.00000000000E+00 -0.74505805969E-08  0.93827000000E+00  0.93827000000E+00 0.  1.
     999902    2    1    2    0    0 -0.10073576466E-01 -0.20612987719E-01 -0.51245083620E-02  0.10204218569E+01  0.10201510345E+01 0.  0.
     999903    2    3    3    0    0  0.14310871124E-01  0.91003167328E-01 -0.88515918098E-01  0.12912679097E+00  0.18769200672E-01 0.  0.
         14    1    1    2    0    0  0.10073576466E-01  0.20612987719E-01  0.51245083620E-02  0.23508143088E-01  0.00000000000E+00 0. -1.
     999901    1    3    3    0    0 -0.24384447590E-01 -0.11161615505E+00  0.83391409736E-01  0.89129506594E+00  0.88000000000E+00 0. -1.
        -11    1    4    4    0    0 -0.22305055769E-02  0.34157549084E-01 -0.25703941195E-01  0.42809660458E-01  0.51100000000E-03 0.  1.
         11    1    4    4    0    0  0.16541376701E-01  0.56845618243E-01 -0.62811976903E-01  0.86317130513E-01  0.51100000000E-03 0. -1.
</event>
<event>
 8    1  0.1081309E+005  0.1043930E+01  0.7957747E-01            NaN
         13   -1    0    0    0    0  0.00000000000E+00  0.00000000000E+00  0.74505805969E-08  0.10566000000E+00  0.10566000000E+00 0.  1.
     999900   -1    0    0    0    0 -0.00000000000E+00 -0.00000000000E+00 -0.74505805969E-08  0.93827000000E+00  0.93827000000E+00 0. -1.
     999902    2    1    2    0    0  0.84338776206E-02 -0.21058050766E-01  0.67386980416E-02  0.10202660645E+01  0.10199915982E+01 0.  0.
     999903    2    3    3    0    0  0.69859030357E-01  0.78592842410E-01  0.73607578155E-01  0.12999936452E+00  0.20606800172E-01 0.  0.
         14    1    1    2    0    0 -0.84338776206E-02  0.21058050766E-01 -0.67386980416E-02  0.23663935537E-01  0.00000000000E+00 0.  1.
     999901    1    3    3    0    0 -0.61425152736E-01 -0.99650893176E-01 -0.66868880114E-01  0.89026669994E+00  0.88000000000E+00 0. -1.
        -11    1    4    4    0    0  0.62240799581E-01  0.73617080370E-01  0.59765460861E-01  0.11342646555E+00  0.51100000000E-03 0. -1.
         11    1    4    4    0    0  0.76182307759E-02  0.49757620404E-02  0.13842117295E-01  0.16572898969E-01  0.51100000000E-03 0.  1.
</event>
<event>
 8    1  0.1081309E+005  0.1043930E+01  0.7957747E-01            NaN
         13   -1    0    0    0    0  0.00000000000E+00  0.00000000000E+00  0.74505805969E-08  0.10566000000E+00  0.10566000000E+00 0.  1.
     999900   -1    0    0    0    0 -0.00000000000E+00 -0.00000000000E+00 -0.74505805969E-08  0.93827000000E+00  0.93827000000E+00 0. -1.
     999902    2    1    2    0    0  0.20868217430E-01 -0.86111465609E-02  0.65603638576E-02  0.10204210077E+01  0.10201501656E+01 0.  0.
     999903    2    3    3    0    0 -0.60319413520E-01 -0.81012666434E-01 -0.78792128576E-01  0.12962447683E+00  0.19819729983E-01 0.  0.
         14    1    1    2    0    0 -0.20868217430E-01  0.86111465609E-02 -0.65603638576E-02  0.23508992274E-01  0.00000000000E+00 0. -1.
     999901    1    3    3    0    0  0.81187630950E-01  0.72401519873E-01  0.85352492434E-01  0.89079653090E+00  0.88000000000E+00 0.  1.
        -11    1    4    4    0    0 -0.32406367052E-01 -0.28095316611E-01 -0.28885144890E-01  0.51712011731E-01  0.51100000000E-03 0.  1.
         11    1    4    4    0    0 -0.27913046468E-01 -0.52917349823E-01 -0.49906983687E-01  0.77912465095E-01  0.51100000000E-03 0. -1.
</event>
<event>
 8    1  0.1081309E+005  0.1043930E+01  0.7957747E-01            NaN
         13   -1    0    0    0    0  0.00000000000E+00  0.00000000000E+00  0.74505805969E-08  0.10566000000E+00  0.10566000000E+00 0. -1.
     999900   -1    0    0    0    0 -0.00000000000E+00 -0.00000000000E+00 -0.74505805969E-08  0.93827000000E+00  0.93827000000E+00 0.  1.
     999902    2    1    2    0    0  0.18312144533E-01  0.37049436170E-02 -0.13918847301E-01  0.10206320268E+01  0.10203660807E+01 0.  0.
     999903    2    3    3    0    0 -0.32867314659E-01 -0.41890620298E-01 -0.11880797010E+00  0.13175632089E+00  0.20231408614E-01 0.  0.
         14    1    1    2    0    0 -0.18312144533E-01 -0.37049436170E-02  0.13918847301E-01  0.23297973190E-01  0.00000000000E+00 0. -1.
     999901    1    3    3    0    0  0.51179459191E-01  0.45595563914E-01  0.10488912280E+00  0.88887570592E+00  0.88000000000E+00 0. -1.
        -11    1    4    4    0    0 -0.27041374493E-01 -0.36743067648E-01 -0.79303892751E-01  0.91491297298E-01  0.51100000000E-03 0. -1.
         11    1    4    4    0    0 -0.58259401654E-02 -0.51475526494E-02 -0.39504077345E-01  0.40265023593E-01  0.51100000000E-03 0.  1.
</event>
<event>
 8    1  0.1081309E+005  0.1043930E+01  0.7957747E-01            NaN
         13   -1    0    0    0    0  0.00000000000E+00  0.00000000000E+00  0.74505805969E-08  0.10566000000E+00  0.10566000000E+00 0. -1.
     999900   -1    0    0    0    0 -0.00000000000E+00 -0.00000000000E+00 -0.74505805969E-08  0.93827000000E+00  0.93827000000E+00 0.  1.
     999902    2    1    2    0    0  0.57930073797E-02 -0.15884145868E-01 -0.16079233336E-01  0.10205974740E+01  0.10203307293E+01 0.  0.
     999903    2    3    3    0    0 -0.78051582541E-01 -0.95330161580E-01 -0.44506978903E-01  0.13259425251E+00  0.20505496435E-01 0.  0.
         14    1    1    2    0    0 -0.57930073797E-02  0.15884145868E-01  0.16079233336E-01  0.23332525991E-01  0.00000000000E+00 0. -1.
     999901    1    3    3    0    0  0.83844589921E-01  0.79446015712E-01  0.28427745567E-01  0.88800322150E+00  0.88000000000E+00 0. -1.
        -11    1    4    4    0    0 -0.97519848559E-02 -0.20311747019E-01 -0.14488713042E-01  0.26792763989E-01  0.51100000000E-03 0.  1.
         11    1    4    4    0    0 -0.68299597685E-01 -0.75018414561E-01 -0.30018265861E-01  0.10580148852E+00  0.51100000000E-03 0. -1.
</event>
<event>
 8    1  0.1081309E+005  0.1043930E+01  0.7957747E-01            NaN
         13   -1    0    0    0    0  0.00000000000E+00  0.00000000000E+00  0.74505805969E-08  0.10566000000E+00  0.10566000000E+00 0. -1.
     999900   -1    0    0    0    0 -0.00000000000E+00 -0.00000000000E+00 -0.74505805969E-08  0.93827000000E+00  0.93827000000E+00 0. -1.
     999902    2    1    2    0    0  0.27801453478E-02  0.23582093616E-02 -0.23752298990E-01  0.10198995596E+01  0.10196164228E+01 0.  0.
     999903    2    3    3    0    0 -0.92645808091E-01  0.39664475555E-01 -0.83239917704E-01  0.13196000822E+00  0.18111970956E-01 0.  0.
         14    1    1    2    0    0 -0.27801453478E-02 -0.23582093616E-02  0.23752298990E-01  0.24030440421E-01  0.00000000000E+00 0. -1.
     999901    1    3    3    0    0  0.95425953439E-01 -0.37306266194E-01  0.59487618715E-01  0.88793955136E+00  0.88000000000E+00 0.  1.
        -11    1    4    4    0    0 -0.38974902190E-02  0.39757536490E-02 -0.10104863869E-01  0.11548438937E-01  0.51100000000E-03 0. -1.
         11    1    4    4    0    0 -0.88748317872E-01  0.35688721906E-01 -0.73135053836E-01  0.12041156928E+00  0.51100000000E-03 0.  1.
</event>
<event>
 8    1  0.1081309E+005  0.1043930E+01  0.7957747E-01            NaN
         13   -1    0    0    0    0  0.00000000000E+00  0.00000000000E+00  0.74505805969E-08  0.10566000000E+00  0.10566000000E+00 0.  1.
     999900   -1    0    0    0    0 -0.00000000000E+00 -0.00000000000E+00 -0.74505805969E-08  0.93827000000E+00  0.93827000000E+00 0. -1.
     999902    2    1    2    0    0 -0.14094843142E-01 -0.18063570553E-01  0.37463754029E-02  0.10207137877E+01  0.10204497263E+01 0.  0.
     999903    2    3    3    0    0 -0.12630739483E+00  0.19798188204E-01 -0.27106720052E-01  0.13224483326E+00  0.20208795297E-01 0.  0.
         14    1    1    2    0    0  0.14094843142E-01  0.18063570553E-01 -0.37463754029E-02  0.23216212288E-01  0.00000000000E+00 0.  1.
     999901    1    3    3    0    0  0.11221255168E+00 -0.37861758757E-01  0.30853095454E-01  0.88846895446E+00  0.88000000000E+00 0.  1.
        -11    1    4    4    0    0 -0.43424183956E-01 -0.20705908357E-02 -0.53402692783E-02  0.43803272659E-01  0.51100000000E-03 0. -1.
         11    1    4    4    0    0 -0.82883210870E-01  0.21868779040E-01 -0.21766450773E-01  0.88441560598E-01  0.51100000000E-03 0.  1.
</event>
<event>
 8    1  0.1081309E+005  0.1043930E+01  0.7957747E-01            NaN
         13   -1    0    0    0    0  0.00000000000E+00  0.00000000000E+00  0.74505805969E-08  0.10566000000E+00  0.10566000000E+00 0.  1.
     999900   -1    0    0    0    0 -0.00000000000E+00 -0.00000000000E+00 -0.74505805969E-08  0.93827000000E+00  0.93827000000E+00 0. -1.
     999902    2    1    2    0    0 -0.13544190838E-01  0.14201527177E-01  0.13729994345E-01  0.10199791916E+01  0.10196979504E+01 0.  0.
     999903    2    3    3    0    0 -0.27903298400E-01  0.12792562030E+00  0.59052821295E-02  0.13251055582E+00  0.19509399174E-01 0.  0.
         14    1    1    2    0    0  0.13544190838E-01 -0.14201527177E-01 -0.13729994345E-01  0.23950808428E-01  0.00000000000E+00 0. -1.
     999901    1    3    3    0    0  0.14359107562E-01 -0.11372409312E+00  0.78247122152E-02  0.88746863575E+00  0.88000000000E+00 0.  1.
        -11    1    4    4    0    0 -0.27159118672E-03  0.44235527587E-01  0.24860222380E-02  0.44309108435E-01  0.51100000000E-03 0.  1.
         11    1    4    4    0    0 -0.27631707213E-01  0.83690092710E-01  0.34192598915E-02  0.88201447384E-01  0.51100000000E-03 0. -1.
</event>
<event>
 8    1  0.1081309E+005  0.1043930E+01  0.7957747E-01            NaN
         13   -1    0    0    0    0  0.00000000000E+00  0.00000000000E+00  0.74505805969E-08  0.10566000000E+00  0.10566000000E+00 0. -1.
     999900   -1    0    0    0    0 -0.00000000000E+00 -0.00000000000E+00 -0.74505805969E-08  0.93827000000E+00  0.93827000000E+00 0.  1.
     999902    2    1    2    0    0 -0.18716237500E-01  0.77942773820E-02 -0.10917229932E-01  0.10209031849E+01  0.10206434630E+01 0.  0.
     999903    2    3    3    0    0 -0.56792825579E-01  0.11202827377E+00 -0.40331512069E-01  0.13344628306E+00  0.20137537972E-01 0.  0.
         14    1    1    2    0    0  0.18716237500E-01 -0.77942773820E-02  0.10917229932E-01  0.23026815139E-01  0.00000000000E+00 0. -1.
     999901    1    3    3    0    0  0.38076588080E-01 -0.10423399639E+00  0.29414282136E-01  0.88745690180E+00  0.88000000000E+00 0. -1.
        -11    1    4    4    0    0 -0.31458762335E-01  0.74354087576E-01 -0.34000648394E-01  0.87604162453E-01  0.51100000000E-03 0.  1.
         11    1    4    4    0    0 -0.25334063244E-01  0.37674186193E-01 -0.63308636746E-02  0.45842120605E-01  0.51100000000E-03 0. -1.
</event>
<event>
 8    1  0.1081309E+005  0.1043930E+01  0.7957747E-01            NaN
         13   -1    0    0    0    0  0.00000000000E+00  0.00000000000E+00  0.74505805969E-08  0.10566000000E+00  0.10566000000E+00 0.  1.
     999900   -1    0    0    0    0 -0.00000000000E+00 -0.00000000000E+00 -0.74505805969E-08  0.93827000000E+00  0.93827000000E+00 0.  1.
     999902    2    1    2    0    0 -0.97530800673E-02  0.14333924614E-01  0.15827553949E-01  0.10204545782E+01  0.10201845180E+01 0.  0.
     999903    2    3    3    0    0 -0.53036722188E-01  0.83769088392E-01 -0.81721720920E-01  0.13129172658E+00  0.26998587494E-01 0.  0.
         14    1    1    2    0    0  0.97530800673E-02 -0.14333924614E-01 -0.15827553949E-01  0.23475421821E-01  0.00000000000E+00 0.  1.
     999901    1    3    3    0    0  0.43283642121E-01 -0.69435163777E-01  0.97549274869E-01  0.88916285160E+00  0.88000000000E+00 0. -1.
        -11    1    4    4    0    0 -0.40300369925E-01  0.78243001245E-01 -0.64250544827E-01  0.10897009081E+00  0.51100000000E-03 0. -1.
         11    1    4    4    0    0 -0.12736352263E-01  0.55260871472E-02 -0.17471176092E-01  0.22321635764E-01  0.51100000000E-03 0.  1.
</event>
<event>
 8    1  0.1081309E+005  0.1043930E+01  0.7957747E-01            NaN
         13   -1    0    0    0    0  0.00000000000E+00  0.00000000000E+00  0.74505805969E-08  0.10566000000E+00  0.10566000000E+00 0. -1.
     999900   -1    0    0    0    0 -0.00000000000E+00 -0.00000000000E+00 -0.74505805969E-08  0.93827000000E+00  0.93827000000E+00 0. -1.
     999902    2    1    2    0    0  0.79111100377E-02 -0.13940215131E-01 -0.16216031623E-01  0.10211292338E+01  0.10208746432E+01 0.  0.
     999903    2    3    3    0    0  0.11916362279E+00  0.40414925207E-01  0.30903699074E-01  0.13121245568E+00  0.20696249210E-01 0.  0.
         14    1    1    2    0    0 -0.79111100377E-02  0.13940215131E-01  0.16216031623E-01  0.22800766249E-01  0.00000000000E+00 0. -1.
     999901    1    3    3    0    0 -0.11125251276E+00 -0.54355140339E-01 -0.47119730698E-01  0.88991677807E+00  0.88000000000E+00 0. -1.
        -11    1    4    4    0    0  0.84207039316E-01  0.21380487028E-01  0.14154094512E-01  0.88025849660E-01  0.51100000000E-03 0.  1.
         11    1    4    4    0    0  0.34956583479E-01  0.19034438179E-01  0.16749604563E-01  0.43186606017E-01  0.51100000000E-03 0. -1.
</event>
<event>
 8    1  0.1081309E+005  0.1043930E+01  0.7957747E-01            NaN
         13   -1    0    0    0    0  0.00000000000E+00  0.00000000000E+00  0.74505805969E-08  0.10566000000E+00  0.10566000000E+00 0. -1.
     999900   -1    0    0    0    0 -0.00000000000E+00 -0.00000000000E+00 -0.74505805969E-08  0.93827000000E+00  0.93827000000E+00 0. -1.
     999902    2    1    2    0    0 -0.18808130072E-01  0.11707891684E-01 -0.17503709976E-01  0.10156952635E+01  0.10153027469E+01 0.  0.
     999903    2    3    3    0    0  0.64773134975E-01 -0.11184366582E-01  0.10249535444E+00  0.12333342048E+00  0.19626152306E-01 0.  0.
         14    1    1    2    0    0  0.18808130072E-01 -0.11707891684E-01  0.17503709976E-01  0.28234736539E-01  0.00000000000E+00 0.  1.
     999901    1    3    3    0    0 -0.83581265047E-01  0.22892258266E-01 -0.11999906442E+00  0.89236184299E+00  0.88000000000E+00 0. -1.
        -11    1    4    4    0    0  0.96110346590E-02 -0.25656292503E-03  0.30464538183E-01  0.31949757737E-01  0.51100000000E-03 0.  1.
         11    1    4    4    0    0  0.55162100316E-01 -0.10927803657E-01  0.72030816256E-01  0.91383662739E-01  0.51100000000E-03 0. -1.
</event>
<event>
 8    1  0.1081309E+005  0.1043930E+01  0.7957747E-01            NaN
         13   -1    0    0    0    0  0.00000000000E+00  0.00000000000E+00  0.74505805969E-08  0.10566000000E+00  0.10566000000E+00 0. -1.
     999900   -1    0    0    0    0 -0.00000000000E+00 -0.00000000000E+00 -0.74505805969E-08  0.93827000000E+00  0.93827000000E+00 0.  1.
     999902    2    1    2    0    0  0.59864364678E-02 -0.22648526723E-01 -0.55769765103E-02  0.10198489732E+01  0.10195646288E+01 0.  0.
     999903    2    3    3    0    0 -0.10028332321E+00 -0.56589324751E-01  0.57953769229E-01  0.13053384613E+00  0.20526788059E-01 0.  0.
         14    1    1    2    0    0 -0.59864364678E-02  0.22648526723E-01  0.55769765103E-02  0.24081026791E-01  0.00000000000E+00 0. -1.
     999901    1    3    3    0    0  0.10626975968E+00  0.33940798028E-01 -0.63530745739E-01  0.88931512708E+00  0.88000000000E+00 0. -1.
        -11    1    4    4    0    0 -0.58765321980E-01 -0.41551554311E-01  0.43356265902E-01  0.84023339895E-01  0.51100000000E-03 0. -1.
         11    1    4    4    0    0 -0.41518001232E-01 -0.15037770439E-01  0.14597503327E-01  0.46510506238E-01  0.51100000000E-03 0.  1.
</event>
<event>
 8    1  0.1081309E+005  0.1043930E+01  0.7957747E-01            NaN
         13   -1    0    0    0    0  0.00000000000E+00  0.00000000000E+00  0.74505805969E-08  0.10566000000E+00  0.10566000000E+00 0.  1.
     999900   -1    0    0    0    0 -0.00000000000E+00 -0.00000000000E+00 -0.74505805969E-08  0.93827000000E+00  0.93827000000E+00 0.  1.
     999902    2    1    2    0    0  0.10461609181E-01 -0.12296927967E-01  0.17058737121E-01  0.10204425519E+01  0.10201722117E+01 0.  0.
     999903    2    3    3    0    0  0.46696192353E-01  0.16816793887E-01 -0.11803909547E+00  0.12892027057E+00  0.14962258129E-01 0.  0.
         14    1    1    2    0    0 -0.10461609181E-01  0.12296927967E-01 -0.17058737121E-01  0.23487448057E-01  0.00000000000E+00 0. -1.
     999901    1    3    3    0    0 -0.36234583173E-01 -0.29113721854E-01  0.13509783259E+00  0.89152228137E+00  0.88000000000E+00 0. -1.
        -11    1    4    4    0    0  0.21285606726E-01  0.32680608949E-02 -0.35770796514E-01  0.41756056805E-01  0.51100000000E-03 0. -1.
         11    1    4    4    0    0  0.25410585628E-01  0.13548732992E-01 -0.82268298951E-01  0.87164213763E-01  0.51100000000E-03 0.  1.
</event>
<event>
 8    1  0.1081309E+005  0.1043930E+01  0.7957747E-01            NaN
         13   -1    0    0    0    0  0.00000000000E+00  0.00000000000E+00  0.74505805969E-08  0.10566000000E+00  0.10566000000E+00 0.  1.
     999900   -1    0    0    0    0 -0.00000000000E+00 -0.00000000000E+00 -0.74505805969E-08  0.93827000000E+00  0.93827000000E+00 0. -1.
     999902    2    1    2    0    0  0.19684596975E-02 -0.49975932158E-02  0.24137041355E-01  0.10192025348E+01  0.10189025269E+01 0.  0.
     999903    2    3    3    0    0 -0.57047181928E-01  0.52220116651E-01 -0.98514465930E-01  0.12690207835E+00  0.20438100288E-01 0.  0.
         14    1    1    2    0    0 -0.19684596975E-02  0.49975932158E-02 -0.24137041355E-01  0.24727465234E-01  0.00000000000E+00 0. -1.
     999901    1    3    3    0    0  0.59015641625E-01 -0.57217709867E-01  0.12265150729E+00  0.89230045641E+00  0.88000000000E+00 0.  1.
        -11    1    4    4    0    0 -0.42526037461E-01  0.26103338816E-01 -0.65959291290E-01  0.82708750371E-01  0.51100000000E-03 0.  1.
         11    1    4    4    0    0 -0.14521144467E-01  0.26116777835E-01 -0.32555174641E-01  0.44193327980E-01  0.51100000000E-03 0. -1.
</event>
<event>
 8    1  0.1081309E+005  0.1043930E+01  0.7957747E-01            NaN
         13   -1    0    0    0    0  0.00000000000E+00  0.00000000000E+00  0.74505805969E-08  0.10566000000E+00  0.10566000000E+00 0.  1.
     999900   -1    0    0    0    0 -0.00000000000E+00 -0.00000000000E+00 -0.74505805969E-08  0.93827000000E+00  0.93827000000E+00 0.  1.
     999902    2    1    2    0    0  0.14399598150E-01 -0.18392033309E-01 -0.69263617009E-03  0.10205613231E+01  0.10202937416E+01 0.  0.
     999903    2    3    3    0    0 -0.98972370207E-01  0.39837115324E-02  0.80978205138E-01  0.12925665941E+00  0.18396039565E-01 0.  0.
         14    1    1    2    0    0 -0.14399598150E-01  0.18392033309E-01  0.69263617009E-03  0.23368676920E-01  0.00000000000E+00 0.  1.
     999901    1    3    3    0    0  0.11337196836E+00 -0.22375744841E-01 -0.81670841308E-01  0.89130466367E+00  0.88000000000E+00 0.  1.
        -11    1    4    4    0    0 -0.32602746031E-01  0.49828275295E-02  0.37317015413E-01  0.49805505512E-01  0.51100000000E-03 0. -1.
         11    1    4    4    0    0 -0.66369624176E-01 -0.99911599716E-03  0.43661189725E-01  0.79451153895E-01  0.51100000000E-03 0.  1.
</event>
<event>
 8    1  0.1081309E+005  0.1043930E+01  0.7957747E-01            NaN
         13   -1    0    0    0    0  0.00000000000E+00  0.00000000000E+00  0.74505805969E-08  0.10566000000E+00  0.10566000000E+00 0. -1.
     999900   -1    0    0    0    0 -0.00000000000E+00 -0.00000000000E+00 -0.74505805969E-08  0.93827000000E+00  0.93827000000E+00 0.  1.
     999902    2    1    2    0    0 -0.84593684055E-02  0.10124848819E-01  0.20467030248E-01  0.10195789671E+01  0.10192881326E+01 0.  0.
     999903    2    3    3    0    0 -0.83598986219E-01 -0.26924725706E-03  0.10117232572E+00  0.13263627213E+00  0.19174936831E-01 0.  0.
         14    1    1    2    0    0  0.84593684055E-02 -0.10124848819E-01 -0.20467030248E-01  0.24351032927E-01  0.00000000000E+00 0.  1.
     999901    1    3    3    0    0  0.75139617814E-01  0.10394096076E-01 -0.80705295468E-01  0.88694269494E+00  0.88000000000E+00 0. -1.
        -11    1    4    4    0    0 -0.32864561184E-01 -0.50293549073E-02  0.28014451724E-01  0.43479241242E-01  0.51100000000E-03 0. -1.
         11    1    4    4    0    0 -0.50734425035E-01  0.47601076502E-02  0.73157873992E-01  0.89157030887E-01  0.51100000000E-03 0.  1.
</event>
<event>
 8    1  0.1081309E+005  0.1043930E+01  0.7957747E-01            NaN
         13   -1    0    0    0    0  0.00000000000E+00  0.00000000000E+00  0.74505805969E-08  0.10566000000E+00  0.10566000000E+00 0.  1.
     999900   -1    0    0    0    0 -0.00000000000E+00 -0.00000000000E+00 -0.74505805969E-08  0.93827000000E+00  0.93827000000E+00 0. -1.
     999902    2    1    2    0    0  0.67190417961E-02  0.22339183491E-01 -0.35794000698E-02  0.10203292215E+01  0.10200562354E+01 0.  0.
     999903    2    3    3    0    0  0.47363209675E-01  0.78647657030E-01  0.93226243458E-01  0.13230111090E+00  0.19588871535E-01 0.  0.
         14    1    1    2    0    0 -0.67190417961E-02 -0.22339183491E-01  0.35794000698E-02  0.23600778516E-01  0.00000000000E+00 0.  1.
     999901    1    3    3    0    0 -0.40644167879E-01 -0.56308473539E-01 -0.96805643528E-01  0.88802811059E+00  0.88000000000E+00 0. -1.
        -11    1    4    4    0    0  0.80332662595E-02  0.98383957886E-02  0.23592177140E-01  0.26798868291E-01  0.51100000000E-03 0. -1.
         11    1    4    4    0    0  0.39329943415E-01  0.68809261242E-01  0.69634066318E-01  0.10550224261E+00  0.51100000000E-03 0.  1.
</event>
<event>
 8    1  0.1081309E+005  0.1043930E+01  0.7957747E-01            NaN
         13   -1    0    0    0    0  0.00000000000E+00  0.00000000000E+00  0.74505805969E-08  0.10566000000E+00  0.10566000000E+00 0. -1.
     999900   -1    0    0    0    0 -0.00000000000E+00 -0.00000000000E+00 -0.74505805969E-08  0.93827000000E+00  0.93827000000E+00 0. -1.
     999902    2    1    2    0    0 -0.10833355452E-01  0.18563248058E-01  0.91153565041E-02  0.10205837906E+01  0.10203167293E+01 0.  0.
     999903    2    3    3    0    0  0.11307630463E+00  0.17469538579E-01  0.59443506709E-01  0.13047833463E+00  0.19990744609E-01 0.  0.
         14    1    1    2    0    0  0.10833355452E-01 -0.18563248058E-01 -0.91153565041E-02  0.23346209393E-01  0.00000000000E+00 0.  1.
     999901    1    3    3    0    0 -0.12390966008E+00  0.10937094798E-02 -0.50328150205E-01  0.89010545598E+00  0.88000000000E+00 0.  1.
        -11    1    4    4    0    0  0.70914843956E-01  0.13736764285E-01  0.26885308030E-01  0.77075902169E-01  0.51100000000E-03 0. -1.
         11    1    4    4    0    0  0.42161460675E-01  0.37327742938E-02  0.32558198679E-01  0.53402432458E-01  0.51100000000E-03 0.  1.
</event>
<event>
 8    1  0.1081309E+005  0.1043930E+01  0.7957747E-01            NaN
         13   -1    0    0    0    0  0.00000000000E+00  0.00000000000E+00  0.74505805969E-08  0.10566000000E+00  0.10566000000E+00 0.  1.
     999900   -1    0    0    0    0 -0.00000000000E+00 -0.00000000000E+00 -0.74505805969E-08  0.93827000000E+00  0.93827000000E+00 0.  1.
     999902    2    1    2    0    0 -0.62259400312E-02  0.57779961161E-02  0.71501163657E-02  0.10328272196E+01  0.10327675410E+01 0.  0.
     999903    2    3    3    0    0  0.12824750801E-01  0.12789104257E+00  0.58587864127E-01  0.14270342663E+00  0.20276517116E-01 0.  0.
         14    1    1    2    0    0  0.62259400312E-02 -0.57779961161E-02 -0.71501163657E-02  0.11102780392E-01  0.00000000000E+00 0.  1.
     999901    1    3    3    0    0 -0.19050690832E-01 -0.12211304645E+00 -0.51437747761E-01  0.89012379298E+00  0.88000000000E+00 0. -1.
        -11    1    4    4    0    0  0.17517940005E-02  0.76325678578E-01  0.43381941208E-01  0.87811912270E-01  0.51100000000E-03 0. -1.
         11    1    4    4    0    0  0.11072956800E-01  0.51565363989E-01  0.15205922919E-01  0.54891514357E-01  0.51100000000E-03 0.  1.
</event>
<event>
 8    1  0.1081309E+005  0.1043930E+01  0.7957747E-01            NaN
         13   -1    0    0    0    0  0.00000000000E+00  0.00000000000E+00  0.74505805969E-08  0.10566000000E+00  0.10566000000E+00 0. -1.
     999900   -1    0    0    0    0 -0.00000000000E+00 -0.00000000000E+00 -0.74505805969E-08  0.93827000000E+00  0.93827000000E+00 0. -1.
     999902    2    1    2    0    0  0.21403771655E-01  0.11320839730E-01  0.32578301691E-02  0.10194985385E+01  0.10192057563E+01 0.  0.
     999903    2    3    3    0    0  0.52029469730E-01 -0.11433229153E+00  0.25541606817E-01  0.12976643867E+00  0.20199413855E-01 0.  0.
         14    1    1    2    0    0 -0.21403771655E-01 -0.11320839730E-01 -0.32578301691E-02  0.24431461492E-01  0.00000000000E+00 0. -1.
     999901    1    3    3    0    0 -0.30625698075E-01  0.12565313126E+00 -0.22283776648E-01  0.88973209984E+00  0.88000000000E+00 0.  1.
        -11    1    4    4    0    0  0.51206907631E-01 -0.10101924736E+00  0.18782681374E-01  0.11480455551E+00  0.51100000000E-03 0.  1.
         11    1    4    4    0    0  0.82256209870E-03 -0.13313044170E-01  0.67589254436E-02  0.14961883158E-01  0.51100000000E-03 0. -1.
</event>
<event>
 8    1  0.1081309E+005  0.1043930E+01  0.7957747E-01            NaN
         13   -1    0    0    0    0  0.00000000000E+00  0.00000000000E+00  0.74505805969E-08  0.10566000000E+00  0.10566000000E+00 0. -1.
     999900   -1    0    0    0    0 -0.00000000000E+00 -0.00000000000E+00 -0.74505805969E-08  0.93827000000E+00  0.93827000000E+00 0.  1.
     999902    2    1    2    0    0 -0.83604221330E-02 -0.14044182232E-01 -0.14534455630E-01  0.10220579605E+01  0.10218239029E+01 0.  0.
     999903    2    3    3    0    0 -0.11110350575E+00 -0.49308165755E-01 -0.53601211700E-01  0.13451872123E+00  0.21140299518E-01 0.  0.
         14    1    1    2    0    0  0.83604221330E-02  0.14044182232E-01  0.14534455630E-01  0.21872039532E-01  0.00000000000E+00 0. -1.
     999901    1    3    3    0    0  0.10274308362E+00  0.35263983523E-01  0.39066756069E-01  0.88753923924E+00  0.88000000000E+00 0. -1.
        -11    1    4    4    0    0 -0.28875885140E-01 -0.33233836786E-02 -0.14883624853E-01  0.32659532016E-01  0.51100000000E-03 0.  1.
         11    1    4    4    0    0 -0.82227620613E-01 -0.45984782077E-01 -0.38717586846E-01  0.10185918921E+00  0.51100000000E-03 0. -1.
</event>
<event>
 8    1  0.1081309E+005  0.1043930E+01  0.7957747E-01            NaN
         13   -1    0    0    0    0  0.00000000000E+00  0.00000000000E+00  0.74505805969E-08  0.10566000000E+00  0.10566000000E+00 0.  1.
     999900   -1    0    0    0    0 -0.00000000000E+00 -0.00000000000E+00 -0.74505805969E-08  0.93827000000E+00  0.93827000000E+00 0.  1.
     999902    2    1    2    0    0  0.73051124361E-02  0.19867794059E-01 -0.10654158440E-01  0.10202317933E+01  0.10199565221E+01 0.  0.
     999903    2    3    3    0    0 -0.70427781316E-01  0.87197475099E-01 -0.68088265912E-01  0.13238362756E+00  0.18053831880E-01 0.  0.
         14    1    1    2    0    0 -0.73051124361E-02 -0.19867794059E-01  0.10654158440E-01  0.23698206695E-01  0.00000000000E+00 0.  1.
     999901    1    3    3    0    0  0.77732893752E-01 -0.67329681040E-01  0.57434107472E-01  0.88784816575E+00  0.88000000000E+00 0. -1.
        -11    1    4    4    0    0 -0.42469556556E-01  0.39113238738E-01 -0.38285473785E-01  0.69278765164E-01  0.51100000000E-03 0. -1.
         11    1    4    4    0    0 -0.27958224760E-01  0.48084236361E-01 -0.29802792127E-01  0.63104862394E-01  0.51100000000E-03 0.  1.
</event>
<event>
 8    1  0.1081309E+005  0.1043930E+01  0.7957747E-01            NaN
         13   -1    0    0    0    0  0.00000000000E+00  0.00000000000E+00  0.74505805969E-08  0.10566000000E+00  0.10566000000E+00 0. -1.
     999900   -1    0    0    0    0 -0.00000000000E+00 -0.00000000000E+00 -0.74505805969E-08  0.93827000000E+00  0.93827000000E+00 0.  1.
     999902    2    1    2    0    0 -0.53485545545E-02 -0.21873776315E-02 -0.22567869775E-01  0.10206340690E+01  0.10203681700E+01 0.  0.
     999903    2    3    3    0    0  0.11843378410E+00  0.34109531210E-01  0.33777794574E-01  0.12944701405E+00  0.20629316622E-01 0.  0.
         14    1    1    2    0    0  0.53485545545E-02  0.21873776315E-02  0.22567869775E-01  0.23295931037E-01  0.00000000000E+00 0. -1.
     999901    1    3    3    0    0 -0.12378233866E+00 -0.36296908841E-01 -0.56345664348E-01  0.89118705491E+00  0.88000000000E+00 0. -1.
        -11    1    4    4    0    0  0.96013215893E-01  0.33169503470E-01  0.33616369122E-01  0.10700035038E+00  0.51100000000E-03 0.  1.
         11    1    4    4    0    0  0.22420568207E-01  0.94002773985E-03  0.16142545162E-03  0.22446663673E-01  0.51100000000E-03 0. -1.
</event>
<event>
 8    1  0.1081309E+005  0.1043930E+01  0.7957747E-01            NaN
         13   -1    0    0    0    0  0.00000000000E+00  0.00000000000E+00  0.74505805969E-08  0.10566000000E+00  0.10566000000E+00 0.  1.
     999900   -1    0    0    0    0 -0.00000000000E+00 -0.00000000000E+00 -0.74505805969E-08  0.93827000000E+00  0.93827000000E+00 0. -1.
     999902    2    1    2    0    0 -0.14507419671E-01 -0.39499080128E-02 -0.18110371898E-01  0.10203916787E+01  0.10201201524E+01 0.  0.
     999903    2    3    3    0    0 -0.29883674469E-01 -0.35917088382E-01 -0.12341434266E+00  0.13340393579E+00  0.19556044393E-01 0.  0.
         14    1    1    2    0    0  0.14507419671E-01  0.39499080128E-02  0.18110371898E-01  0.23538321289E-01  0.00000000000E+00 0.  1.
     999901    1    3    3    0    0  0.15376254798E-01  0.31967180369E-01  0.10530397076E+00  0.88698774292E+00  0.88000000000E+00 0.  1.
        -11    1    4    4    0    0 -0.16631671889E-01 -0.14463101657E-01 -0.82015299974E-01  0.84926817732E-01  0.51100000000E-03 0. -1.
         11    1    4    4    0    0 -0.13252002580E-01 -0.21453986725E-01 -0.41399042688E-01  0.48477118058E-01  0.51100000000E-03 0.  1.
</event>
<event>
 8    1  0.1081309E+005  0.1043930E+01  0.7957747E-01            NaN
         13   -1    0    0    0    0  0.00000000000E+00  0.00000000000E+00  0.74505805969E-08  0.10566000000E+00  0.10566000000E+00 0.  1.
     999900   -1    0    0    0    0 -0.00000000000E+00 -0.00000000000E+00 -0.74505805969E-08  0.93827000000E+00  0.93827000000E+00 0.  1.
     999902    2    1    2    0    0 -0.25316906165E-01  0.16897848450E-01  0.11430014581E-01  0.10114164912E+01  0.10108937582E+01 0.  0.
     999903    2    3    3    0    0  0.98410108078E-01 -0.27602191245E-01 -0.57194625785E-01  0.11900516854E+00  0.21084937425E-01 0.  0.
         14    1    1    2    0    0  0.25316906165E-01 -0.16897848450E-01 -0.11430014581E-01  0.32513508782E-01  0.00000000000E+00 0. -1.
     999901    1    3    3    0    0 -0.12372701424E+00  0.44500039695E-01  0.68624640365E-01  0.89241132268E+00  0.88000000000E+00 0.  1.
        -11    1    4    4    0    0  0.66381278089E-01 -0.10179190198E-01 -0.43692355373E-01  0.80120989964E-01  0.51100000000E-03 0.  1.
         11    1    4    4    0    0  0.32028829989E-01 -0.17423001047E-01 -0.13502270412E-01  0.38884178572E-01  0.51100000000E-03 0. -1.
</event>
<event>
 8    1  0.1126610E+005  0.1043930E+01  0.7957747E-01            NaN
         13   -1    0    0    0    0  0.00000000000E+00  0.00000000000E+00  0.74505805969E-08  0.10566000000E+00  0.10566000000E+00 0. -1.
     999900   -1    0    0    0    0 -0.00000000000E+00 -0.00000000000E+00 -0.74505805969E-08  0.93827000000E+00  0.93827000000E+00 0.  1.
     999902    2    1    2    0    0  0.21388682281E-01  0.68662755056E-02  0.48119039140E-02  0.10209566265E+01  0.10206981226E+01 0.  0.
     999903    2    3    3    0    0 -0.32821776479E-01 -0.10062292176E+00  0.72922062187E-01  0.13015266661E+00  0.20490194635E-01 0.  0.
         14    1    1    2    0    0 -0.21388682281E-01 -0.68662755056E-02 -0.48119039140E-02  0.22973373464E-01  0.00000000000E+00 0.  1.
     999901    1    3    3    0    0  0.54210458760E-01  0.10748919727E+00 -0.68110158273E-01  0.89080395993E+00  0.88000000000E+00 0.  1.
        -11    1    4    4    0    0 -0.16065406372E-01 -0.21260562813E-01  0.19566763062E-01  0.33064000828E-01  0.51100000000E-03 0.  1.
         11    1    4    4    0    0 -0.16756370108E-01 -0.79362358947E-01  0.53355299125E-01  0.97088665778E-01  0.51100000000E-03 0. -1.
</event>
<event>
 7    1  0.1081309E+005  0.1043930E+01  0.7957747E-01            NaN
         13   -1    0    0    0    0  0.00000000000E+00  0.00000000000E+00  0.74505805969E-08  0.10566000000E+00  0.10566000000E+00 0. -1.
     999900   -1    0    0    0    0 -0.00000000000E+00 -0.00000000000E+00 -0.74505805969E-08  0.93827000000E+00  0.93827000000E+00 0. -1.
     999903    2    1    2    0    0 -0.27264089513E-01 -0.10759724359E-01  0.86225213096E-01  0.93046685819E-01  0.19073440255E-01 0.  0.
         14    1    1    2    0    0  0.31530456586E-01 -0.54606843011E-01 -0.19164546519E-01  0.65904148878E-01  0.00000000000E+00 0.  1.
     999901    1    1    2    0    0 -0.42663670734E-02  0.65366567370E-01 -0.67060666578E-01  0.88497916530E+00  0.88000000000E+00 0.  1.
        -11    1    3    3    0    0 -0.13520283652E-01 -0.14589071022E-01  0.59627492155E-01  0.62859669145E-01  0.51100000000E-03 0. -1.
         11    1    3    3    0    0 -0.13743805861E-01  0.38293466628E-02  0.26597720942E-01  0.30187016674E-01  0.51100000000E-03 0.  1.
</event>
<event>
 8    1  0.1081309E+005  0.1043930E+01  0.7957747E-01            NaN
         13   -1    0    0    0    0  0.00000000000E+00  0.00000000000E+00  0.74505805969E-08  0.10566000000E+00  0.10566000000E+00 0.  1.
     999900   -1    0    0    0    0 -0.00000000000E+00 -0.00000000000E+00 -0.74505805969E-08  0.93827000000E+00  0.93827000000E+00 0. -1.
     999902    2    1    2    0    0 -0.14609090623E-02 -0.19086398438E-01  0.15822870275E-01  0.10190947814E+01  0.10187921208E+01 0.  0.
     999903    2    3    3    0    0  0.92906886278E-01  0.73735681289E-01  0.49290442887E-01  0.12856611945E+00  0.55730689790E-02 0.  0.
         14    1    1    2    0    0  0.14609090623E-02  0.19086398438E-01 -0.15822870275E-01  0.24835218629E-01  0.00000000000E+00 0.  1.
     999901    1    3    3    0    0 -0.94367795341E-01 -0.92822079727E-01 -0.33467572612E-01  0.89052866192E+00  0.88000000000E+00 0. -1.
        -11    1    4    4    0    0  0.31728766457E-01  0.23876781040E-01  0.13949157222E-01  0.42091037074E-01  0.51100000000E-03 0.  1.
         11    1    4    4    0    0  0.61178119821E-01  0.49858900249E-01  0.35341285665E-01  0.86475082378E-01  0.51100000000E-03 0. -1.
</event>
<event>
 8    1  0.1081309E+005  0.1043930E+01  0.7957747E-01            NaN
         13   -1    0    0    0    0  0.00000000000E+00  0.00000000000E+00  0.74505805969E-08  0.10566000000E+00  0.10566000000E+00 0. -1.
     999900   -1    0    0    0    0 -0.00000000000E+00 -0.00000000000E+00 -0.74505805969E-08  0.93827000000E+00  0.93827000000E+00 0. -1.
     999902    2    1    2    0    0 -0.28107581514E-02  0.79948236339E-02 -0.22874605395E-01  0.10195360430E+01  0.10192441699E+01 0.  0.
     999903    2    3    3    0    0 -0.12063377576E+00 -0.68314861670E-02  0.38506918158E-01  0.12944066924E+00  0.25940837528E-01 0.  0.
         14    1    1    2    0    0  0.28107581514E-02 -0.79948236339E-02  0.22874605395E-01  0.24393957004E-01  0.00000000000E+00 0. -1.
     999901    1    3    3    0    0  0.11782301761E+00  0.14826309801E-01 -0.61381523553E-01  0.89009537375E+00  0.88000000000E+00 0. -1.
        -11    1    4    4    0    0 -0.77357870384E-01  0.69010135946E-02  0.29919334624E-01  0.83230353864E-01  0.51100000000E-03 0.  1.
         11    1    4    4    0    0 -0.43275905374E-01 -0.13732499762E-01  0.85875835335E-02  0.46210315381E-01  0.51100000000E-03 0. -1.
</event>
<event>
 8    1  0.1081309E+005  0.1043930E+01  0.7957747E-01            NaN
         13   -1    0    0    0    0  0.00000000000E+00  0.00000000000E+00  0.74505805969E-08  0.10566000000E+00  0.10566000000E+00 0.  1.
     999900   -1    0    0    0    0 -0.00000000000E+00 -0.00000000000E+00 -0.74505805969E-08  0.93827000000E+00  0.93827000000E+00 0. -1.
     999902    2    1    2    0    0  0.10530844941E-01  0.19382146392E-01 -0.56559172593E-02  0.10211581820E+01  0.10209042448E+01 0.  0.
     999903    2    3    3    0    0 -0.51064013641E-01 -0.11574679700E+00 -0.11096412976E-01  0.12869901941E+00  0.20867503701E-01 0.  0.
         14    1    1    2    0    0 -0.10530844941E-01 -0.19382146392E-01  0.56559172593E-02  0.22771817977E-01  0.00000000000E+00 0.  1.
     999901    1    3    3    0    0  0.61594858582E-01  0.13512894339E+00  0.54404957165E-02  0.89245916262E+00  0.88000000000E+00 0. -1.
        -11    1    4    4    0    0 -0.44048928390E-01 -0.10169265209E+00 -0.26468543825E-02  0.11085562927E+00  0.51100000000E-03 0. -1.
         11    1    4    4    0    0 -0.70150852510E-02 -0.14054144908E-01 -0.84495585933E-02  0.17843390137E-01  0.51100000000E-03 0.  1.
</event>
<event>
 8    1  0.1081309E+005  0.1043930E+01  0.7957747E-01            NaN
         13   -1    0    0    0    0  0.00000000000E+00  0.00000000000E+00  0.74505805969E-08  0.10566000000E+00  0.10566000000E+00 0.  1.
     999900   -1    0    0    0    0 -0.00000000000E+00 -0.00000000000E+00 -0.74505805969E-08  0.93827000000E+00  0.93827000000E+00 0.  1.
     999902    2    1    2    0    0  0.11973139714E-02  0.23059662064E-01 -0.42565710361E-02  0.10204502221E+01  0.10201800604E+01 0.  0.
     999903    2    3    3    0    0 -0.37539938810E-02  0.67119749049E-01  0.11152963590E+00  0.13175890758E+00  0.20059831984E-01 0.  0.
         14    1    1    2    0    0 -0.11973139714E-02 -0.23059662064E-01  0.42565710361E-02  0.23479777942E-01  0.00000000000E+00 0. -1.
     999901    1    3    3    0    0  0.49513078525E-02 -0.44060086986E-01 -0.11578620694E+00  0.88869131448E+00  0.88000000000E+00 0.  1.
        -11    1    4    4    0    0 -0.59514362897E-02  0.52253731324E-01  0.69755661990E-01  0.87361235865E-01  0.51100000000E-03 0.  1.
         11    1    4    4    0    0  0.21974424086E-02  0.14866017726E-01  0.41773973912E-01  0.44397671713E-01  0.51100000000E-03 0. -1.
</event>
<event>
 8    1  0.1081309E+005  0.1043930E+01  0.7957747E-01            NaN
         13   -1    0    0    0    0  0.00000000000E+00  0.00000000000E+00  0.74505805969E-08  0.10566000000E+00  0.10566000000E+00 0.  1.
     999900   -1    0    0    0    0 -0.00000000000E+00 -0.00000000000E+00 -0.74505805969E-08  0.93827000000E+00  0.93827000000E+00 0. -1.
     999902    2    1    2    0    0 -0.15278606955E-01 -0.89982527110E-02 -0.16175399029E-01  0.10199290018E+01  0.10196465666E+01 0.  0.
     999903    2    3    3    0    0  0.73753009496E-01 -0.60262273765E-01  0.83480741254E-01  0.12836522117E+00  0.20917643180E-01 0.  0.
         14    1    1    2    0    0  0.15278606955E-01  0.89982527110E-02  0.16175399029E-01  0.24000998231E-01  0.00000000000E+00 0.  1.
     999901    1    3    3    0    0 -0.89031616451E-01  0.51264021054E-01 -0.99656140283E-01  0.89156378060E+00  0.88000000000E+00 0. -1.
        -11    1    4    4    0    0  0.67913553393E-01 -0.50011950230E-01  0.79498094306E-01  0.11590364110E+00  0.51100000000E-03 0. -1.
         11    1    4    4    0    0  0.58394561024E-02 -0.10250323536E-01  0.39826469481E-02  0.12461580071E-01  0.51100000000E-03 0.  1.
</event>
<event>
 8    1  0.1081309E+005  0.1043930E+01  0.7957747E-01            NaN
         13   -1    0    0    0    0  0.00000000000E+00  0.00000000000E+00  0.74505805969E-08  0.10566000000E+00  0.10566000000E+00 0. -1.
     999900   -1    0    0    0    0 -0.00000000000E+00 -0.00000000000E+00 -0.74505805969E-08  0.93827000000E+00  0.93827000000E+00 0.  1.
     999902    2    1    2    0    0 -0.17603395920E-03 -0.22404424252E-02  0.22170328737E-01  0.10216460586E+01  0.10214030032E+01 0.  0.
     999903    2    3    3    0    0 -0.77923873485E-01 -0.14722652989E-01 -0.10066254063E+00  0.12963235578E+00  0.19563077679E-01 0.  0.
         14    1    1    2    0    0  0.17603395920E-03  0.22404424252E-02 -0.22170328737E-01  0.22283941449E-01  0.00000000000E+00 0.  1.
     999901    1    3    3    0    0  0.77747839526E-01  0.12482210564E-01  0.12283286937E+00  0.89201370277E+00  0.88000000000E+00 0. -1.
        -11    1    4    4    0    0 -0.34063925862E-01 -0.10743198794E-01 -0.31442550757E-01  0.47588470080E-01  0.51100000000E-03 0.  1.
         11    1    4    4    0    0 -0.43859947623E-01 -0.39794541952E-02 -0.69219989878E-01  0.82043885701E-01  0.51100000000E-03 0. -1.
</event>
<event>
 8    1  0.1081309E+005  0.1043930E+01  0.7957747E-01            NaN
         13   -1    0    0    0    0  0.00000000000E+00  0.00000000000E+00  0.74505805969E-08  0.10566000000E+00  0.10566000000E+00 0.  1.
     999900   -1    0    0    0    0 -0.00000000000E+00 -0.00000000000E+00 -0.74505805969E-08  0.93827000000E+00  0.93827000000E+00 0. -1.
     999902    2    1    2    0    0  0.54803876041E-03 -0.48464204402E-02  0.23231952215E-01  0.10201915978E+01  0.10199153810E+01 0.  0.
     999903    2    3    3    0    0 -0.54717898335E-01  0.11136052013E+00  0.36768820084E-01  0.13073017440E+00  0.18526157900E-01 0.  0.
         14    1    1    2    0    0 -0.54803876041E-03  0.48464204402E-02 -0.23231952215E-01  0.23738402248E-01  0.00000000000E+00 0. -1.
     999901    1    3    3    0    0  0.55265937095E-01 -0.11620694057E+00 -0.13536867868E-01  0.88946142335E+00  0.88000000000E+00 0. -1.
        -11    1    4    4    0    0 -0.42052052322E-01  0.80203434289E-01  0.18423350491E-01  0.92415620653E-01  0.51100000000E-03 0.  1.
         11    1    4    4    0    0 -0.12665846013E-01  0.31157085840E-01  0.18345469593E-01  0.38314553747E-01  0.51100000000E-03 0. -1.
</event>
<event>
 7    1  0.1081309E+005  0.1043930E+01  0.7957747E-01            NaN
         13   -1    0    0    0    0  0.00000000000E+00  0.00000000000E+00  0.74505805969E-08  0.10566000000E+00  0.10566000000E+00 0.  1.
     999900   -1    0    0    0    0 -0.00000000000E+00 -0.00000000000E+00 -0.74505805969E-08  0.93827000000E+00  0.93827000000E+00 0. -1.
     999902    2    1    2    0    0 -0.22160026204E-01 -0.67956513466E-02  0.23301338385E-02  0.10206345678E+01  0.10203686803E+01 0.  0.
         14    1    1    2    0    0  0.22160026204E-01  0.67956513466E-02 -0.23301338385E-02  0.23295432219E-01  0.00000000000E+00 0. -1.
     999901    1    3    3    0    0 -0.81848928212E-01  0.78891236249E-01  0.17122872950E-01  0.88747747407E+00  0.88000000000E+00 0.  1.
        -11    1    3    3    0    0  0.13807702702E-01 -0.83666592945E-01 -0.19423018197E-01  0.86995782575E-01  0.51100000000E-03 0. -1.
         11    1    3    3    0    0  0.45881199306E-01 -0.20202946511E-02  0.46302790859E-02  0.46161311135E-01  0.51100000000E-03 0.  1.
</event>
<event>
 8    1  0.1081309E+005  0.1043930E+01  0.7957747E-01            NaN
         13   -1    0    0    0    0  0.00000000000E+00  0.00000000000E+00  0.74505805969E-08  0.10566000000E+00  0.10566000000E+00 0. -1.
     999900   -1    0    0    0    0 -0.00000000000E+00 -0.00000000000E+00 -0.74505805969E-08  0.93827000000E+00  0.93827000000E+00 0. -1.
     999902    2    1    2    0    0  0.17267080041E-01 -0.14932011979E-01 -0.43833501715E-02  0.10206849835E+01  0.10204202589E+01 0.  0.
     999903    2    3    3    0    0 -0.12984229835E-01  0.81995562055E-01  0.96981403441E-01  0.12906572076E+00  0.18992241588E-01 0.  0.
         14    1    1    2    0    0 -0.17267080041E-01  0.14932011979E-01  0.43833501715E-02  0.23245016533E-01  0.00000000000E+00 0. -1.
     999901    1    3    3    0    0  0.30251309877E-01 -0.96927574034E-01 -0.10136475361E+00  0.89161926271E+00  0.88000000000E+00 0. -1.
        -11    1    4    4    0    0  0.23599723778E-02  0.16888287369E-01  0.29305747177E-01  0.33909757570E-01  0.51100000000E-03 0. -1.
         11    1    4    4    0    0 -0.15344202213E-01  0.65107274686E-01  0.67675656264E-01  0.95155963189E-01  0.51100000000E-03 0.  1.
</event>
<event>
 8    1  0.1081309E+005  0.1043930E+01  0.7957747E-01            NaN
         13   -1    0    0    0    0  0.00000000000E+00  0.00000000000E+00  0.74505805969E-08  0.10566000000E+00  0.10566000000E+00 0.  1.
     999900   -1    0    0    0    0 -0.00000000000E+00 -0.00000000000E+00 -0.74505805969E-08  0.93827000000E+00  0.93827000000E+00 0. -1.
     999902    2    1    2    0    0  0.11434016004E-02  0.23836886355E-01 -0.24301180317E-02  0.10199422950E+01  0.10196601763E+01 0.  0.
     999903    2    3    3    0    0  0.96592750505E-01  0.21963566109E-01 -0.83623751037E-01  0.13106294795E+00  0.19287480464E-01 0.  0.
         14    1    1    2    0    0 -0.11434016004E-02 -0.23836886355E-01  0.24301180317E-02  0.23987705016E-01  0.00000000000E+00 0. -1.
     999901    1    3    3    0    0 -0.95449348904E-01  0.18733202453E-02  0.81193633005E-01  0.88887934703E+00  0.88000000000E+00 0.  1.
        -11    1    4    4    0    0  0.66507910368E-01  0.10484312926E-01 -0.66301269509E-01  0.94495197860E-01  0.51100000000E-03 0. -1.
         11    1    4    4    0    0  0.30084840136E-01  0.11479253183E-01 -0.17322481528E-01  0.36567750094E-01  0.51100000000E-03 0.  1.
</event>
<event>
 8    1  0.1081309E+005  0.1043930E+01  0.7957747E-01            NaN
         13   -1    0    0    0    0  0.00000000000E+00  0.00000000000E+00  0.74505805969E-08  0.10566000000E+00  0.10566000000E+00 0. -1.
     999900   -1    0    0    0    0 -0.00000000000E+00 -0.00000000000E+00 -0.74505805969E-08  0.93827000000E+00  0.93827000000E+00 0. -1.
     999902    2    1    2    0    0  0.11742193299E-01  0.22244879032E-01  0.91748153679E-02  0.10171551800E+01  0.10168027190E+01 0.  0.
     999903    2    3    3    0    0  0.38612445100E-01  0.56187939427E-01  0.10895668396E+00  0.13045874773E+00  0.22358900400E-01 0.  0.
         14    1    1    2    0    0 -0.11742193299E-01 -0.22244879032E-01 -0.91748153679E-02  0.26774819955E-01  0.00000000000E+00 0.  1.
     999901    1    3    3    0    0 -0.26870251801E-01 -0.33943060395E-01 -0.99781868588E-01  0.88669643231E+00  0.88000000000E+00 0. -1.
        -11    1    4    4    0    0  0.12445876818E-01  0.37031636461E-01  0.64867174979E-01  0.75724853645E-01  0.51100000000E-03 0.  1.
         11    1    4    4    0    0  0.26166568282E-01  0.19156302966E-01  0.44089508977E-01  0.54733894085E-01  0.51100000000E-03 0. -1.
</event>
<event>
 8    1  0.1081309E+005  0.1043930E+01  0.7957747E-01            NaN
         13   -1    0    0    0    0  0.00000000000E+00  0.00000000000E+00  0.74505805969E-08  0.10566000000E+00  0.10566000000E+00 0. -1.
     999900   -1    0    0    0    0 -0.00000000000E+00 -0.00000000000E+00 -0.74505805969E-08  0.93827000000E+00  0.93827000000E+00 0. -1.
     999902    2    1    2    0    0  0.56818428254E-02 -0.69160949802E-02 -0.22661884736E-01  0.10195645177E+01  0.10192733338E+01 0.  0.
     999903    2    3    3    0    0  0.50619122284E-01 -0.10976929092E-01 -0.12194879822E+00  0.13283246085E+00  0.94955124137E-02 0.  0.
         14    1    1    2    0    0 -0.56818428254E-02  0.69160949802E-02  0.22661884736E-01  0.24365482295E-01  0.00000000000E+00 0. -1.
     999901    1    3    3    0    0 -0.44937279458E-01  0.40608341122E-02  0.99286913485E-01  0.88673205685E+00  0.88000000000E+00 0.  1.
        -11    1    4    4    0    0  0.52643946883E-02 -0.43864625446E-03 -0.68105078377E-02  0.86342573495E-02  0.51100000000E-03 0. -1.
         11    1    4    4    0    0  0.45354727596E-01 -0.10538282838E-01 -0.11513829038E+00  0.12419820350E+00  0.51100000000E-03 0.  1.
</event>
<event>
 8    1  0.1081309E+005  0.1043930E+01  0.7957747E-01            NaN
         13   -1    0    0    0    0  0.00000000000E+00  0.00000000000E+00  0.74505805969E-08  0.10566000000E+00  0.10566000000E+00 0. -1.
     999900   -1    0    0    0    0 -0.00000000000E+00 -0.00000000000E+00 -0.74505805969E-08  0.93827000000E+00  0.93827000000E+00 0. -1.
     999902    2    1    2    0    0  0.82498242021E-02 -0.10407629834E-01  0.20843398571E-01  0.10192151134E+01  0.10189154144E+01 0.  0.
     999903    2    3    3    0    0  0.12190624036E+00 -0.39103567375E-02 -0.40001251890E-01  0.12979841293E+00  0.19264099231E-01 0.  0.
         14    1    1    2    0    0 -0.82498242021E-02  0.10407629834E-01 -0.20843398571E-01  0.24714886650E-01  0.00000000000E+00 0.  1.
     999901    1    3    3    0    0 -0.11365641616E+00 -0.64972730961E-02  0.60844650461E-01  0.88941670042E+00  0.88000000000E+00 0. -1.
        -11    1    4    4    0    0  0.69073482722E-01  0.70511452684E-02 -0.24911190333E-01  0.73767833029E-01  0.51100000000E-03 0.  1.
         11    1    4    4    0    0  0.52832757636E-01 -0.10961502006E-01 -0.15090061557E-01  0.56030579904E-01  0.51100000000E-03 0. -1.
</event>
<event>
 8    1  0.1081309E+005  0.1043930E+01  0.7957747E-01            NaN
         13   -1    0    0    0    0  0.00000000000E+00  0.00000000000E+00  0.74505805969E-08  0.10566000000E+00  0.10566000000E+00 0. -1.
     999900   -1    0    0    0    0 -0.00000000000E+00 -0.00000000000E+00 -0.74505805969E-08  0.93827000000E+00  0.93827000000E+00 0. -1.
     999902    2    1    2    0    0 -0.13860746918E-01 -0.95787848417E-02 -0.15969599085E-01  0.10207157475E+01  0.10204517312E+01 0.  0.
     999903    2    3    3    0    0  0.90299924549E-01 -0.97702764530E-02 -0.92329852009E-01  0.13128875759E+00  0.21503525820E-01 0.  0.
         14    1    1    2    0    0  0.13860746918E-01  0.95787848417E-02  0.15969599085E-01  0.23214252499E-01  0.00000000000E+00 0. -1.
     999901    1    3    3    0    0 -0.10416067147E+00  0.19149161130E-03  0.76360252924E-01  0.88942698991E+00  0.88000000000E+00 0.  1.
        -11    1    4    4    0    0  0.69936603438E-01  0.41732655881E-03 -0.62804054930E-01  0.93999537757E-01  0.51100000000E-03 0. -1.
         11    1    4    4    0    0  0.20363321112E-01 -0.10187603012E-01 -0.29525797079E-01  0.37289219836E-01  0.51100000000E-03 0.  1.
</event>
<event>
 8    1  0.1081309E+005  0.1043930E+01  0.7957747E-01            NaN
         13   -1    0    0    0    0  0.00000000000E+00  0.00000000000E+00  0.74505805969E-08  0.10566000000E+00  0.10566000000E+00 0. -1.
     999900   -1    0    0    0    0 -0.00000000000E+00 -0.00000000000E+00 -0.74505805969E-08  0.93827000000E+00  0.93827000000E+00 0.  1.
     999902    2    1    2    0    0  0.54497092431E-02 -0.19602277677E-01 -0.11091876149E-01  0.10207572070E+01  0.10204941436E+01 0.  0.
     999903    2    3    3    0    0  0.25643788925E-01 -0.12936673171E+00 -0.85257149097E-02  0.13370443434E+00  0.20269009951E-01 0.  0.
         14    1    1    2    0    0 -0.54497092431E-02  0.19602277677E-01  0.11091876149E-01  0.23172793044E-01  0.00000000000E+00 0.  1.
     999901    1    3    3    0    0 -0.20194079682E-01  0.10976445403E+00 -0.25661612392E-02  0.88705277262E+00  0.88000000000E+00 0. -1.
        -11    1    4    4    0    0  0.16218439391E-01 -0.11540324458E+00 -0.85251184857E-02  0.11684984126E+00  0.51100000000E-03 0.  1.
         11    1    4    4    0    0  0.94253495339E-02 -0.13963487126E-01 -0.59642403570E-06  0.16854593080E-01  0.51100000000E-03 0. -1.
</event>
<event>
 8    1  0.1081309E+005  0.1043930E+01  0.7957747E-01            NaN
         13   -1    0    0    0    0  0.00000000000E+00  0.00000000000E+00  0.74505805969E-08  0.10566000000E+00  0.10566000000E+00 0.  1.
     999900   -1    0    0    0    0 -0.00000000000E+00 -0.00000000000E+00 -0.74505805969E-08  0.93827000000E+00  0.93827000000E+00 0.  1.
     999902    2    1    2    0    0  0.20330186381E-01 -0.98896547243E-02 -0.60172316969E-02  0.10205349401E+01  0.10202667471E+01 0.  0.
     999903    2    3    3    0    0  0.10841353839E+00 -0.61359838967E-02  0.73201008373E-01  0.13258882887E+00  0.20742813449E-01 0.  0.
         14    1    1    2    0    0 -0.20330186381E-01  0.98896547243E-02  0.60172316969E-02  0.23395059867E-01  0.00000000000E+00 0.  1.
     999901    1    3    3    0    0 -0.88083352009E-01 -0.37536708276E-02 -0.79218240070E-01  0.88794611126E+00  0.88000000000E+00 0.  1.
        -11    1    4    4    0    0  0.65771946861E-01  0.12147575046E-02  0.33326240210E-01  0.73744993303E-01  0.51100000000E-03 0. -1.
         11    1    4    4    0    0  0.42641591530E-01 -0.73507414013E-02  0.39874768163E-01  0.58843835568E-01  0.51100000000E-03 0.  1.
</event>
<event>
 8    1  0.1081309E+005  0.1043930E+01  0.7957747E-01            NaN
         13   -1    0    0    0    0  0.00000000000E+00  0.00000000000E+00  0.74505805969E-08  0.10566000000E+00  0.10566000000E+00 0.  1.
     999900   -1    0    0    0    0 -0.00000000000E+00 -0.00000000000E+00 -0.74505805969E-08  0.93827000000E+00  0.93827000000E+00 0. -1.
     999902    2    1    2    0    0 -0.19546132975E-01 -0.31591280750E-02 -0.11801412761E-01  0.10208799512E+01  0.10206196991E+01 0.  0.
     999903    2    3    3    0    0  0.49507230727E-01 -0.10561898020E+00 -0.56684409119E-01  0.13111544774E+00  0.19282207507E-01 0.  0.
         14    1    1    2    0    0  0.19546132975E-01  0.31591280750E-02  0.11801412761E-01  0.23050048755E-01  0.00000000000E+00 0. -1.
     999901    1    3    3    0    0 -0.69053363701E-01  0.10245985212E+00  0.44882996358E-01  0.88976450351E+00  0.88000000000E+00 0.  1.
        -11    1    4    4    0    0  0.49981421005E-01 -0.96521752127E-01 -0.55067362517E-01  0.12184936034E+00  0.51100000000E-03 0.  1.
         11    1    4    4    0    0 -0.47419027803E-03 -0.90972280721E-02 -0.16170466017E-02  0.92660874013E-02  0.51100000000E-03 0. -1.
</event>
<event>
 8    1  0.1081309E+005  0.1043930E+01  0.7957747E-01            NaN
         13   -1    0    0    0    0  0.00000000000E+00  0.00000000000E+00  0.74505805969E-08  0.10566000000E+00  0.10566000000E+00 0.  1.
     999900   -1    0    0    0    0 -0.00000000000E+00 -0.00000000000E+00 -0.74505805969E-08  0.93827000000E+00  0.93827000000E+00 0. -1.
     999902    2    1    2    0    0  0.19367273901E-01 -0.10786036934E-01  0.62200494279E-02  0.10209056888E+01  0.10206460241E+01 0.  0.
     999903    2    3    3    0    0  0.12182307086E+00 -0.90889544559E-02  0.50828597837E-01  0.13383748793E+00  0.20135966038E-01 0.  0.
         14    1    1    2    0    0 -0.19367273901E-01  0.10786036934E-01 -0.62200494279E-02  0.23024311194E-01  0.00000000000E+00 0. -1.
     999901    1    3    3    0    0 -0.10245579696E+00 -0.16970824778E-02 -0.44608548409E-01  0.88706820088E+00  0.88000000000E+00 0. -1.
        -11    1    4    4    0    0  0.85473401956E-01  0.82693462024E-03  0.28858092440E-01  0.90218827764E-01  0.51100000000E-03 0. -1.
         11    1    4    4    0    0  0.36349668908E-01 -0.99158890762E-02  0.21970505397E-01  0.43618660162E-01  0.51100000000E-03 0.  1.
</event>
<event>
 8    1  0.1081309E+005  0.1043930E+01  0.7957747E-01            NaN
         13   -1    0    0    0    0  0.00000000000E+00  0.00000000000E+00  0.74505805969E-08  0.10566000000E+00  0.10566000000E+00 0. -1.
     999900   -1    0    0    0    0 -0.00000000000E+00 -0.00000000000E+00 -0.74505805969E-08  0.93827000000E+00  0.93827000000E+00 0.  1.
     999902    2    1    2    0    0 -0.12342270449E-01 -0.16217393521E-01 -0.12528378210E-01  0.10200072963E+01  0.10197267226E+01 0.  0.
     999903    2    3    3    0    0  0.50092429949E-01  0.64365082020E-01 -0.99082363438E-01  0.12990436991E+00  0.20142374645E-01 0.  0.
         14    1    1    2    0    0  0.12342270449E-01  0.16217393521E-01  0.12528378210E-01  0.23922703715E-01  0.00000000000E+00 0. -1.
     999901    1    3    3    0    0 -0.62434700398E-01 -0.80582475541E-01  0.86553985228E-01  0.89010292637E+00  0.88000000000E+00 0. -1.
        -11    1    4    4    0    0  0.27111347678E-01  0.39397208982E-01 -0.42799847988E-01  0.64181409749E-01  0.51100000000E-03 0. -1.
         11    1    4    4    0    0  0.22981082271E-01  0.24967873037E-01 -0.56282515450E-01  0.65722960164E-01  0.51100000000E-03 0.  1.
</event>
<event>
 8    1  0.1081309E+005  0.1043930E+01  0.7957747E-01            NaN
         13   -1    0    0    0    0  0.00000000000E+00  0.00000000000E+00  0.74505805969E-08  0.10566000000E+00  0.10566000000E+00 0. -1.
     999900   -1    0    0    0    0 -0.00000000000E+00 -0.00000000000E+00 -0.74505805969E-08  0.93827000000E+00  0.93827000000E+00 0.  1.
     999902    2    1    2    0    0 -0.77347443255E-02  0.19291690500E-01 -0.70350729111E-02  0.10219871688E+01  0.10217515771E+01 0.  0.
     999903    2    3    3    0    0 -0.90317193124E-01 -0.83734220395E-01 -0.41988154656E-01  0.13145029861E+00  0.18642983518E-01 0.  0.
         14    1    1    2    0    0  0.77347443255E-02 -0.19291690500E-01  0.70350729111E-02  0.21942831244E-01  0.00000000000E+00 0.  1.
     999901    1    3    3    0    0  0.82582448799E-01  0.10302591089E+00  0.34953081745E-01  0.89053687015E+00  0.88000000000E+00 0. -1.
        -11    1    4    4    0    0 -0.51086591038E-01 -0.41425189214E-01 -0.31000075198E-01  0.72712804021E-01  0.51100000000E-03 0.  1.
         11    1    4    4    0    0 -0.39230602086E-01 -0.42309031181E-01 -0.10988079458E-01  0.58737494589E-01  0.51100000000E-03 0. -1.
</event>
<event>
 8    1  0.1081309E+005  0.1043930E+01  0.7957747E-01            NaN
         13   -1    0    0    0    0  0.00000000000E+00  0.00000000000E+00  0.74505805969E-08  0.10566000000E+00  0.10566000000E+00 0.  1.
     999900   -1    0    0    0    0 -0.00000000000E+00 -0.00000000000E+00 -0.74505805969E-08  0.93827000000E+00  0.93827000000E+00 0. -1.
     999902    2    1    2    0    0  0.67215366806E-02  0.21359300019E-01  0.32514120020E-02  0.10213032364E+01  0.10210525599E+01 0.  0.
     999903    2    3    3    0    0 -0.10432141943E+00 -0.39472713999E-01  0.63445282862E-01  0.13020594980E+00  0.22073326507E-01 0.  0.
         14    1    1    2    0    0 -0.67215366806E-02 -0.21359300019E-01 -0.32514120020E-02  0.22626763637E-01  0.00000000000E+00 0. -1.
     999901    1    3    3    0    0  0.11104295611E+00  0.60832014019E-01 -0.60193870860E-01  0.89109728656E+00  0.88000000000E+00 0. -1.
        -11    1    4    4    0    0 -0.27784150825E-01 -0.11835744999E-01  0.65318260354E-02  0.30902585153E-01  0.51100000000E-03 0.  1.
         11    1    4    4    0    0 -0.76537268607E-01 -0.27636969000E-01  0.56913456826E-01  0.99303364647E-01  0.51100000000E-03 0. -1.
</event>
<event>
 8    1  0.1081309E+005  0.1043930E+01  0.7957747E-01            NaN
         13   -1    0    0    0    0  0.00000000000E+00  0.00000000000E+00  0.74505805969E-08  0.10566000000E+00  0.10566000000E+00 0. -1.
     999900   -1    0    0    0    0 -0.00000000000E+00 -0.00000000000E+00 -0.74505805969E-08  0.93827000000E+00  0.93827000000E+00 0.  1.
     999902    2    1    2    0    0  0.23381313931E-01  0.35760802014E-02  0.12943497080E-02  0.10202414050E+01  0.10199663597E+01 0.  0.
     999903    2    3    3    0    0  0.37895593978E-01 -0.12171666007E+00 -0.22257129968E-01  0.13093627894E+00  0.19947629599E-01 0.  0.
         14    1    1    2    0    0 -0.23381313931E-01 -0.35760802014E-02 -0.12943497080E-02  0.23688594975E-01  0.00000000000E+00 0.  1.
     999901    1    3    3    0    0 -0.14514280047E-01  0.12529274027E+00  0.23551479676E-01  0.88930512609E+00  0.88000000000E+00 0. -1.
        -11    1    4    4    0    0  0.39763287201E-01 -0.10715322043E+00 -0.20812713384E-01  0.11617384309E+00  0.51100000000E-03 0.  1.
         11    1    4    4    0    0 -0.18676932233E-02 -0.14563439635E-01 -0.14444165838E-02  0.14762435851E-01  0.51100000000E-03 0. -1.
</event>
<event>
 8    1  0.1081309E+005  0.1043930E+01  0.7957747E-01            NaN
         13   -1    0    0    0    0  0.00000000000E+00  0.00000000000E+00  0.74505805969E-08  0.10566000000E+00  0.10566000000E+00 0. -1.
     999900   -1    0    0    0    0 -0.00000000000E+00 -0.00000000000E+00 -0.74505805969E-08  0.93827000000E+00  0.93827000000E+00 0.  1.
     999902    2    1    2    0    0  0.46460238357E-02 -0.10794791369E-01  0.20928522972E-01  0.10199275807E+01  0.10196451117E+01 0.  0.
     999903    2    3    3    0    0  0.19893808161E-01 -0.81071335537E-01  0.10215453184E+00  0.13326589094E+00  0.18865955121E-01 0.  0.
         14    1    1    2    0    0 -0.46460238357E-02  0.10794791369E-01 -0.20928522972E-01  0.24002419295E-01  0.00000000000E+00 0.  1.
     999901    1    3    3    0    0 -0.15247784325E-01  0.70276544168E-01 -0.81226008868E-01  0.88666168977E+00  0.88000000000E+00 0.  1.
        -11    1    4    4    0    0  0.74128734515E-02 -0.57903373601E-01  0.61161713242E-01  0.84550385303E-01  0.51100000000E-03 0. -1.
         11    1    4    4    0    0  0.12480934709E-01 -0.23167961937E-01  0.40992818598E-01  0.48715505634E-01  0.51100000000E-03 0.  1.
</event>
<event>
 8    1  0.1081309E+005  0.1043930E+01  0.7957747E-01            NaN
         13   -1    0    0    0    0  0.00000000000E+00  0.00000000000E+00  0.74505805969E-08  0.10566000000E+00  0.10566000000E+00 0.  1.
     999900   -1    0    0    0    0 -0.00000000000E+00 -0.00000000000E+00 -0.74505805969E-08  0.93827000000E+00  0.93827000000E+00 0.  1.
     999902    2    1    2    0    0  0.10644130104E-01 -0.98512198314E-02  0.18800312719E-01  0.10201856155E+01  0.10199092578E+01 0.  0.
     999903    2    3    3    0    0 -0.75658173764E-01 -0.10359687668E+00  0.21757932313E-01  0.13100336007E+00  0.15231566433E-01 0.  0.
         14    1    1    2    0    0 -0.10644130104E-01  0.98512198314E-02 -0.18800312719E-01  0.23744384519E-01  0.00000000000E+00 0. -1.
     999901    1    3    3    0    0  0.86302303868E-01  0.93745656844E-01 -0.29576195936E-02  0.88918225541E+00  0.88000000000E+00 0. -1.
        -11    1    4    4    0    0 -0.92739438882E-02 -0.15196975916E-01 -0.20161505150E-02  0.17924287883E-01  0.51100000000E-03 0.  1.
         11    1    4    4    0    0 -0.66384229876E-01 -0.88399900760E-01  0.23774082828E-01  0.11307907218E+00  0.51100000000E-03 0. -1.
</event>
<event>
 8    1  0.1081309E+005  0.1043930E+01  0.7957747E-01            NaN
         13   -1    0    0    0    0  0.00000000000E+00  0.00000000000E+00  0.74505805969E-08  0.10566000000E+00  0.10566000000E+00 0. -1.
     999900   -1    0    0    0    0 -0.00000000000E+00 -0.00000000000E+00 -0.74505805969E-08  0.93827000000E+00  0.93827000000E+00 0.  1.
     999902    2    1    2    0    0 -0.56011862298E-02 -0.15234025864E-01 -0.16610990714E-01  0.10207055766E+01  0.10204413262E+01 0.  0.
     999903    2    3    3    0    0 -0.11383108288E+00 -0.15220904737E-01 -0.63679220541E-01  0.13282657076E+00  0.19966557042E-01 0.  0.
         14    1    1    2    0    0  0.56011862298E-02  0.15234025864E-01  0.16610990714E-01  0.23224423431E-01  0.00000000000E+00 0. -1.
     999901    1    3    3    0    0  0.10822989665E+00 -0.13121127769E-04  0.47068229827E-01  0.88787900581E+00  0.88000000000E+00 0. -1.
        -11    1    4    4    0    0 -0.18871469585E-01 -0.80504019825E-02 -0.55673209568E-02  0.21264936398E-01  0.51100000000E-03 0. -1.
         11    1    4    4    0    0 -0.94959613294E-01 -0.71705027541E-02 -0.58111899584E-01  0.11156163436E+00  0.51100000000E-03 0.  1.
</event>
<event>
 8    1  0.1081309E+005  0.1043930E+01  0.7957747E-01            NaN
         13   -1    0    0    0    0  0.00000000000E+00  0.00000000000E+00  0.74505805969E-08  0.10566000000E+00  0.10566000000E+00 0.  1.
     999900   -1    0    0    0    0 -0.00000000000E+00 -0.00000000000E+00 -0.74505805969E-08  0.93827000000E+00  0.93827000000E+00 0.  1.
     999902    2    1    2    0    0  0.10147139967E-01  0.13030008069E-02  0.23302587309E-01  0.10184805828E+01  0.10181625728E+01 0.  0.
     999903    2    3    3    0    0  0.87636437626E-01  0.90607472282E-01  0.28133362987E-01  0.13055985646E+00  0.19092688954E-01 0.  0.
         14    1    1    2    0    0 -0.10147139967E-01 -0.13030008069E-02 -0.23302587309E-01  0.25449417201E-01  0.00000000000E+00 0. -1.
     999901    1    3    3    0    0 -0.77489297659E-01 -0.89304471476E-01 -0.48307756781E-02  0.88792072634E+00  0.88000000000E+00 0. -1.
        -11    1    4    4    0    0  0.37627081813E-01  0.52258979023E-01  0.16423854669E-01  0.66459027208E-01  0.51100000000E-03 0. -1.
         11    1    4    4    0    0  0.50009355813E-01  0.38348493260E-01  0.11709508318E-01  0.64100829247E-01  0.51100000000E-03 0.  1.
</event>
<event>
 8    1  0.1081309E+005  0.1043930E+01  0.7957747E-01            NaN
         13   -1    0    0    0    0  0.00000000000E+00  0.00000000000E+00  0.74505805969E-08  0.10566000000E+00  0.10566000000E+00 0.  1.
     999900   -1    0    0    0    0 -0.00000000000E+00 -0.00000000000E+00 -0.74505805969E-08  0.93827000000E+00  0.93827000000E+00 0. -1.
     999902    2    1    2    0    0 -0.47579720615E-02 -0.44531874029E-02  0.35742921484E-01  0.10075978433E+01  0.10069425943E+01 0.  0.
     999903    2    3    3    0    0 -0.29385446475E-02 -0.65468686382E-01 -0.93286497844E-01  0.11609641732E+00  0.21936806802E-01 0.  0.
         14    1    1    2    0    0  0.47579720615E-02  0.44531874029E-02 -0.35742921484E-01  0.36332156726E-01  0.00000000000E+00 0. -1.
     999901    1    3    3    0    0 -0.18194274140E-02  0.61015498979E-01  0.12902941933E+00  0.89150142596E+00  0.88000000000E+00 0.  1.
        -11    1    4    4    0    0 -0.77385295032E-02 -0.95173454511E-02 -0.23554774948E-01  0.26562252298E-01  0.51100000000E-03 0.  1.
         11    1    4    4    0    0  0.47999848557E-02 -0.55951340931E-01 -0.69731722896E-01  0.89534165019E-01  0.51100000000E-03 0. -1.
</event>
<event>
 8    1  0.1081309E+005  0.1043930E+01  0.7957747E-01            NaN
         13   -1    0    0    0    0  0.00000000000E+00  0.00000000000E+00  0.74505805969E-08  0.10566000000E+00  0.10566000000E+00 0. -1.
     999900   -1    0    0    0    0 -0.00000000000E+00 -0.00000000000E+00 -0.74505805969E-08  0.93827000000E+00  0.93827000000E+00 0.  1.
     999902    2    1    2    0    0 -0.99067931128E-02 -0.35097695732E-02  0.21461035554E-01  0.10200335760E+01  0.10197536257E+01 0.  0.
     999903    2    3    3    0    0  0.32848137580E-01 -0.89511581550E-01 -0.83514774205E-01  0.12860538687E+00  0.21755565913E-01 0.  0.
         14    1    1    2    0    0  0.99067931128E-02  0.35097695732E-02 -0.21461035554E-01  0.23896423985E-01  0.00000000000E+00 0.  1.
     999901    1    3    3    0    0 -0.42754930693E-01  0.86001811977E-01  0.10497580976E+00  0.89142818914E+00  0.88000000000E+00 0. -1.
        -11    1    4    4    0    0  0.48942448912E-02 -0.44720352877E-01 -0.37616371844E-01  0.58643977920E-01  0.51100000000E-03 0. -1.
         11    1    4    4    0    0  0.27953892689E-01 -0.44791228672E-01 -0.45898402361E-01  0.69961408953E-01  0.51100000000E-03 0.  1.
</event>
<event>
 8    1  0.1081309E+005  0.1043930E+01  0.7957747E-01            NaN
         13   -1    0    0    0    0  0.00000000000E+00  0.00000000000E+00  0.74505805969E-08  0.10566000000E+00  0.10566000000E+00 0. -1.
     999900   -1    0    0    0    0 -0.00000000000E+00 -0.00000000000E+00 -0.74505805969E-08  0.93827000000E+00  0.93827000000E+00 0.  1.
     999902    2    1    2    0    0  0.99071104616E-02 -0.34658307497E-02 -0.19979696161E-01  0.10213611923E+01  0.10211118128E+01 0.  0.
     999903    2    3    3    0    0  0.13017975149E+00  0.17081877816E-01 -0.49965621449E-02  0.13281619584E+00  0.19406648227E-01 0.  0.
         14    1    1    2    0    0 -0.99071104616E-02  0.34658307497E-02  0.19979696161E-01  0.22568807660E-01  0.00000000000E+00 0. -1.
     999901    1    3    3    0    0 -0.12027264103E+00 -0.20547708566E-01 -0.14983134016E-01  0.88854499650E+00  0.88000000000E+00 0.  1.
        -11    1    4    4    0    0  0.60903738037E-01  0.13993969167E-01 -0.10005874903E-01  0.63288823133E-01  0.51100000000E-03 0.  1.
         11    1    4    4    0    0  0.69276013453E-01  0.30879086494E-02  0.50093127583E-02  0.69527372704E-01  0.51100000000E-03 0. -1.
</event>
<event>
 8    1  0.1105346E+005  0.1043930E+01  0.7957747E-01            NaN
         13   -1    0    0    0    0  0.00000000000E+00  0.00000000000E+00  0.74505805969E-08  0.10566000000E+00  0.10566000000E+00 0.  1.
     999900   -1    0    0    0    0 -0.00000000000E+00 -0.00000000000E+00 -0.74505805969E-08  0.93827000000E+00  0.93827000000E+00 0.  1.
     999902    2    1    2    0    0 -0.15078244165E-01  0.16331191570E-01  0.68115924957E-02  0.10206822247E+01  0.10204174365E+01 0.  0.
     999903    2    3    3    0    0 -0.13738129477E-01 -0.11954584529E+00 -0.41377120594E-01  0.12894991220E+00  0.20882251319E-01 0.  0.
         14    1    1    2    0    0  0.15078244165E-01 -0.16331191570E-01 -0.68115924957E-02  0.23247775324E-01  0.00000000000E+00 0. -1.
     999901    1    3    3    0    0 -0.13401146884E-02  0.13587703686E+00  0.48188713090E-01  0.89173231248E+00  0.88000000000E+00 0.  1.
        -11    1    4    4    0    0 -0.17161455006E-01 -0.58014344068E-01 -0.20266953390E-01  0.63805878853E-01  0.51100000000E-03 0. -1.
         11    1    4    4    0    0  0.34233255288E-02 -0.61531501218E-01 -0.21110167204E-01  0.65144033343E-01  0.51100000000E-03 0.  1.
</event>
<event>
 8    1  0.1081309E+005  0.1043930E+01  0.7957747E-01            NaN
         13   -1    0    0    0    0  0.00000000000E+00  0.00000000000E+00  0.74505805969E-08  0.10566000000E+00  0.10566000000E+00 0.  1.
     999900   -1    0    0    0    0 -0.00000000000E+00 -0.00000000000E+00 -0.74505805969E-08  0.93827000000E+00  0.93827000000E+00 0. -1.
     999902    2    1    2    0    0 -0.11717325656E-01  0.12635105114E-02 -0.20455846688E-01  0.10203220809E+01  0.10200489277E+01 0.  0.
     999903    2    3    3    0    0  0.15679183558E-02 -0.92814666625E-01  0.86628074904E-01  0.12875370588E+00  0.21355858845E-01 0.  0.
         14    1    1    2    0    0  0.11717325656E-01 -0.12635105114E-02  0.20455846688E-01  0.23607919075E-01  0.00000000000E+00 0.  1.
     999901    1    3    3    0    0 -0.13285244012E-01  0.94078177136E-01 -0.10708392159E+00  0.89156837505E+00  0.88000000000E+00 0.  1.
        -11    1    4    4    0    0 -0.45148757718E-02 -0.52003590989E-01  0.35868011832E-01  0.63336663733E-01  0.51100000000E-03 0.  1.
         11    1    4    4    0    0  0.60827941276E-02 -0.40811075636E-01  0.50760063071E-01  0.65417042145E-01  0.51100000000E-03 0. -1.
</event>
<event>
 8    1  0.1081309E+005  0.1043930E+01  0.7957747E-01            NaN
         13   -1    0    0    0    0  0.00000000000E+00  0.00000000000E+00  0.74505805969E-08  0.10566000000E+00  0.10566000000E+00 0.  1.
     999900   -1    0    0    0    0 -0.00000000000E+00 -0.00000000000E+00 -0.74505805969E-08  0.93827000000E+00  0.93827000000E+00 0.  1.
     999902    2    1    2    0    0  0.20047811480E-01  0.12498625076E-01  0.27267927970E-02  0.10201483732E+01  0.10198711377E+01 0.  0.
     999903    2    3    3    0    0  0.11707504514E+00 -0.55799904623E-02 -0.58559517377E-01  0.13251267529E+00  0.19816395915E-01 0.  0.
         14    1    1    2    0    0 -0.20047811480E-01 -0.12498625076E-01 -0.27267927970E-02  0.23781626792E-01  0.00000000000E+00 0.  1.
     999901    1    3    3    0    0 -0.97027233663E-01  0.18078615538E-01  0.61286310174E-01  0.88763569792E+00  0.88000000000E+00 0. -1.
        -11    1    4    4    0    0  0.51821201982E-02  0.34871452547E-02 -0.96904139852E-03  0.63415072347E-02  0.51100000000E-03 0.  1.
         11    1    4    4    0    0  0.11189292494E+00 -0.90671357171E-02 -0.57590475979E-01  0.12617116805E+00  0.51100000000E-03 0. -1.
</event>
<event>
 8    1  0.1081309E+005  0.1043930E+01  0.7957747E-01            NaN
         13   -1    0    0    0    0  0.00000000000E+00  0.00000000000E+00  0.74505805969E-08  0.10566000000E+00  0.10566000000E+00 0. -1.
     999900   -1    0    0    0    0 -0.00000000000E+00 -0.00000000000E+00 -0.74505805969E-08  0.93827000000E+00  0.93827000000E+00 0. -1.
     999902    2    1    2    0    0  0.12816508355E-01  0.17651340101E-01 -0.97475804559E-02  0.10200375740E+01  0.10197577185E+01 0.  0.
     999903    2    3    3    0    0  0.44036166470E-01 -0.11727214681E+00 -0.23920635227E-01  0.12909431554E+00  0.20030105829E-01 0.  0.
         14    1    1    2    0    0 -0.12816508355E-01 -0.17651340101E-01  0.97475804559E-02  0.23892425966E-01  0.00000000000E+00 0. -1.
     999901    1    3    3    0    0 -0.31219658114E-01  0.13492348691E+00  0.14173054771E-01  0.89094325849E+00  0.88000000000E+00 0.  1.
        -11    1    4    4    0    0  0.22313409937E-02 -0.64237505125E-02 -0.63682620602E-02  0.93305592514E-02  0.51100000000E-03 0.  1.
         11    1    4    4    0    0  0.41804825476E-01 -0.11084839630E+00 -0.17552373167E-01  0.11976375629E+00  0.51100000000E-03 0. -1.
</event>
<event>
 8    1  0.1081309E+005  0.1043930E+01  0.7957747E-01            NaN
         13   -1    0    0    0    0  0.00000000000E+00  0.00000000000E+00  0.74505805969E-08  0.10566000000E+00  0.10566000000E+00 0.  1.
     999900   -1    0    0    0    0 -0.00000000000E+00 -0.00000000000E+00 -0.74505805969E-08  0.93827000000E+00  0.93827000000E+00 0.  1.
     999902    2    1    2    0    0  0.17048710800E-01  0.93338975972E-02 -0.13580344832E-01  0.10202191175E+01  0.10199435483E+01 0.  0.
     999903    2    3    3    0    0 -0.46430856848E-01  0.11973879227E+00 -0.10275710412E-01  0.13104544665E+00  0.23960718298E-01 0.  0.
         14    1    1    2    0    0 -0.17048710800E-01 -0.93338975972E-02  0.13580344832E-01  0.23710882524E-01  0.00000000000E+00 0.  1.
     999901    1    3    3    0    0  0.63479567648E-01 -0.11040489468E+00 -0.33046344199E-02  0.88917367082E+00  0.88000000000E+00 0.  1.
        -11    1    4    4    0    0 -0.21270417844E-01  0.26125325249E-01 -0.18797455280E-02  0.33745486496E-01  0.51100000000E-03 0. -1.
         11    1    4    4    0    0 -0.25160439004E-01  0.93613467024E-01 -0.83959648843E-02  0.97299960157E-01  0.51100000000E-03 0.  1.
</event>
<event>
 8    1  0.1081309E+005  0.1043930E+01  0.7957747E-01            NaN
         13   -1    0    0    0    0  0.00000000000E+00  0.00000000000E+00  0.74505805969E-08  0.10566000000E+00  0.10566000000E+00 0. -1.
     999900   -1    0    0    0    0 -0.00000000000E+00 -0.00000000000E+00 -0.74505805969E-08  0.93827000000E+00  0.93827000000E+00 0.  1.
     999902    2    1    2    0    0 -0.16675430332E-01 -0.34028048361E-02 -0.16296985274E-01  0.10203664522E+01  0.10200943368E+01 0.  0.
     999903    2    3    3    0    0 -0.41987905158E-01 -0.37629395826E-01 -0.11912343229E+00  0.13335717424E+00  0.20366349515E-01 0.  0.
         14    1    1    2    0    0  0.16675430332E-01  0.34028048361E-02  0.16296985274E-01  0.23563547834E-01  0.00000000000E+00 0. -1.
     999901    1    3    3    0    0  0.25312474826E-01  0.34226590990E-01  0.10282644701E+00  0.88700927792E+00  0.88000000000E+00 0. -1.
        -11    1    4    4    0    0 -0.20450263649E-01 -0.23385089395E-01 -0.85426273689E-01  0.90900962848E-01  0.51100000000E-03 0. -1.
         11    1    4    4    0    0 -0.21537641509E-01 -0.14244306431E-01 -0.33697158599E-01  0.42456211397E-01  0.51100000000E-03 0.  1.
</event>
<event>
 8    1  0.1081309E+005  0.1043930E+01  0.7957747E-01            NaN
         13   -1    0    0    0    0  0.00000000000E+00  0.00000000000E+00  0.74505805969E-08  0.10566000000E+00  0.10566000000E+00 0. -1.
     999900   -1    0    0    0    0 -0.00000000000E+00 -0.00000000000E+00 -0.74505805969E-08  0.93827000000E+00  0.93827000000E+00 0. -1.
     999902    2    1    2    0    0 -0.86837952872E-02 -0.63704099788E-02 -0.20584362476E-01  0.10206984180E+01  0.10204340028E+01 0.  0.
     999903    2    3    3    0    0  0.98999383797E-01  0.36201344157E-01 -0.75694899518E-01  0.13140364538E+00  0.20634555851E-01 0.  0.
         14    1    1    2    0    0  0.86837952872E-02  0.63704099788E-02  0.20584362476E-01  0.23231582005E-01  0.00000000000E+00 0. -1.
     999901    1    3    3    0    0 -0.10768317908E+00 -0.42571754136E-01  0.55110537042E-01  0.88929477262E+00  0.88000000000E+00 0. -1.
        -11    1    4    4    0    0  0.41529795968E-01  0.22788595618E-01 -0.42768522907E-01  0.63823598426E-01  0.51100000000E-03 0. -1.
         11    1    4    4    0    0  0.57469587828E-01  0.13412748538E-01 -0.32926376612E-01  0.67580046954E-01  0.51100000000E-03 0.  1.
</event>
<event>
 8    1  0.1081309E+005  0.1043930E+01  0.7957747E-01            NaN
         13   -1    0    0    0    0  0.00000000000E+00  0.00000000000E+00  0.74505805969E-08  0.10566000000E+00  0.10566000000E+00 0. -1.
     999900   -1    0    0    0    0 -0.00000000000E+00 -0.00000000000E+00 -0.74505805969E-08  0.93827000000E+00  0.93827000000E+00 0.  1.
     999902    2    1    2    0    0  0.77659195669E-02  0.75556100630E-03  0.23081737108E-01  0.10195651284E+01  0.10192739593E+01 0.  0.
     999903    2    3    3    0    0 -0.11205441180E+00 -0.24397002783E-01  0.58534958496E-01  0.13038207967E+00  0.20536318688E-01 0.  0.
         14    1    1    2    0    0 -0.77659195669E-02 -0.75556100630E-03 -0.23081737108E-01  0.24364871579E-01  0.00000000000E+00 0.  1.
     999901    1    3    3    0    0  0.11982033137E+00  0.25152563789E-01 -0.35453221388E-01  0.88918304875E+00  0.88000000000E+00 0. -1.
        -11    1    4    4    0    0 -0.65408091114E-01 -0.22790282133E-01  0.41180097646E-01  0.80583353778E-01  0.51100000000E-03 0.  1.
         11    1    4    4    0    0 -0.46646320684E-01 -0.16067206497E-02  0.17354860851E-01  0.49798725895E-01  0.51100000000E-03 0. -1.
</event>
<event>
 8    1  0.1081309E+005  0.1043930E+01  0.7957747E-01            NaN
         13   -1    0    0    0    0  0.00000000000E+00  0.00000000000E+00  0.74505805969E-08  0.10566000000E+00  0.10566000000E+00 0.  1.
     999900   -1    0    0    0    0 -0.00000000000E+00 -0.00000000000E+00 -0.74505805969E-08  0.93827000000E+00  0.93827000000E+00 0. -1.
     999902    2    1    2    0    0  0.16910601877E-01  0.12880674433E-01  0.31276394286E-02  0.10224436704E+01  0.10222178813E+01 0.  0.
     999903    2    3    3    0    0 -0.10024011861E+00  0.50872231757E-01  0.65601437459E-01  0.13167398911E+00  0.19960597885E-01 0.  0.
         14    1    1    2    0    0 -0.16910601877E-01 -0.12880674433E-01 -0.31276394286E-02  0.21486329563E-01  0.00000000000E+00 0. -1.
     999901    1    3    3    0    0  0.11715072049E+00 -0.37991557324E-01 -0.62473798030E-01  0.89076968133E+00  0.88000000000E+00 0. -1.
        -11    1    4    4    0    0 -0.35619152364E-01  0.81032301899E-02  0.17984394067E-01  0.40719601000E-01  0.51100000000E-03 0. -1.
         11    1    4    4    0    0 -0.64620966244E-01  0.42769001567E-01  0.47617043391E-01  0.90954388106E-01  0.51100000000E-03 0.  1.
</event>
<event>
 8    1  0.1081309E+005  0.1043930E+01  0.7957747E-01            NaN
         13   -1    0    0    0    0  0.00000000000E+00  0.00000000000E+00  0.74505805969E-08  0.10566000000E+00  0.10566000000E+00 0.  1.
     999900   -1    0    0    0    0 -0.00000000000E+00 -0.00000000000E+00 -0.74505805969E-08  0.93827000000E+00  0.93827000000E+00 0.  1.
     999902    2    1    2    0    0  0.11812167074E-01 -0.20874527859E-01 -0.37495945160E-02  0.10196538252E+01  0.10193647976E+01 0.  0.
     999903    2    3    3    0    0  0.13104002558E-02  0.77073972855E-01 -0.10121362754E+00  0.12880959996E+00  0.20139518398E-01 0.  0.
         14    1    1    2    0    0 -0.11812167074E-01  0.20874527859E-01  0.37495945160E-02  0.24276174809E-01  0.00000000000E+00 0. -1.
     999901    1    3    3    0    0  0.10501766818E-01 -0.97948500714E-01  0.97464033022E-01  0.89084422523E+00  0.88000000000E+00 0.  1.
        -11    1    4    4    0    0 -0.48347021220E-02  0.22895800343E-01 -0.43587268009E-01  0.49474266760E-01  0.51100000000E-03 0.  1.
         11    1    4    4    0    0  0.61451023778E-02  0.54178172512E-01 -0.57626359530E-01  0.79335333198E-01  0.51100000000E-03 0. -1.
</event>
<event>
 8    1  0.1081309E+005  0.1043930E+01  0.7957747E-01            NaN
         13   -1    0    0    0    0  0.00000000000E+00  0.00000000000E+00  0.74505805969E-08  0.10566000000E+00  0.10566000000E+00 0. -1.
     999900   -1    0    0    0    0 -0.00000000000E+00 -0.00000000000E+00 -0.74505805969E-08  0.93827000000E+00  0.93827000000E+00 0.  1.
     999902    2    1    2    0    0 -0.71358846543E-03  0.22867543325E-01  0.51031477710E-02  0.10204890985E+01  0.10202198412E+01 0.  0.
     999903    2    3    3    0    0 -0.22578767027E-01 -0.71904572613E-01  0.10339236529E+00  0.12969136036E+00  0.21208476340E-01 0.  0.
         14    1    1    2    0    0  0.71358846543E-03 -0.22867543325E-01 -0.51031477710E-02  0.23440901506E-01  0.00000000000E+00 0.  1.
     999901    1    3    3    0    0  0.21865178561E-01  0.94772115938E-01 -0.98289217514E-01  0.89079773814E+00  0.88000000000E+00 0.  1.
        -11    1    4    4    0    0 -0.20306482439E-01 -0.47041228719E-01  0.54586086893E-01  0.74867432383E-01  0.51100000000E-03 0.  1.
         11    1    4    4    0    0 -0.22722845883E-02 -0.24863343893E-01  0.48806278393E-01  0.54823927973E-01  0.51100000000E-03 0. -1.
</event>
<event>
 8    1  0.1081309E+005  0.1043930E+01  0.7957747E-01            NaN
         13   -1    0    0    0    0  0.00000000000E+00  0.00000000000E+00  0.74505805969E-08  0.10566000000E+00  0.10566000000E+00 0.  1.
     999900   -1    0    0    0    0 -0.00000000000E+00 -0.00000000000E+00 -0.74505805969E-08  0.93827000000E+00  0.93827000000E+00 0. -1.
     999902    2    1    2    0    0  0.79083116807E-02 -0.14410688008E-01  0.16233395808E-01  0.10208273495E+01  0.10205658945E+01 0.  0.
     999903    2    3    3    0    0 -0.33408857980E-01  0.12199608810E+00  0.13064657703E-01  0.12935443457E+00  0.23721027809E-01 0.  0.
         14    1    1    2    0    0 -0.79083116807E-02  0.14410688008E-01 -0.16233395808E-01  0.23102650539E-01  0.00000000000E+00 0.  1.
     999901    1    3    3    0    0  0.41317169661E-01 -0.13640677611E+00  0.31687381050E-02  0.89147291489E+00  0.88000000000E+00 0.  1.
        -11    1    4    4    0    0 -0.71243503982E-02  0.62660276408E-01  0.13308693684E-01  0.64455015761E-01  0.51100000000E-03 0.  1.
         11    1    4    4    0    0 -0.26284507582E-01  0.59335811689E-01 -0.24403598149E-03  0.64899418812E-01  0.51100000000E-03 0. -1.
</event>
<event>
 8    1  0.1081309E+005  0.1043930E+01  0.7957747E-01            NaN
         13   -1    0    0    0    0  0.00000000000E+00  0.00000000000E+00  0.74505805969E-08  0.10566000000E+00  0.10566000000E+00 0. -1.
     999900   -1    0    0    0    0 -0.00000000000E+00 -0.00000000000E+00 -0.74505805969E-08  0.93827000000E+00  0.93827000000E+00 0.  1.
     999902    2    1    2    0    0  0.46126261860E-02  0.16509224817E-01  0.16648361178E-01  0.10200344198E+01  0.10197544895E+01 0.  0.
     999903    2    3    3    0    0  0.28651335010E-01  0.10743786247E+00 -0.66599355846E-01  0.13111594260E+00  0.19802093742E-01 0.  0.
         14    1    1    2    0    0 -0.46126261860E-02 -0.16509224817E-01 -0.16648361178E-01  0.23895580225E-01  0.00000000000E+00 0.  1.
     999901    1    3    3    0    0 -0.24038708824E-01 -0.90928637649E-01  0.83247717024E-01  0.88891847717E+00  0.88000000000E+00 0. -1.
        -11    1    4    4    0    0  0.23866959264E-01  0.72499872647E-01 -0.54659987832E-01  0.93882046575E-01  0.51100000000E-03 0. -1.
         11    1    4    4    0    0  0.47843757457E-02  0.34937989820E-01 -0.11939368015E-01  0.37233896029E-01  0.51100000000E-03 0.  1.
</event>
<event>
 8    1  0.1081309E+005  0.1043930E+01  0.7957747E-01            NaN
         13   -1    0    0    0    0  0.00000000000E+00  0.00000000000E+00  0.74505805969E-08  0.10566000000E+00  0.10566000000E+00 0.  1.
     999900   -1    0    0    0    0 -0.00000000000E+00 -0.00000000000E+00 -0.74505805969E-08  0.93827000000E+00  0.93827000000E+00 0. -1.
     999902    2    1    2    0    0 -0.21526658534E-01  0.14961492390E-02  0.12444379836E-01  0.10190202011E+01  0.10187156975E+01 0.  0.
     999903    2    3    3    0    0  0.90858128171E-01  0.29709735912E-01  0.83589646997E-01  0.12857761691E+00  0.20176883366E-01 0.  0.
         14    1    1    2    0    0  0.21526658534E-01 -0.14961492390E-02 -0.12444379836E-01  0.24909798869E-01  0.00000000000E+00 0. -1.
     999901    1    3    3    0    0 -0.11238478670E+00 -0.28213586673E-01 -0.71145267161E-01  0.89044258422E+00  0.88000000000E+00 0. -1.
        -11    1    4    4    0    0  0.31511560231E-01  0.16150056405E-01  0.41555417519E-01  0.54597770983E-01  0.51100000000E-03 0. -1.
         11    1    4    4    0    0  0.59346567939E-01  0.13559679507E-01  0.42034229478E-01  0.73979845927E-01  0.51100000000E-03 0.  1.
</event>
<event>
 8    1  0.1081309E+005  0.1043930E+01  0.7957747E-01            NaN
         13   -1    0    0    0    0  0.00000000000E+00  0.00000000000E+00  0.74505805969E-08  0.10566000000E+00  0.10566000000E+00 0. -1.
     999900   -1    0    0    0    0 -0.00000000000E+00 -0.00000000000E+00 -0.74505805969E-08  0.93827000000E+00  0.93827000000E+00 0. -1.
     999902    2    1    2    0    0  0.24830446522E-01  0.26693457557E-02 -0.25608838385E-02  0.10188255261E+01  0.10185161845E+01 0.  0.
     999903    2    3    3    0    0  0.80876473200E-02 -0.74613224051E-04  0.12726624674E+00  0.12913853936E+00  0.20362936434E-01 0.  0.
         14    1    1    2    0    0 -0.24830446522E-01 -0.26693457557E-02  0.25608838385E-02  0.25104473850E-01  0.00000000000E+00 0.  1.
     999901    1    3    3    0    0  0.16742799202E-01  0.27439589798E-02 -0.12982713058E+00  0.88968698679E+00  0.88000000000E+00 0. -1.
        -11    1    4    4    0    0  0.91451669956E-02  0.89333090094E-02  0.77815821899E-01  0.78860645116E-01  0.51100000000E-03 0.  1.
         11    1    4    4    0    0 -0.10575196756E-02 -0.90079222335E-02  0.49450424845E-01  0.50277894240E-01  0.51100000000E-03 0. -1.
</event>
<event>
 8    1  0.1081309E+005  0.1043930E+01  0.7957747E-01            NaN
         13   -1    0    0    0    0  0.00000000000E+00  0.00000000000E+00  0.74505805969E-08  0.10566000000E+00  0.10566000000E+00 0. -1.
     999900   -1    0    0    0    0 -0.00000000000E+00 -0.00000000000E+00 -0.74505805969E-08  0.93827000000E+00  0.93827000000E+00 0. -1.
     999902    2    1    2    0    0 -0.92805071107E-02  0.18752354806E-01  0.71415410814E-02  0.10218216253E+01  0.10215824263E+01 0.  0.
     999903    2    3    3    0    0 -0.64709860270E-01 -0.11122065362E+00  0.11040137834E-01  0.13054131296E+00  0.19019724945E-01 0.  0.
         14    1    1    2    0    0  0.92805071107E-02 -0.18752354806E-01 -0.71415410814E-02  0.22108374703E-01  0.00000000000E+00 0.  1.
     999901    1    3    3    0    0  0.55429353159E-01  0.12997300843E+00 -0.38985967524E-02  0.89128031234E+00  0.88000000000E+00 0.  1.
        -11    1    4    4    0    0 -0.41548394511E-01 -0.86751393709E-01  0.11244904232E-01  0.96844113859E-01  0.51100000000E-03 0. -1.
         11    1    4    4    0    0 -0.23161465759E-01 -0.24469259910E-01 -0.20476639818E-03  0.33697199096E-01  0.51100000000E-03 0.  1.
</event>
<event>
 8    1  0.1081309E+005  0.1043930E+01  0.7957747E-01            NaN
         13   -1    0    0    0    0  0.00000000000E+00  0.00000000000E+00  0.74505805969E-08  0.10566000000E+00  0.10566000000E+00 0.  1.
     999900   -1    0    0    0    0 -0.00000000000E+00 -0.00000000000E+00 -0.74505805969E-08  0.93827000000E+00  0.93827000000E+00 0.  1.
     999902    2    1    2    0    0  0.17413356546E-01  0.27562677294E-02  0.74563728200E-02  0.10247879130E+01  0.10246091192E+01 0.  0.
     999903    2    3    3    0    0 -0.71323627238E-01  0.72232064828E-01 -0.83606809064E-01  0.13293947200E+00  0.19449259665E-01 0.  0.
         14    1    1    2    0    0 -0.17413356546E-01 -0.27562677294E-02 -0.74563728200E-02  0.19142086971E-01  0.00000000000E+00 0. -1.
     999901    1    3    3    0    0  0.88736983784E-01 -0.69475797099E-01  0.91063181884E-01  0.89184844103E+00  0.88000000000E+00 0.  1.
        -11    1    4    4    0    0 -0.40589649761E-01  0.50121788850E-01 -0.43579189701E-01  0.77840351240E-01  0.51100000000E-03 0. -1.
         11    1    4    4    0    0 -0.30733977477E-01  0.22110275978E-01 -0.40027619363E-01  0.55099120758E-01  0.51100000000E-03 0.  1.
</event>
<event>
 8    1  0.1081309E+005  0.1043930E+01  0.7957747E-01            NaN
         13   -1    0    0    0    0  0.00000000000E+00  0.00000000000E+00  0.74505805969E-08  0.10566000000E+00  0.10566000000E+00 0. -1.
     999900   -1    0    0    0    0 -0.00000000000E+00 -0.00000000000E+00 -0.74505805969E-08  0.93827000000E+00  0.93827000000E+00 0. -1.
     999902    2    1    2    0    0  0.15723784520E-01 -0.10306627876E-01  0.89557495077E-02  0.10231052689E+01  0.10228933091E+01 0.  0.
     999903    2    3    3    0    0  0.77768007113E-01 -0.41094496776E-01 -0.98673075360E-01  0.13384639633E+00  0.21020499856E-01 0.  0.
         14    1    1    2    0    0 -0.15723784520E-01  0.10306627876E-01 -0.89557495077E-02  0.20824731140E-01  0.00000000000E+00 0.  1.
     999901    1    3    3    0    0 -0.62044222593E-01  0.30787868899E-01  0.10762882487E+00  0.88925887253E+00  0.88000000000E+00 0.  1.
        -11    1    4    4    0    0  0.67459162116E-01 -0.42685443630E-01 -0.84570367403E-01  0.11629786677E+00  0.51100000000E-03 0. -1.
         11    1    4    4    0    0  0.10308844997E-01  0.15909468548E-02 -0.14102707957E-01  0.17548529562E-01  0.51100000000E-03 0.  1.
</event>
<event>
 8    1  0.1081309E+005  0.1043930E+01  0.7957747E-01            NaN
         13   -1    0    0    0    0  0.00000000000E+00  0.00000000000E+00  0.74505805969E-08  0.10566000000E+00  0.10566000000E+00 0. -1.
     999900   -1    0    0    0    0 -0.00000000000E+00 -0.00000000000E+00 -0.74505805969E-08  0.93827000000E+00  0.93827000000E+00 0. -1.
     999902    2    1    2    0    0 -0.18686281610E-01  0.10648761709E-01  0.10574547465E-01  0.10199634754E+01  0.10196818606E+01 0.  0.
     999903    2    3    3    0    0 -0.36416373775E-01  0.94606220813E-01  0.83560899723E-01  0.13278242359E+00  0.19294008315E-01 0.  0.
         14    1    1    2    0    0  0.18686281610E-01 -0.10648761709E-01 -0.10574547465E-01  0.23966524580E-01  0.00000000000E+00 0. -1.
     999901    1    3    3    0    0  0.17730092165E-01 -0.83957459105E-01 -0.72986352258E-01  0.88718105183E+00  0.88000000000E+00 0.  1.
        -11    1    4    4    0    0 -0.34449611249E-01  0.66497809735E-01  0.57843711865E-01  0.94630283410E-01  0.51100000000E-03 0. -1.
         11    1    4    4    0    0 -0.19667625254E-02  0.28108411078E-01  0.25717187858E-01  0.38152140182E-01  0.51100000000E-03 0.  1.
</event>
<event>
 8    1  0.1081309E+005  0.1043930E+01  0.7957747E-01            NaN
         13   -1    0    0    0    0  0.00000000000E+00  0.00000000000E+00  0.74505805969E-08  0.10566000000E+00  0.10566000000E+00 0.  1.
     999900   -1    0    0    0    0 -0.00000000000E+00 -0.00000000000E+00 -0.74505805969E-08  0.93827000000E+00  0.93827000000E+00 0.  1.
     999902    2    1    2    0    0 -0.44044983273E-03 -0.12811691992E-01 -0.21305123655E-01  0.10190655325E+01  0.10187621498E+01 0.  0.
     999903    2    3    3    0    0 -0.77215837951E-01 -0.94809878014E-01 -0.44325652686E-01  0.13162646000E+00  0.20237660086E-01 0.  0.
         14    1    1    2    0    0  0.44044983273E-03  0.12811691992E-01  0.21305123655E-01  0.24864467453E-01  0.00000000000E+00 0.  1.
     999901    1    3    3    0    0  0.76775388119E-01  0.81998186022E-01  0.23020529031E-01  0.88743907255E+00  0.88000000000E+00 0.  1.
        -11    1    4    4    0    0 -0.41873091129E-01 -0.42918237305E-01 -0.30754979819E-01  0.67390361022E-01  0.51100000000E-03 0.  1.
         11    1    4    4    0    0 -0.35342746822E-01 -0.51891640710E-01 -0.13570672867E-01  0.64236098975E-01  0.51100000000E-03 0. -1.
</event>
<event>
 8    1  0.1081309E+005  0.1043930E+01  0.7957747E-01            NaN
         13   -1    0    0    0    0  0.00000000000E+00  0.00000000000E+00  0.74505805969E-08  0.10566000000E+00  0.10566000000E+00 0.  1.
     999900   -1    0    0    0    0 -0.00000000000E+00 -0.00000000000E+00 -0.74505805969E-08  0.93827000000E+00  0.93827000000E+00 0. -1.
     999902    2    1    2    0    0  0.86739992707E-02  0.12859537851E-01 -0.16659061465E-01  0.10211675242E+01  0.10209137976E+01 0.  0.
     999903    2    3    3    0    0  0.30076677472E-01 -0.11843993155E+00  0.37759794352E-01  0.12950669338E+00  0.20336116790E-01 0.  0.
         14    1    1    2    0    0 -0.86739992707E-02 -0.12859537851E-01  0.16659061465E-01  0.22762475831E-01  0.00000000000E+00 0.  1.
     999901    1    3    3    0    0 -0.21402678201E-01  0.13129946940E+00 -0.54418855817E-01  0.89166083079E+00  0.88000000000E+00 0. -1.
        -11    1    4    4    0    0  0.14224589775E-01 -0.82882845659E-01  0.32765086515E-01  0.90253626377E-01  0.51100000000E-03 0.  1.
         11    1    4    4    0    0  0.15852087696E-01 -0.35557085893E-01  0.49947078370E-02  0.39253067000E-01  0.51100000000E-03 0. -1.
</event>
<event>
 8    1  0.1081309E+005  0.1043930E+01  0.7957747E-01            NaN
         13   -1    0    0    0    0  0.00000000000E+00  0.00000000000E+00  0.74505805969E-08  0.10566000000E+00  0.10566000000E+00 0.  1.
     999900   -1    0    0    0    0 -0.00000000000E+00 -0.00000000000E+00 -0.74505805969E-08  0.93827000000E+00  0.93827000000E+00 0. -1.
     999902    2    1    2    0    0  0.84112700294E-02  0.13830412891E-01  0.17124139798E-01  0.10203659183E+01  0.10200937904E+01 0.  0.
     999903    2    3    3    0    0 -0.16403163060E-01  0.83655513333E-01 -0.96231567027E-01  0.13000598149E+00  0.19332150979E-01 0.  0.
         14    1    1    2    0    0 -0.84112700294E-02 -0.13830412891E-01 -0.17124139798E-01  0.23564081736E-01  0.00000000000E+00 0. -1.
     999901    1    3    3    0    0  0.24814433089E-01 -0.69825100441E-01  0.11335570683E+00  0.89035993677E+00  0.88000000000E+00 0.  1.
        -11    1    4    4    0    0  0.56400045868E-03  0.44638114721E-01 -0.44674646771E-01  0.63158250193E-01  0.51100000000E-03 0.  1.
         11    1    4    4    0    0 -0.16967163519E-01  0.39017398612E-01 -0.51556920257E-01  0.66847731298E-01  0.51100000000E-03 0. -1.
</event>
<event>
 8    1  0.1081309E+005  0.1043930E+01  0.7957747E-01            NaN
         13   -1    0    0    0    0  0.00000000000E+00  0.00000000000E+00  0.74505805969E-08  0.10566000000E+00  0.10566000000E+00 0.  1.
     999900   -1    0    0    0    0 -0.00000000000E+00 -0.00000000000E+00 -0.74505805969E-08  0.93827000000E+00  0.93827000000E+00 0.  1.
     999902    2    1    2    0    0 -0.21747359267E-01 -0.89605901417E-02 -0.65923771014E-02  0.10195025718E+01  0.10192098875E+01 0.  0.
     999903    2    3    3    0    0  0.51691574731E-01  0.10842089454E+00 -0.39727425478E-01  0.12806013320E+00  0.19849939798E-01 0.  0.
         14    1    1    2    0    0  0.21747359267E-01  0.89605901417E-02  0.65923771014E-02  0.24427428162E-01  0.00000000000E+00 0.  1.
     999901    1    3    3    0    0 -0.73438933998E-01 -0.11738148468E+00  0.33135048376E-01  0.89144243864E+00  0.88000000000E+00 0. -1.
        -11    1    4    4    0    0  0.28121329032E-01  0.79496266483E-01 -0.25117749639E-01  0.87986521691E-01  0.51100000000E-03 0. -1.
         11    1    4    4    0    0  0.23570245699E-01  0.28924628054E-01 -0.14609675838E-01  0.40073611510E-01  0.51100000000E-03 0.  1.
</event>
<event>
 8    1  0.1081309E+005  0.1043930E+01  0.7957747E-01            NaN
         13   -1    0    0    0    0  0.00000000000E+00  0.00000000000E+00  0.74505805969E-08  0.10566000000E+00  0.10566000000E+00 0. -1.
     999900   -1    0    0    0    0 -0.00000000000E+00 -0.00000000000E+00 -0.74505805969E-08  0.93827000000E+00  0.93827000000E+00 0.  1.
     999902    2    1    2    0    0  0.14497441907E-02 -0.33641622905E-02  0.23610615630E-01  0.10200368940E+01  0.10197570223E+01 0.  0.
     999903    2    3    3    0    0 -0.39934516733E-01  0.10533734251E+00 -0.53068912281E-01  0.12907762205E+00  0.33970600638E-01 0.  0.
         14    1    1    2    0    0 -0.14497441907E-02  0.33641622905E-02 -0.23610615630E-01  0.23893106047E-01  0.00000000000E+00 0.  1.
     999901    1    3    3    0    0  0.41384260924E-01 -0.10870150480E+00  0.76679527911E-01  0.89095927191E+00  0.88000000000E+00 0. -1.
        -11    1    4    4    0    0 -0.17282925034E-01  0.86398041732E-01 -0.38663532100E-01  0.96220844666E-01  0.51100000000E-03 0.  1.
         11    1    4    4    0    0 -0.22651591699E-01  0.18939300781E-01 -0.14405380181E-01  0.32856777379E-01  0.51100000000E-03 0. -1.
</event>
<event>
 8    1  0.1081309E+005  0.1043930E+01  0.7957747E-01            NaN
         13   -1    0    0    0    0  0.00000000000E+00  0.00000000000E+00  0.74505805969E-08  0.10566000000E+00  0.10566000000E+00 0. -1.
     999900   -1    0    0    0    0 -0.00000000000E+00 -0.00000000000E+00 -0.74505805969E-08  0.93827000000E+00  0.93827000000E+00 0. -1.
     999902    2    1    2    0    0  0.20996073052E-01 -0.78585039852E-02 -0.67239494731E-02  0.10205248154E+01  0.10202563875E+01 0.  0.
     999903    2    3    3    0    0  0.38011757890E-01  0.81941047397E-01  0.91913535765E-01  0.13030975913E+00  0.19321135616E-01 0.  0.
         14    1    1    2    0    0 -0.20996073052E-01  0.78585039852E-02  0.67239494731E-02  0.23405184575E-01  0.00000000000E+00 0. -1.
     999901    1    3    3    0    0 -0.17015684838E-01 -0.89799551382E-01 -0.98637485238E-01  0.89021505629E+00  0.88000000000E+00 0. -1.
        -11    1    4    4    0    0  0.33008896260E-01  0.60504398576E-01  0.59100335931E-01  0.90793613804E-01  0.51100000000E-03 0.  1.
         11    1    4    4    0    0  0.50028616292E-02  0.21436648821E-01  0.32813199834E-01  0.39516145326E-01  0.51100000000E-03 0. -1.
</event>
<event>
 8    1  0.1081309E+005  0.1043930E+01  0.7957747E-01            NaN
         13   -1    0    0    0    0  0.00000000000E+00  0.00000000000E+00  0.74505805969E-08  0.10566000000E+00  0.10566000000E+00 0. -1.
     999900   -1    0    0    0    0 -0.00000000000E+00 -0.00000000000E+00 -0.74505805969E-08  0.93827000000E+00  0.93827000000E+00 0.  1.
     999902    2    1    2    0    0 -0.18044645978E-01 -0.23788216843E-02  0.12586477124E-01  0.10218011173E+01  0.10215614695E+01 0.  0.
     999903    2    3    3    0    0  0.28349206133E-01 -0.17565490590E-02 -0.12518948483E+00  0.12987343394E+00  0.19696161494E-01 0.  0.
         14    1    1    2    0    0  0.18044645978E-01  0.23788216843E-02 -0.12586477124E-01  0.22128882653E-01  0.00000000000E+00 0.  1.
     999901    1    3    3    0    0 -0.46393852111E-01 -0.62227262538E-03  0.13777596196E+00  0.89192768341E+00  0.88000000000E+00 0. -1.
        -11    1    4    4    0    0  0.22001630336E-01 -0.92228050933E-02 -0.10075422479E+00  0.10354132897E+00  0.51100000000E-03 0.  1.
         11    1    4    4    0    0  0.63475757971E-02  0.74662560344E-02 -0.24435260041E-01  0.26332104966E-01  0.51100000000E-03 0. -1.
</event>
<event>
 8    1  0.1081309E+005  0.1043930E+01  0.7957747E-01            NaN
         13   -1    0    0    0    0  0.00000000000E+00  0.00000000000E+00  0.74505805969E-08  0.10566000000E+00  0.10566000000E+00 0. -1.
     999900   -1    0    0    0    0 -0.00000000000E+00 -0.00000000000E+00 -0.74505805969E-08  0.93827000000E+00  0.93827000000E+00 0.  1.
     999902    2    1    2    0    0 -0.17020659109E-01 -0.16518760458E-01  0.47877337789E-02  0.10197330027E+01  0.10194458799E+01 0.  0.
     999903    2    3    3    0    0 -0.10365473309E+00 -0.73823593427E-01  0.34590981092E-01  0.13312286278E+00  0.18191591050E-01 0.  0.
         14    1    1    2    0    0  0.17020659109E-01  0.16518760458E-01 -0.47877337789E-02  0.24196997300E-01  0.00000000000E+00 0.  1.
     999901    1    3    3    0    0  0.86634073977E-01  0.57304832968E-01 -0.29803247313E-01  0.88661013992E+00  0.88000000000E+00 0.  1.
        -11    1    4    4    0    0 -0.42352212959E-01 -0.20739526089E-01  0.83845782065E-02  0.47899897261E-01  0.51100000000E-03 0.  1.
         11    1    4    4    0    0 -0.61302520126E-01 -0.53084067338E-01  0.26206402886E-01  0.85222965521E-01  0.51100000000E-03 0. -1.
</event>
<event>
 8    1  0.1081309E+005  0.1043930E+01  0.7957747E-01            NaN
         13   -1    0    0    0    0  0.00000000000E+00  0.00000000000E+00  0.74505805969E-08  0.10566000000E+00  0.10566000000E+00 0. -1.
     999900   -1    0    0    0    0 -0.00000000000E+00 -0.00000000000E+00 -0.74505805969E-08  0.93827000000E+00  0.93827000000E+00 0. -1.
     999902    2    1    2    0    0  0.26230042184E-01 -0.75622544496E-02  0.27996586537E-02  0.10164884094E+01  0.10161179290E+01 0.  0.
     999903    2    3    3    0    0 -0.10189582077E+00  0.66909460480E-01 -0.10838079513E-01  0.12399288506E+00  0.19928306146E-01 0.  0.
         14    1    1    2    0    0 -0.26230042184E-01  0.75622544496E-02 -0.27996586537E-02  0.27441590586E-01  0.00000000000E+00 0. -1.
     999901    1    3    3    0    0  0.12812586296E+00 -0.74471714930E-01  0.13637738166E-01  0.89249552435E+00  0.88000000000E+00 0. -1.
        -11    1    4    4    0    0 -0.89871497690E-01  0.51689942927E-01 -0.12916270255E-01  0.10447883736E+00  0.51100000000E-03 0.  1.
         11    1    4    4    0    0 -0.12024323084E-01  0.15219517553E-01  0.20781907425E-02  0.19514047708E-01  0.51100000000E-03 0. -1.
</event>
<event>
 8    1  0.1081309E+005  0.1043930E+01  0.7957747E-01            NaN
         13   -1    0    0    0    0  0.00000000000E+00  0.00000000000E+00  0.74505805969E-08  0.10566000000E+00  0.10566000000E+00 0. -1.
     999900   -1    0    0    0    0 -0.00000000000E+00 -0.00000000000E+00 -0.74505805969E-08  0.93827000000E+00  0.93827000000E+00 0.  1.
     999902    2    1    2    0    0  0.53747140000E-02  0.15888922146E-01 -0.18038059505E-01  0.10192983742E+01  0.10190007158E+01 0.  0.
     999903    2    3    3    0    0  0.32554461463E-01 -0.41095859619E-01  0.11419156389E+00  0.12718253123E+00  0.19672832744E-01 0.  0.
         14    1    1    2    0    0 -0.53747140000E-02 -0.15888922146E-01  0.18038059505E-01  0.24631625774E-01  0.00000000000E+00 0. -1.
     999901    1    3    3    0    0 -0.27179747463E-01  0.56984781766E-01 -0.13222962339E+00  0.89211584300E+00  0.88000000000E+00 0.  1.
        -11    1    4    4    0    0  0.51580256553E-02 -0.19663770269E-01  0.53404939416E-01  0.57145583949E-01  0.51100000000E-03 0.  1.
         11    1    4    4    0    0  0.27396435807E-01 -0.21432089351E-01  0.60786624469E-01  0.70036947279E-01  0.51100000000E-03 0. -1.
</event>
<event>
 8    1  0.1081309E+005  0.1043930E+01  0.7957747E-01            NaN
         13   -1    0    0    0    0  0.00000000000E+00  0.00000000000E+00  0.74505805969E-08  0.10566000000E+00  0.10566000000E+00 0. -1.
     999900   -1    0    0    0    0 -0.00000000000E+00 -0.00000000000E+00 -0.74505805969E-08  0.93827000000E+00  0.93827000000E+00 0. -1.
     999902    2    1    2    0    0  0.11098681455E-01  0.61666945021E-02 -0.20190486145E-01  0.10200791178E+01  0.10198002461E+01 0.  0.
     999903    2    3    3    0    0 -0.94908279821E-01 -0.77339661493E-01  0.32715693358E-01  0.12822158929E+00  0.19530861444E-01 0.  0.
         14    1    1    2    0    0 -0.11098681455E-01 -0.61666945021E-02  0.20190486145E-01  0.23850882204E-01  0.00000000000E+00 0. -1.
     999901    1    3    3    0    0  0.10600696128E+00  0.83506355995E-01 -0.52906179503E-01  0.89185752851E+00  0.88000000000E+00 0. -1.
        -11    1    4    4    0    0 -0.57011524572E-01 -0.34465729808E-01  0.20542959454E-01  0.69717105286E-01  0.51100000000E-03 0.  1.
         11    1    4    4    0    0 -0.37896755249E-01 -0.42873931684E-01  0.12172733904E-01  0.58504484001E-01  0.51100000000E-03 0. -1.
</event>
<event>
 8    1  0.1081309E+005  0.1043930E+01  0.7957747E-01            NaN
         13   -1    0    0    0    0  0.00000000000E+00  0.00000000000E+00  0.74505805969E-08  0.10566000000E+00  0.10566000000E+00 0.  1.
     999900   -1    0    0    0    0 -0.00000000000E+00 -0.00000000000E+00 -0.74505805969E-08  0.93827000000E+00  0.93827000000E+00 0. -1.
     999902    2    1    2    0    0 -0.73794948732E-03 -0.18494964611E-01 -0.15206186090E-01  0.10199751178E+01  0.10196937798E+01 0.  0.
     999903    2    3    3    0    0 -0.59016438944E-01 -0.57748316447E-01 -0.10220528976E+00  0.13289786525E+00  0.19952774648E-01 0.  0.
         14    1    1    2    0    0  0.73794948732E-03  0.18494964611E-01  0.15206186090E-01  0.23954882191E-01  0.00000000000E+00 0.  1.
     999901    1    3    3    0    0  0.58278489456E-01  0.39253351836E-01  0.86999103668E-01  0.88707725256E+00  0.88000000000E+00 0.  1.
        -11    1    4    4    0    0 -0.21327416726E-01 -0.85900453353E-02 -0.28165261923E-01  0.36361940037E-01  0.51100000000E-03 0. -1.
         11    1    4    4    0    0 -0.37689022217E-01 -0.49158271111E-01 -0.74040027835E-01  0.96535925215E-01  0.51100000000E-03 0.  1.
</event>
<event>
 8    1  0.1081309E+005  0.1043930E+01  0.7957747E-01            NaN
         13   -1    0    0    0    0  0.00000000000E+00  0.00000000000E+00  0.74505805969E-08  0.10566000000E+00  0.10566000000E+00 0. -1.
     999900   -1    0    0    0    0 -0.00000000000E+00 -0.00000000000E+00 -0.74505805969E-08  0.93827000000E+00  0.93827000000E+00 0.  1.
     999902    2    1    2    0    0 -0.12709793463E-01  0.12341071646E-01 -0.15948907022E-01  0.10200928749E+01  0.10198143286E+01 0.  0.
     999903    2    3    3    0    0  0.59466177416E-01 -0.46370670846E-01  0.10081797901E+00  0.12751741859E+00  0.20247512973E-01 0.  0.
         14    1    1    2    0    0  0.12709793463E-01 -0.12341071646E-01  0.15948907022E-01  0.23837125129E-01  0.00000000000E+00 0. -1.
     999901    1    3    3    0    0 -0.72175970879E-01  0.58711742492E-01 -0.11676688603E+00  0.89257545628E+00  0.88000000000E+00 0.  1.
        -11    1    4    4    0    0  0.39295887087E-01 -0.28751042255E-01  0.48422914217E-01  0.68671893194E-01  0.51100000000E-03 0.  1.
         11    1    4    4    0    0  0.20170290329E-01 -0.17619628591E-01  0.52395064792E-01  0.58845525397E-01  0.51100000000E-03 0. -1.
</event>
<event>
 7    1  0.1081309E+005  0.1043930E+01  0.7957747E-01            NaN
         13   -1    0    0    0    0  0.00000000000E+00  0.00000000000E+00  0.74505805969E-08  0.10566000000E+00  0.10566000000E+00 0. -1.
     999900   -1    0    0    0    0 -0.00000000000E+00 -0.00000000000E+00 -0.74505805969E-08  0.93827000000E+00  0.93827000000E+00 0. -1.
     999903    2    1    2    0    0  0.59568447600E-01 -0.40321501945E-01 -0.77283196416E-02  0.74517921746E-01  0.17859738750E-01 0.  0.
         14    1    1    2    0    0 -0.76579016674E-01 -0.10581324364E-02 -0.41111371583E-01  0.86923013710E-01  0.00000000000E+00 0.  1.
     999901    1    1    2    0    0  0.17010569074E-01  0.41379634381E-01  0.48839691224E-01  0.88248906454E+00  0.88000000000E+00 0.  1.
        -11    1    3    3    0    0  0.13453505194E-01 -0.30766859999E-02 -0.64066764408E-02  0.15223975261E-01  0.51100000000E-03 0. -1.
         11    1    3    3    0    0  0.46114942406E-01 -0.37244815945E-01 -0.13216432008E-02  0.59293946484E-01  0.51100000000E-03 0.  1.
</event>
<event>
 8    1  0.1081309E+005  0.1043930E+01  0.7957747E-01            NaN
         13   -1    0    0    0    0  0.00000000000E+00  0.00000000000E+00  0.74505805969E-08  0.10566000000E+00  0.10566000000E+00 0. -1.
     999900   -1    0    0    0    0 -0.00000000000E+00 -0.00000000000E+00 -0.74505805969E-08  0.93827000000E+00  0.93827000000E+00 0. -1.
     999902    2    1    2    0    0  0.46734864873E-02 -0.22747033742E-01 -0.38131017201E-02  0.10203968582E+01  0.10201254528E+01 0.  0.
     999903    2    3    3    0    0 -0.26105860872E-01 -0.10781290883E+00 -0.71314037372E-01  0.13318778041E+00  0.18658875726E-01 0.  0.
         14    1    1    2    0    0 -0.46734864873E-02  0.22747033742E-01  0.38131017201E-02  0.23533141837E-01  0.00000000000E+00 0.  1.
     999901    1    3    3    0    0  0.30779347360E-01  0.85065875085E-01  0.67500935652E-01  0.88720907775E+00  0.88000000000E+00 0. -1.
        -11    1    4    4    0    0 -0.23396488329E-02 -0.18670814127E-01 -0.47199509828E-02  0.19406501877E-01  0.51100000000E-03 0. -1.
         11    1    4    4    0    0 -0.23766212040E-01 -0.89142094700E-01 -0.66594086389E-01  0.11378127854E+00  0.51100000000E-03 0.  1.
</event>
<event>
 8    1  0.1081309E+005  0.1043930E+01  0.7957747E-01            NaN
         13   -1    0    0    0    0  0.00000000000E+00  0.00000000000E+00  0.74505805969E-08  0.10566000000E+00  0.10566000000E+00 0. -1.
     999900   -1    0    0    0    0 -0.00000000000E+00 -0.00000000000E+00 -0.74505805969E-08  0.93827000000E+00  0.93827000000E+00 0.  1.
     999902    2    1    2    0    0 -0.18547728817E-01 -0.34496118372E-02  0.16483302260E-01  0.10188777083E+01  0.10185696673E+01 0.  0.
     999903    2    3    3    0    0  0.39545141041E-01 -0.16433868214E-01  0.12180750499E+00  0.13060040918E+00  0.19634367928E-01 0.  0.
         14    1    1    2    0    0  0.18547728817E-01  0.34496118372E-02 -0.16483302260E-01  0.25052291702E-01  0.00000000000E+00 0. -1.
     999901    1    3    3    0    0 -0.58092869858E-01  0.12984256377E-01 -0.10532420272E+00  0.88827729911E+00  0.88000000000E+00 0.  1.
        -11    1    4    4    0    0  0.24980792132E-01 -0.18268233319E-02  0.50579665612E-01  0.56444140116E-01  0.51100000000E-03 0.  1.
         11    1    4    4    0    0  0.14564348909E-01 -0.14607044882E-01  0.71227839374E-01  0.74156269069E-01  0.51100000000E-03 0. -1.
</event>
<event>
 8    1  0.1081309E+005  0.1043930E+01  0.7957747E-01            NaN
         13   -1    0    0    0    0  0.00000000000E+00  0.00000000000E+00  0.74505805969E-08  0.10566000000E+00  0.10566000000E+00 0.  1.
     999900   -1    0    0    0    0 -0.00000000000E+00 -0.00000000000E+00 -0.74505805969E-08  0.93827000000E+00  0.93827000000E+00 0.  1.
     999902    2    1    2    0    0  0.22004863737E-01 -0.50911990709E-02  0.44217284633E-02  0.10209150914E+01  0.10206556411E+01 0.  0.
     999903    2    3    3    0    0  0.10152958305E+00  0.31080341372E-01 -0.77364353263E-01  0.13281513953E+00  0.19503186376E-01 0.  0.
         14    1    1    2    0    0 -0.22004863737E-01  0.50911990709E-02 -0.44217284633E-02  0.23014908618E-01  0.00000000000E+00 0.  1.
     999901    1    3    3    0    0 -0.79524719309E-01 -0.36171540443E-01  0.81786081726E-01  0.88809995185E+00  0.88000000000E+00 0. -1.
        -11    1    4    4    0    0  0.37885206683E-01  0.20991370824E-01 -0.35093459565E-01  0.55747094630E-01  0.51100000000E-03 0. -1.
         11    1    4    4    0    0  0.63644376363E-01  0.10088970548E-01 -0.42270893698E-01  0.77068044898E-01  0.51100000000E-03 0.  1.
</event>
<event>
 8    1  0.1081309E+005  0.1043930E+01  0.7957747E-01            NaN
         13   -1    0    0    0    0  0.00000000000E+00  0.00000000000E+00  0.74505805969E-08  0.10566000000E+00  0.10566000000E+00 0. -1.
     999900   -1    0    0    0    0 -0.00000000000E+00 -0.00000000000E+00 -0.74505805969E-08  0.93827000000E+00  0.93827000000E+00 0.  1.
     999902    2    1    2    0    0  0.96995886666E-02 -0.20754483027E-01 -0.44475682649E-02  0.10205930883E+01  0.10203262421E+01 0.  0.
     999903    2    3    3    0    0  0.72830811089E-01  0.17129236154E-01  0.10534496520E+00  0.13071942991E+00  0.19805804384E-01 0.  0.
         14    1    1    2    0    0 -0.96995886666E-02  0.20754483027E-01  0.44475682649E-02  0.23336911738E-01  0.00000000000E+00 0. -1.
     999901    1    3    3    0    0 -0.63131222422E-01 -0.37883719181E-01 -0.10979253347E+00  0.88987365835E+00  0.88000000000E+00 0.  1.
        -11    1    4    4    0    0  0.45414436088E-01  0.16260918185E-01  0.79714704442E-01  0.93175016451E-01  0.51100000000E-03 0.  1.
         11    1    4    4    0    0  0.27416375001E-01  0.86831796989E-03  0.25630260761E-01  0.37544413459E-01  0.51100000000E-03 0. -1.
</event>
<event>
 7    1  0.1081309E+005  0.1043930E+01  0.7957747E-01            NaN
         13   -1    0    0    0    0  0.00000000000E+00  0.00000000000E+00  0.74505805969E-08  0.10566000000E+00  0.10566000000E+00 0. -1.
     999900   -1    0    0    0    0 -0.00000000000E+00 -0.00000000000E+00 -0.74505805969E-08  0.93827000000E+00  0.93827000000E+00 0. -1.
     999903    2    1    2    0    0 -0.90857622560E-01  0.10512441881E-01 -0.59835765116E-01  0.11120553531E+00  0.20511784025E-01 0.  0.
         14    1    1    2    0    0 -0.15100766761E-01 -0.27368571788E-01 -0.27872146606E-01  0.41879928784E-01  0.00000000000E+00 0.  1.
     999901    1    1    2    0    0  0.10595838932E+00  0.16856129906E-01  0.87707911723E-01  0.89084453591E+00  0.88000000000E+00 0.  1.
        -11    1    3    3    0    0 -0.29452357196E-02 -0.35844417235E-02 -0.36246941854E-02  0.59094978510E-02  0.51100000000E-03 0. -1.
         11    1    3    3    0    0 -0.87912386841E-01  0.14096883605E-01 -0.56211070931E-01  0.10529603745E+00  0.51100000000E-03 0.  1.
</event>
<event>
 8    1  0.1081309E+005  0.1043930E+01  0.7957747E-01            NaN
         13   -1    0    0    0    0  0.00000000000E+00  0.00000000000E+00  0.74505805969E-08  0.10566000000E+00  0.10566000000E+00 0. -1.
     999900   -1    0    0    0    0 -0.00000000000E+00 -0.00000000000E+00 -0.74505805969E-08  0.93827000000E+00  0.93827000000E+00 0.  1.
     999902    2    1    2    0    0 -0.14505827341E-01 -0.18838037682E-01 -0.37812761202E-02  0.10198553507E+01  0.10195711587E+01 0.  0.
     999903    2    3    3    0    0 -0.49420442208E-01  0.61949371663E-01  0.10036617206E+00  0.12935418460E+00  0.19468739585E-01 0.  0.
         14    1    1    2    0    0  0.14505827341E-01  0.18838037682E-01  0.37812761202E-02  0.24074649315E-01  0.00000000000E+00 0. -1.
     999901    1    3    3    0    0  0.34914614867E-01 -0.80787409345E-01 -0.10414744818E+00  0.89050116609E+00  0.88000000000E+00 0.  1.
        -11    1    4    4    0    0 -0.15621784786E-01  0.19360592984E-01  0.18206494345E-01  0.30831968441E-01  0.51100000000E-03 0.  1.
         11    1    4    4    0    0 -0.33798657422E-01  0.42588778679E-01  0.82159677716E-01  0.98522216156E-01  0.51100000000E-03 0. -1.
</event>
<event>
 8    1  0.1081309E+005  0.1043930E+01  0.7957747E-01            NaN
         13   -1    0    0    0    0  0.00000000000E+00  0.00000000000E+00  0.74505805969E-08  0.10566000000E+00  0.10566000000E+00 0.  1.
     999900   -1    0    0    0    0 -0.00000000000E+00 -0.00000000000E+00 -0.74505805969E-08  0.93827000000E+00  0.93827000000E+00 0. -1.
     999902    2    1    2    0    0 -0.10218036942E-01 -0.17714731911E-01 -0.11347272483E-01  0.10205423837E+01  0.10202743632E+01 0.  0.
     999903    2    3    3    0    0  0.53296532788E-01  0.75528961869E-02  0.11517084088E+00  0.12887014196E+00  0.21109814118E-01 0.  0.
         14    1    1    2    0    0  0.10218036942E-01  0.17714731911E-01  0.11347272483E-01  0.23387616348E-01  0.00000000000E+00 0. -1.
     999901    1    3    3    0    0 -0.63514569730E-01 -0.25267628098E-01 -0.12651811336E+00  0.89167224169E+00  0.88000000000E+00 0.  1.
        -11    1    4    4    0    0  0.61511035025E-02  0.85858419043E-02  0.23933378965E-01  0.26165253777E-01  0.51100000000E-03 0.  1.
         11    1    4    4    0    0  0.47145429285E-01 -0.10329457174E-02  0.91237461912E-01  0.10270488818E+00  0.51100000000E-03 0. -1.
</event>
<event>
 8    1  0.1081309E+005  0.1043930E+01  0.7957747E-01            NaN
         13   -1    0    0    0    0  0.00000000000E+00  0.00000000000E+00  0.74505805969E-08  0.10566000000E+00  0.10566000000E+00 0.  1.
     999900   -1    0    0    0    0 -0.00000000000E+00 -0.00000000000E+00 -0.74505805969E-08  0.93827000000E+00  0.93827000000E+00 0. -1.
     999902    2    1    2    0    0 -0.84645545522E-02  0.13457307394E-01  0.17062824949E-01  0.10206085978E+01  0.10203421103E+01 0.  0.
     999903    2    3    3    0    0 -0.76854964686E-01  0.36931192837E-01 -0.96191362427E-01  0.13040930411E+00  0.21982033401E-01 0.  0.
         14    1    1    2    0    0  0.84645545522E-02 -0.13457307394E-01 -0.17062824949E-01  0.23321402215E-01  0.00000000000E+00 0. -1.
     999901    1    3    3    0    0  0.68390410134E-01 -0.23473885443E-01  0.11325418738E+00  0.89019929367E+00  0.88000000000E+00 0.  1.
        -11    1    4    4    0    0 -0.52895306904E-01  0.13810949980E-01 -0.62535890199E-01  0.83064159032E-01  0.51100000000E-03 0.  1.
         11    1    4    4    0    0 -0.23959657782E-01  0.23120242857E-01 -0.33655472228E-01  0.47345145081E-01  0.51100000000E-03 0. -1.
</event>
<event>
 8    1  0.1081309E+005  0.1043930E+01  0.7957747E-01            NaN
         13   -1    0    0    0    0  0.00000000000E+00  0.00000000000E+00  0.74505805969E-08  0.10566000000E+00  0.10566000000E+00 0.  1.
     999900   -1    0    0    0    0 -0.00000000000E+00 -0.00000000000E+00 -0.74505805969E-08  0.93827000000E+00  0.93827000000E+00 0. -1.
     999902    2    1    2    0    0  0.11670427490E-01  0.13844125282E-01 -0.17117787397E-01  0.10190125899E+01  0.10187078978E+01 0.  0.
     999903    2    3    3    0    0  0.10833714566E+00 -0.48172822199E-01  0.47390800593E-01  0.12920816523E+00  0.19781406703E-01 0.  0.
         14    1    1    2    0    0 -0.11670427490E-01 -0.13844125282E-01  0.17117787397E-01  0.24917410138E-01  0.00000000000E+00 0.  1.
     999901    1    3    3    0    0 -0.96666718173E-01  0.62016947481E-01 -0.64508587989E-01  0.88980442464E+00  0.88000000000E+00 0. -1.
        -11    1    4    4    0    0  0.43656492811E-01 -0.15488600757E-01  0.28219861230E-01  0.54243965626E-01  0.51100000000E-03 0.  1.
         11    1    4    4    0    0  0.64680652853E-01 -0.32684221441E-01  0.19170939363E-01  0.74964199600E-01  0.51100000000E-03 0. -1.
</event>
<event>
 8    1  0.1081309E+005  0.1043930E+01  0.7957747E-01            NaN
         13   -1    0    0    0    0  0.00000000000E+00  0.00000000000E+00  0.74505805969E-08  0.10566000000E+00  0.10566000000E+00 0.  1.
     999900   -1    0    0    0    0 -0.00000000000E+00 -0.00000000000E+00 -0.74505805969E-08  0.93827000000E+00  0.93827000000E+00 0.  1.
     999902    2    1    2    0    0 -0.25213818940E-02 -0.12127194814E-01  0.19644861532E-01  0.10207061587E+01  0.10204419217E+01 0.  0.
     999903    2    3    3    0    0 -0.80623745203E-01 -0.10027174396E+00  0.26221516696E-01  0.13283640862E+00  0.20083141875E-01 0.  0.
         14    1    1    2    0    0  0.25213818940E-02  0.12127194814E-01 -0.19644861532E-01  0.23223841313E-01  0.00000000000E+00 0. -1.
     999901    1    3    3    0    0  0.78102363309E-01  0.88144549151E-01 -0.65766551632E-02  0.88786975007E+00  0.88000000000E+00 0.  1.
        -11    1    4    4    0    0 -0.27231192353E-01 -0.19951506908E-01  0.60078604986E-02  0.34292214476E-01  0.51100000000E-03 0. -1.
         11    1    4    4    0    0 -0.53392552850E-01 -0.80320237057E-01  0.20213656197E-01  0.98544194139E-01  0.51100000000E-03 0.  1.
</event>
<event>
 8    1  0.1081309E+005  0.1043930E+01  0.7957747E-01            NaN
         13   -1    0    0    0    0  0.00000000000E+00  0.00000000000E+00  0.74505805969E-08  0.10566000000E+00  0.10566000000E+00 0.  1.
     999900   -1    0    0    0    0 -0.00000000000E+00 -0.00000000000E+00 -0.74505805969E-08  0.93827000000E+00  0.93827000000E+00 0.  1.
     999902    2    1    2    0    0 -0.18888265582E-01 -0.13597347837E-01 -0.18012153061E-02  0.10205869320E+01  0.10203199435E+01 0.  0.
     999903    2    3    3    0    0  0.94601178448E-01 -0.51545062073E-01  0.69174402504E-01  0.12965628309E+00  0.20478705908E-01 0.  0.
         14    1    1    2    0    0  0.18888265582E-01  0.13597347837E-01  0.18012153061E-02  0.23343067953E-01  0.00000000000E+00 0.  1.
     999901    1    3    3    0    0 -0.11348944403E+00  0.37947714236E-01 -0.70975617810E-01  0.89093064895E+00  0.88000000000E+00 0. -1.
        -11    1    4    4    0    0  0.57066003256E-01 -0.30260716325E-01  0.53057600213E-01  0.83591923901E-01  0.51100000000E-03 0.  1.
         11    1    4    4    0    0  0.37535175192E-01 -0.21284345748E-01  0.16116802291E-01  0.46064359192E-01  0.51100000000E-03 0. -1.
</event>
<event>
 8    1  0.1081309E+005  0.1043930E+01  0.7957747E-01            NaN
         13   -1    0    0    0    0  0.00000000000E+00  0.00000000000E+00  0.74505805969E-08  0.10566000000E+00  0.10566000000E+00 0. -1.
     999900   -1    0    0    0    0 -0.00000000000E+00 -0.00000000000E+00 -0.74505805969E-08  0.93827000000E+00  0.93827000000E+00 0. -1.
     999902    2    1    2    0    0 -0.21644360477E-01 -0.98529241382E-02  0.40399104100E-02  0.10198078249E+01  0.10195224963E+01 0.  0.
     999903    2    3    3    0    0  0.81635835316E-01  0.94154651622E-01 -0.17256389143E-01  0.12743015429E+00  0.20276913646E-01 0.  0.
         14    1    1    2    0    0  0.21644360477E-01  0.98529241382E-02 -0.40399104100E-02  0.24122175081E-01  0.00000000000E+00 0.  1.
     999901    1    3    3    0    0 -0.10328019579E+00 -0.10400757576E+00  0.21296299553E-01  0.89237767063E+00  0.88000000000E+00 0.  1.
        -11    1    4    4    0    0  0.63993298075E-01  0.84844236275E-01 -0.15510069220E-01  0.10739883610E+00  0.51100000000E-03 0.  1.
         11    1    4    4    0    0  0.17642537241E-01  0.93104153467E-02 -0.17463199231E-02  0.20031318192E-01  0.51100000000E-03 0. -1.
</event>
<event>
 8    1  0.1081309E+005  0.1043930E+01  0.7957747E-01            NaN
         13   -1    0    0    0    0  0.00000000000E+00  0.00000000000E+00  0.74505805969E-08  0.10566000000E+00  0.10566000000E+00 0.  1.
     999900   -1    0    0    0    0 -0.00000000000E+00 -0.00000000000E+00 -0.74505805969E-08  0.93827000000E+00  0.93827000000E+00 0. -1.
     999902    2    1    2    0    0 -0.79150204642E-02 -0.24558723943E-01  0.10399748514E-02  0.10181063671E+01  0.10177788142E+01 0.  0.
     999903    2    3    3    0    0 -0.74610585362E-01 -0.61160694005E-01 -0.85680857978E-01  0.13057692786E+00  0.20043820174E-01 0.  0.
         14    1    1    2    0    0  0.79150204642E-02  0.24558723943E-01 -0.10399748514E-02  0.25823632942E-01  0.00000000000E+00 0. -1.
     999901    1    3    3    0    0  0.66695564898E-01  0.36601970062E-01  0.86720832829E-01  0.88752943919E+00  0.88000000000E+00 0.  1.
        -11    1    4    4    0    0 -0.21819817224E-01 -0.30349311013E-01 -0.33969861621E-01  0.50511362308E-01  0.51100000000E-03 0. -1.
         11    1    4    4    0    0 -0.52790768139E-01 -0.30811382992E-01 -0.51710996356E-01  0.80065565555E-01  0.51100000000E-03 0.  1.
</event>
<event>
 8    1  0.1081309E+005  0.1043930E+01  0.7957747E-01            NaN
         13   -1    0    0    0    0  0.00000000000E+00  0.00000000000E+00  0.74505805969E-08  0.10566000000E+00  0.10566000000E+00 0.  1.
     999900   -1    0    0    0    0 -0.00000000000E+00 -0.00000000000E+00 -0.74505805969E-08  0.93827000000E+00  0.93827000000E+00 0.  1.
     999902    2    1    2    0    0 -0.23319881752E-01  0.78361484448E-02 -0.77908243927E-03  0.10193164046E+01  0.10190191871E+01 0.  0.
     999903    2    3    3    0    0  0.11563568006E+00 -0.36937592702E-01  0.30973572063E-01  0.12672379481E+00  0.19067295225E-01 0.  0.
         14    1    1    2    0    0  0.23319881752E-01 -0.78361484448E-02  0.77908243927E-03  0.24613595365E-01  0.00000000000E+00 0.  1.
     999901    1    3    3    0    0 -0.13895556181E+00  0.44773741147E-01 -0.31752654502E-01  0.89259260983E+00  0.88000000000E+00 0.  1.
        -11    1    4    4    0    0  0.59939047756E-01 -0.28267739830E-01  0.12801237830E-01  0.67497313813E-01  0.51100000000E-03 0.  1.
         11    1    4    4    0    0  0.55696632299E-01 -0.86698528717E-02  0.18172334233E-01  0.59226480992E-01  0.51100000000E-03 0. -1.
</event>
<event>
 8    1  0.1081309E+005  0.1043930E+01  0.7957747E-01            NaN
         13   -1    0    0    0    0  0.00000000000E+00  0.00000000000E+00  0.74505805969E-08  0.10566000000E+00  0.10566000000E+00 0.  1.
     999900   -1    0    0    0    0 -0.00000000000E+00 -0.00000000000E+00 -0.74505805969E-08  0.93827000000E+00  0.93827000000E+00 0. -1.
     999902    2    1    2    0    0  0.20862644269E-01 -0.95815880811E-02  0.58857061457E-03  0.10209647399E+01  0.10207064205E+01 0.  0.
     999903    2    3    3    0    0  0.67493645993E-01  0.10735137684E+00 -0.28638738414E-01  0.13152558841E+00  0.19977304913E-01 0.  0.
         14    1    1    2    0    0 -0.20862644269E-01  0.95815880811E-02 -0.58857061457E-03  0.22965260099E-01  0.00000000000E+00 0. -1.
     999901    1    3    3    0    0 -0.46631001724E-01 -0.11693296492E+00  0.29227309029E-01  0.88943915149E+00  0.88000000000E+00 0. -1.
        -11    1    4    4    0    0  0.14718489666E-01  0.14990900005E-01 -0.10923230967E-01  0.23684153284E-01  0.51100000000E-03 0.  1.
         11    1    4    4    0    0  0.52775156326E-01  0.92360476830E-01 -0.17715507447E-01  0.10784143513E+00  0.51100000000E-03 0. -1.
</event>
<event>
 8    1  0.1081309E+005  0.1043930E+01  0.7957747E-01            NaN
         13   -1    0    0    0    0  0.00000000000E+00  0.00000000000E+00  0.74505805969E-08  0.10566000000E+00  0.10566000000E+00 0. -1.
     999900   -1    0    0    0    0 -0.00000000000E+00 -0.00000000000E+00 -0.74505805969E-08  0.93827000000E+00  0.93827000000E+00 0.  1.
     999902    2    1    2    0    0 -0.39211174997E-03 -0.14931935722E-01 -0.19130423947E-01  0.10196588324E+01  0.10193699255E+01 0.  0.
     999903    2    3    3    0    0 -0.12675221232E-01 -0.11578380118E+00  0.55738724479E-01  0.13065525371E+00  0.19935898962E-01 0.  0.
         14    1    1    2    0    0  0.39211174997E-03  0.14931935722E-01  0.19130423947E-01  0.24271167595E-01  0.00000000000E+00 0. -1.
     999901    1    3    3    0    0  0.12283109482E-01  0.10085186546E+00 -0.74869148426E-01  0.88900357869E+00  0.88000000000E+00 0. -1.
        -11    1    4    4    0    0 -0.16813679594E-01 -0.98834682511E-01  0.51424988770E-01  0.11267557357E+00  0.51100000000E-03 0. -1.
         11    1    4    4    0    0  0.41384583616E-02 -0.16949118666E-01  0.43137357085E-02  0.17979680140E-01  0.51100000000E-03 0.  1.
</event>
<event>
 8    1  0.1081309E+005  0.1043930E+01  0.7957747E-01            NaN
         13   -1    0    0    0    0  0.00000000000E+00  0.00000000000E+00  0.74505805969E-08  0.10566000000E+00  0.10566000000E+00 0.  1.
     999900   -1    0    0    0    0 -0.00000000000E+00 -0.00000000000E+00 -0.74505805969E-08  0.93827000000E+00  0.93827000000E+00 0.  1.
     999902    2    1    2    0    0 -0.17169283382E-01 -0.15146982681E-01 -0.57674078198E-02  0.10203190202E+01  0.10200457953E+01 0.  0.
     999903    2    3    3    0    0  0.19935696811E-01 -0.53576288338E-01 -0.11586242333E+00  0.13185151736E+00  0.26322439293E-01 0.  0.
         14    1    1    2    0    0  0.17169283382E-01  0.15146982681E-01  0.57674078198E-02  0.23610979843E-01  0.00000000000E+00 0.  1.
     999901    1    3    3    0    0 -0.37104980193E-01  0.38429305657E-01  0.11009501551E+00  0.88846750280E+00  0.88000000000E+00 0. -1.
        -11    1    4    4    0    0  0.15205975922E-01 -0.11024025560E-01 -0.48731948118E-01  0.52228485826E-01  0.51100000000E-03 0. -1.
         11    1    4    4    0    0  0.47297208891E-02 -0.42552262778E-01 -0.67130475213E-01  0.79623031533E-01  0.51100000000E-03 0.  1.
</event>
<event>
 8    1  0.1081309E+005  0.1043930E+01  0.7957747E-01            NaN
         13   -1    0    0    0    0  0.00000000000E+00  0.00000000000E+00  0.74505805969E-08  0.10566000000E+00  0.10566000000E+00 0. -1.
     999900   -1    0    0    0    0 -0.00000000000E+00 -0.00000000000E+00 -0.74505805969E-08  0.93827000000E+00  0.93827000000E+00 0.  1.
     999902    2    1    2    0    0  0.32328646455E-02  0.22647910241E-01 -0.14000534166E-02  0.10210097164E+01  0.10207524193E+01 0.  0.
     999903    2    3    3    0    0  0.50681971455E-01  0.11957099866E+00  0.26208292376E-01  0.13398788825E+00  0.19999841438E-01 0.  0.
         14    1    1    2    0    0 -0.32328646455E-02 -0.22647910241E-01  0.14000534166E-02  0.22920283629E-01  0.00000000000E+00 0.  1.
     999901    1    3    3    0    0 -0.47449106810E-01 -0.96923088418E-01 -0.27608345792E-01  0.88702182812E+00  0.88000000000E+00 0. -1.
        -11    1    4    4    0    0  0.27960089762E-01  0.42543512730E-01  0.67814861920E-02  0.51361140670E-01  0.51100000000E-03 0. -1.
         11    1    4    4    0    0  0.22721881693E-01  0.77027485928E-01  0.19426806184E-01  0.82626747580E-01  0.51100000000E-03 0.  1.
</event>
<event>
 8    1  0.1081309E+005  0.1043930E+01  0.7957747E-01            NaN
         13   -1    0    0    0    0  0.00000000000E+00  0.00000000000E+00  0.74505805969E-08  0.10566000000E+00  0.10566000000E+00 0. -1.
     999900   -1    0    0    0    0 -0.00000000000E+00 -0.00000000000E+00 -0.74505805969E-08  0.93827000000E+00  0.93827000000E+00 0.  1.
     999902    2    1    2    0    0  0.15725573751E-01 -0.15448408384E-01  0.96063849182E-02  0.10198835944E+01  0.10196000767E+01 0.  0.
     999903    2    3    3    0    0 -0.27410384087E-01  0.86360311445E-01 -0.87601751692E-01  0.12765315997E+00  0.20293590158E-01 0.  0.
         14    1    1    2    0    0 -0.15725573751E-01  0.15448408384E-01 -0.96063849182E-02  0.24046405607E-01  0.00000000000E+00 0. -1.
     999901    1    3    3    0    0  0.43135957838E-01 -0.10180871983E+00  0.97208136610E-01  0.89223043443E+00  0.88000000000E+00 0. -1.
        -11    1    4    4    0    0 -0.23856842056E-01  0.59350268136E-01 -0.49863352958E-01  0.81106216346E-01  0.51100000000E-03 0. -1.
         11    1    4    4    0    0 -0.35535420310E-02  0.27010043309E-01 -0.37738398734E-01  0.46546943622E-01  0.51100000000E-03 0.  1.
</event>
<event>
 8    1  0.1081309E+005  0.1043930E+01  0.7957747E-01            NaN
         13   -1    0    0    0    0  0.00000000000E+00  0.00000000000E+00  0.74505805969E-08  0.10566000000E+00  0.10566000000E+00 0. -1.
     999900   -1    0    0    0    0 -0.00000000000E+00 -0.00000000000E+00 -0.74505805969E-08  0.93827000000E+00  0.93827000000E+00 0.  1.
     999902    2    1    2    0    0  0.21350825621E-01 -0.52944865834E-02 -0.71376665025E-02  0.10208034865E+01  0.10205414849E+01 0.  0.
     999903    2    3    3    0    0  0.11228697123E+00  0.67192889712E-01 -0.14248714764E-01  0.13312428246E+00  0.19894732300E-01 0.  0.
         14    1    1    2    0    0 -0.21350825621E-01  0.52944865834E-02  0.71376665025E-02  0.23126513485E-01  0.00000000000E+00 0. -1.
     999901    1    3    3    0    0 -0.90936145607E-01 -0.72487376295E-01  0.71110482612E-02  0.88767920405E+00  0.88000000000E+00 0. -1.
        -11    1    4    4    0    0  0.65467529082E-01  0.36566482659E-01  0.14891911808E-02  0.75003892096E-01  0.51100000000E-03 0. -1.
         11    1    4    4    0    0  0.46819442146E-01  0.30626407053E-01 -0.15737905944E-01  0.58120390366E-01  0.51100000000E-03 0.  1.
</event>
<event>
 8    1  0.1081309E+005  0.1043930E+01  0.7957747E-01            NaN
         13   -1    0    0    0    0  0.00000000000E+00  0.00000000000E+00  0.74505805969E-08  0.10566000000E+00  0.10566000000E+00 0.  1.
     999900   -1    0    0    0    0 -0.00000000000E+00 -0.00000000000E+00 -0.74505805969E-08  0.93827000000E+00  0.93827000000E+00 0.  1.
     999902    2    1    2    0    0 -0.71624947120E-02 -0.39004025267E-02  0.22306607773E-01  0.10201792269E+01  0.10199027188E+01 0.  0.
     999903    2    3    3    0    0 -0.33984808205E-01  0.11776951482E+00  0.42149610231E-01  0.13118161726E+00  0.20184183269E-01 0.  0.
         14    1    1    2    0    0  0.71624947120E-02  0.39004025267E-02 -0.22306607773E-01  0.23750773055E-01  0.00000000000E+00 0. -1.
     999901    1    3    3    0    0  0.26822313493E-01 -0.12166991734E+00 -0.19843002458E-01  0.88899760969E+00  0.88000000000E+00 0. -1.
        -11    1    4    4    0    0 -0.20065111197E-01  0.97373506767E-01  0.35910091035E-01  0.10570716280E+00  0.51100000000E-03 0. -1.
         11    1    4    4    0    0 -0.13919697008E-01  0.20396008050E-01  0.62395191961E-02  0.25474454458E-01  0.51100000000E-03 0.  1.
</event>
<event>
 8    1  0.1081309E+005  0.1043930E+01  0.7957747E-01            NaN
         13   -1    0    0    0    0  0.00000000000E+00  0.00000000000E+00  0.74505805969E-08  0.10566000000E+00  0.10566000000E+00 0. -1.
     999900   -1    0    0    0    0 -0.00000000000E+00 -0.00000000000E+00 -0.74505805969E-08  0.93827000000E+00  0.93827000000E+00 0.  1.
     999902    2    1    2    0    0 -0.60186516842E-03  0.23489067002E-01 -0.27788066980E-03  0.10204315803E+01  0.10201609845E+01 0.  0.
     999903    2    3    3    0    0  0.76998318099E-01  0.10614103615E+00 -0.11618702762E-01  0.13308624128E+00  0.19552309809E-01 0.  0.
         14    1    1    2    0    0  0.60186516842E-03 -0.23489067002E-01  0.27788066980E-03  0.23498419691E-01  0.00000000000E+00 0. -1.
     999901    1    3    3    0    0 -0.77600183268E-01 -0.82651969150E-01  0.11340822093E-01  0.88734533903E+00  0.88000000000E+00 0. -1.
        -11    1    4    4    0    0  0.25833593977E-01  0.44557125537E-01  0.34162433601E-02  0.51620188431E-01  0.51100000000E-03 0.  1.
         11    1    4    4    0    0  0.51164724122E-01  0.61583910615E-01 -0.15034946123E-01  0.81466052851E-01  0.51100000000E-03 0. -1.
</event>
<event>
 8    1  0.1081309E+005  0.1043930E+01  0.7957747E-01            NaN
         13   -1    0    0    0    0  0.00000000000E+00  0.00000000000E+00  0.74505805969E-08  0.10566000000E+00  0.10566000000E+00 0. -1.
     999900   -1    0    0    0    0 -0.00000000000E+00 -0.00000000000E+00 -0.74505805969E-08  0.93827000000E+00  0.93827000000E+00 0.  1.
     999902    2    1    2    0    0  0.21107992453E-01  0.57566093938E-02  0.86896940336E-02  0.10203886177E+01  0.10201170200E+01 0.  0.
     999903    2    3    3    0    0  0.13411947263E-01 -0.32511264188E-02 -0.12707857916E+00  0.12989808301E+00  0.23110528642E-01 0.  0.
         14    1    1    2    0    0 -0.21107992453E-01 -0.57566093938E-02 -0.86896940336E-02  0.23541382277E-01  0.00000000000E+00 0. -1.
     999901    1    3    3    0    0  0.76960451896E-02  0.90077358127E-02  0.13576827320E+00  0.89049053472E+00  0.88000000000E+00 0. -1.
        -11    1    4    4    0    0 -0.39927482778E-02  0.44954129215E-02 -0.55458295273E-01  0.55785611153E-01  0.51100000000E-03 0. -1.
         11    1    4    4    0    0  0.17404695541E-01 -0.77465393403E-02 -0.71620283890E-01  0.74112471852E-01  0.51100000000E-03 0.  1.
</event>
<event>
 8    1  0.1081309E+005  0.1043930E+01  0.7957747E-01            NaN
         13   -1    0    0    0    0  0.00000000000E+00  0.00000000000E+00  0.74505805969E-08  0.10566000000E+00  0.10566000000E+00 0.  1.
     999900   -1    0    0    0    0 -0.00000000000E+00 -0.00000000000E+00 -0.74505805969E-08  0.93827000000E+00  0.93827000000E+00 0. -1.
     999902    2    1    2    0    0  0.60397640745E-02 -0.44121069787E-02  0.21822223967E-01  0.10208615172E+01  0.10206008439E+01 0.  0.
     999903    2    3    3    0    0  0.21264002182E-01 -0.88602474104E-01  0.95732940094E-01  0.13362840847E+00  0.19728140405E-01 0.  0.
         14    1    1    2    0    0 -0.60397640745E-02  0.44121069787E-02 -0.21822223967E-01  0.23068482762E-01  0.00000000000E+00 0. -1.
     999901    1    3    3    0    0 -0.15224238107E-01  0.84190367126E-01 -0.73910716127E-01  0.88723310877E+00  0.88000000000E+00 0. -1.
        -11    1    4    4    0    0 -0.13012268831E-02 -0.29751726096E-01  0.36751869982E-01  0.47305596554E-01  0.51100000000E-03 0.  1.
         11    1    4    4    0    0  0.22565229065E-01 -0.58850748008E-01  0.58981070112E-01  0.86322811912E-01  0.51100000000E-03 0. -1.
</event>
<event>
 8    1  0.1081309E+005  0.1043930E+01  0.7957747E-01            NaN
         13   -1    0    0    0    0  0.00000000000E+00  0.00000000000E+00  0.74505805969E-08  0.10566000000E+00  0.10566000000E+00 0. -1.
     999900   -1    0    0    0    0 -0.00000000000E+00 -0.00000000000E+00 -0.74505805969E-08  0.93827000000E+00  0.93827000000E+00 0. -1.
     999902    2    1    2    0    0  0.96130809007E-02 -0.13742507178E-02 -0.20038207393E-01  0.10216627675E+01  0.10214200805E+01 0.  0.
     999903    2    3    3    0    0 -0.10141471008E+00  0.77153739503E-01 -0.24325044938E-01  0.13120659639E+00  0.19642306000E-01 0.  0.
         14    1    1    2    0    0 -0.96130809007E-02  0.13742507178E-02  0.20038207393E-01  0.22267232539E-01  0.00000000000E+00 0. -1.
     999901    1    3    3    0    0  0.11102779098E+00 -0.78527990221E-01  0.42868375453E-02  0.89045617107E+00  0.88000000000E+00 0.  1.
        -11    1    4    4    0    0 -0.77196602156E-01  0.49138161253E-01 -0.12688844592E-01  0.92385833188E-01  0.51100000000E-03 0. -1.
         11    1    4    4    0    0 -0.24218107927E-01  0.28015578250E-01 -0.11636200346E-01  0.38820763204E-01  0.51100000000E-03 0.  1.
</event>
<event>
 8    1  0.1081309E+005  0.1043930E+01  0.7957747E-01            NaN
         13   -1    0    0    0    0  0.00000000000E+00  0.00000000000E+00  0.74505805969E-08  0.10566000000E+00  0.10566000000E+00 0.  1.
     999900   -1    0    0    0    0 -0.00000000000E+00 -0.00000000000E+00 -0.74505805969E-08  0.93827000000E+00  0.93827000000E+00 0. -1.
     999902    2    1    2    0    0 -0.21439914626E-01  0.27275500181E-02 -0.89353224593E-02  0.10205430495E+01  0.10202750445E+01 0.  0.
     999903    2    3    3    0    0  0.12895251038E-01  0.66445722588E-01 -0.11113984350E+00  0.13167597658E+00  0.20128995195E-01 0.  0.
         14    1    1    2    0    0  0.21439914626E-01 -0.27275500181E-02  0.89353224593E-02  0.23386950543E-01  0.00000000000E+00 0.  1.
     999901    1    3    3    0    0 -0.34335165664E-01 -0.63718172570E-01  0.10220452104E+00  0.88886707287E+00  0.88000000000E+00 0.  1.
        -11    1    4    4    0    0  0.15309344868E-01  0.32847790061E-01 -0.66689558169E-01  0.75901987075E-01  0.51100000000E-03 0.  1.
         11    1    4    4    0    0 -0.24140938300E-02  0.33597932528E-01 -0.44450285327E-01  0.55773989510E-01  0.51100000000E-03 0. -1.
</event>
<event>
 8    1  0.1081309E+005  0.1043930E+01  0.7957747E-01            NaN
         13   -1    0    0    0    0  0.00000000000E+00  0.00000000000E+00  0.74505805969E-08  0.10566000000E+00  0.10566000000E+00 0.  1.
     999900   -1    0    0    0    0 -0.00000000000E+00 -0.00000000000E+00 -0.74505805969E-08  0.93827000000E+00  0.93827000000E+00 0.  1.
     999902    2    1    2    0    0 -0.53997997197E-02  0.22869871913E-01  0.27188106846E-02  0.10202745395E+01  0.10200002722E+01 0.  0.
     999903    2    3    3    0    0 -0.52943278853E-01  0.66662146934E-01 -0.98770444493E-01  0.13208637553E+00  0.21080258201E-01 0.  0.
         14    1    1    2    0    0  0.53997997197E-02 -0.22869871913E-01 -0.27188106846E-02  0.23655460466E-01  0.00000000000E+00 0.  1.
     999901    1    3    3    0    0  0.47543479134E-01 -0.43792275021E-01  0.10148925518E+00  0.88818816400E+00  0.88000000000E+00 0. -1.
        -11    1    4    4    0    0 -0.22015122659E-01  0.25177173036E-01 -0.24053224795E-01  0.41199204019E-01  0.51100000000E-03 0. -1.
         11    1    4    4    0    0 -0.30928156194E-01  0.41484973898E-01 -0.74717219698E-01  0.90887171511E-01  0.51100000000E-03 0.  1.
</event>
<event>
 8    1  0.1081309E+005  0.1043930E+01  0.7957747E-01            NaN
         13   -1    0    0    0    0  0.00000000000E+00  0.00000000000E+00  0.74505805969E-08  0.10566000000E+00  0.10566000000E+00 0.  1.
     999900   -1    0    0    0    0 -0.00000000000E+00 -0.00000000000E+00 -0.74505805969E-08  0.93827000000E+00  0.93827000000E+00 0.  1.
     999902    2    1    2    0    0  0.14579299944E-01 -0.98230666346E-02 -0.15200774694E-01  0.10206896864E+01  0.10204250701E+01 0.  0.
     999903    2    3    3    0    0  0.42089354006E-01 -0.12187514481E+00 -0.20497469817E-01  0.13314220808E+00  0.26108172285E-01 0.  0.
         14    1    1    2    0    0 -0.14579299944E-01  0.98230666346E-02  0.15200774694E-01  0.23240313600E-01  0.00000000000E+00 0.  1.
     999901    1    3    3    0    0 -0.27510054062E-01  0.11205207817E+00  0.52966951230E-02  0.88754747832E+00  0.88000000000E+00 0.  1.
        -11    1    4    4    0    0  0.23684078801E-01 -0.61404012249E-01 -0.23431833527E-01  0.69862008648E-01  0.51100000000E-03 0. -1.
         11    1    4    4    0    0  0.18405275204E-01 -0.60471132560E-01  0.29343637101E-02  0.63280199429E-01  0.51100000000E-03 0.  1.
</event>
<event>
 8    1  0.1081309E+005  0.1043930E+01  0.7957747E-01            NaN
         13   -1    0    0    0    0  0.00000000000E+00  0.00000000000E+00  0.74505805969E-08  0.10566000000E+00  0.10566000000E+00 0.  1.
     999900   -1    0    0    0    0 -0.00000000000E+00 -0.00000000000E+00 -0.74505805969E-08  0.93827000000E+00  0.93827000000E+00 0. -1.
     999902    2    1    2    0    0 -0.12582550198E-01 -0.11859155273E-01 -0.17411741278E-01  0.10193916857E+01  0.10190963056E+01 0.  0.
     999903    2    3    3    0    0  0.98804150466E-01  0.33617147941E-01  0.69460138779E-01  0.12696700275E+00  0.20088208535E-01 0.  0.
         14    1    1    2    0    0  0.12582550198E-01  0.11859155273E-01  0.17411741278E-01  0.24538314278E-01  0.00000000000E+00 0.  1.
     999901    1    3    3    0    0 -0.11138670066E+00 -0.45476303214E-01 -0.86871880057E-01  0.89242468298E+00  0.88000000000E+00 0. -1.
        -11    1    4    4    0    0  0.27605059225E-01  0.19196152103E-01  0.22718369281E-01  0.40582224855E-01  0.51100000000E-03 0.  1.
         11    1    4    4    0    0  0.71199091242E-01  0.14420995837E-01  0.46741769498E-01  0.86384777892E-01  0.51100000000E-03 0. -1.
</event>
<event>
 8    1  0.1081309E+005  0.1043930E+01  0.7957747E-01            NaN
         13   -1    0    0    0    0  0.00000000000E+00  0.00000000000E+00  0.74505805969E-08  0.10566000000E+00  0.10566000000E+00 0.  1.
     999900   -1    0    0    0    0 -0.00000000000E+00 -0.00000000000E+00 -0.74505805969E-08  0.93827000000E+00  0.93827000000E+00 0.  1.
     999902    2    1    2    0    0  0.89077687227E-02 -0.18792594268E-01 -0.10791295419E-01  0.10205000619E+01  0.10202310593E+01 0.  0.
     999903    2    3    3    0    0 -0.11755691456E+00 -0.53318793720E-01  0.49566164454E-02  0.13064986591E+00  0.19552429303E-01 0.  0.
         14    1    1    2    0    0 -0.89077687227E-02  0.18792594268E-01  0.10791295419E-01  0.23429938108E-01  0.00000000000E+00 0.  1.
     999901    1    3    3    0    0  0.12646468328E+00  0.34526199453E-01 -0.15747911864E-01  0.88985019598E+00  0.88000000000E+00 0.  1.
        -11    1    4    4    0    0 -0.73830091645E-01 -0.43649441900E-01  0.31547462694E-02  0.85827558252E-01  0.51100000000E-03 0. -1.
         11    1    4    4    0    0 -0.43726822910E-01 -0.96693518198E-02  0.18018701760E-02  0.44822307656E-01  0.51100000000E-03 0.  1.
</event>
<event>
 8    1  0.1081309E+005  0.1043930E+01  0.7957747E-01            NaN
         13   -1    0    0    0    0  0.00000000000E+00  0.00000000000E+00  0.74505805969E-08  0.10566000000E+00  0.10566000000E+00 0.  1.
     999900   -1    0    0    0    0 -0.00000000000E+00 -0.00000000000E+00 -0.74505805969E-08  0.93827000000E+00  0.93827000000E+00 0. -1.
     999902    2    1    2    0    0  0.23296520782E-02  0.93835679512E-02  0.21118719285E-01  0.10207033143E+01  0.10204390118E+01 0.  0.
     999903    2    3    3    0    0 -0.12289871819E+00 -0.52873975895E-02 -0.36145245015E-01  0.12987418162E+00  0.20706829980E-01 0.  0.
         14    1    1    2    0    0 -0.23296520782E-02 -0.93835679512E-02 -0.21118719285E-01  0.23226685742E-01  0.00000000000E+00 0. -1.
     999901    1    3    3    0    0  0.12522837027E+00  0.14670965541E-01  0.57263964300E-01  0.89082913264E+00  0.88000000000E+00 0.  1.
        -11    1    4    4    0    0 -0.72723850526E-01  0.70615782040E-02 -0.21377856459E-01  0.76130796592E-01  0.51100000000E-03 0. -1.
         11    1    4    4    0    0 -0.50174867666E-01 -0.12348975793E-01 -0.14767388556E-01  0.53743385027E-01  0.51100000000E-03 0.  1.
</event>
<event>
 8    1  0.1081309E+005  0.1043930E+01  0.7957747E-01            NaN
         13   -1    0    0    0    0  0.00000000000E+00  0.00000000000E+00  0.74505805969E-08  0.10566000000E+00  0.10566000000E+00 0. -1.
     999900   -1    0    0    0    0 -0.00000000000E+00 -0.00000000000E+00 -0.74505805969E-08  0.93827000000E+00  0.93827000000E+00 0.  1.
     999902    2    1    2    0    0 -0.13481281995E-02 -0.92523903370E-02  0.22032848071E-01  0.10199952852E+01  0.10197144264E+01 0.  0.
     999903    2    3    3    0    0  0.17306102987E-01  0.57194409725E-01  0.11634564799E+00  0.13226894125E+00  0.19699271806E-01 0.  0.
         14    1    1    2    0    0  0.13481281995E-02  0.92523903370E-02 -0.22032848071E-01  0.23934714762E-01  0.00000000000E+00 0.  1.
     999901    1    3    3    0    0 -0.18654231187E-01 -0.66446800062E-01 -0.94312799917E-01  0.88772634399E+00  0.88000000000E+00 0.  1.
        -11    1    4    4    0    0  0.48345607097E-02  0.31114913452E-01  0.78953650503E-01  0.85002652106E-01  0.51100000000E-03 0.  1.
         11    1    4    4    0    0  0.12471542277E-01  0.26079496273E-01  0.37391997485E-01  0.47266289145E-01  0.51100000000E-03 0. -1.
</event>
<event>
 8    1  0.1081309E+005  0.1043930E+01  0.7957747E-01            NaN
         13   -1    0    0    0    0  0.00000000000E+00  0.00000000000E+00  0.74505805969E-08  0.10566000000E+00  0.10566000000E+00 0.  1.
     999900   -1    0    0    0    0 -0.00000000000E+00 -0.00000000000E+00 -0.74505805969E-08  0.93827000000E+00  0.93827000000E+00 0.  1.
     999902    2    1    2    0    0  0.16730680773E-01  0.25142480070E-02 -0.13977586314E-01  0.10219843845E+01  0.10217487323E+01 0.  0.
     999903    2    3    3    0    0  0.61273208951E-01  0.94798699767E-01 -0.69797902155E-01  0.13428152623E+00  0.20459265107E-01 0.  0.
         14    1    1    2    0    0 -0.16730680773E-01 -0.25142480070E-02  0.13977586314E-01  0.21945615538E-01  0.00000000000E+00 0.  1.
     999901    1    3    3    0    0 -0.44542528178E-01 -0.92284451760E-01  0.55820315841E-01  0.88770285823E+00  0.88000000000E+00 0. -1.
        -11    1    4    4    0    0  0.25119456796E-01  0.27128718200E-01 -0.31278206262E-01  0.48430793601E-01  0.51100000000E-03 0.  1.
         11    1    4    4    0    0  0.36153752155E-01  0.67669981567E-01 -0.38519695893E-01  0.85850732629E-01  0.51100000000E-03 0. -1.
</event>
<event>
 8    1  0.1081309E+005  0.1043930E+01  0.7957747E-01            NaN
         13   -1    0    0    0    0  0.00000000000E+00  0.00000000000E+00  0.74505805969E-08  0.10566000000E+00  0.10566000000E+00 0. -1.
     999900   -1    0    0    0    0 -0.00000000000E+00 -0.00000000000E+00 -0.74505805969E-08  0.93827000000E+00  0.93827000000E+00 0.  1.
     999902    2    1    2    0    0 -0.70676507940E-02  0.19464287666E-01  0.11983289879E-01  0.10200049207E+01  0.10197242906E+01 0.  0.
     999903    2    3    3    0    0 -0.73675130204E-02  0.98537207296E-02  0.13003192943E+00  0.13207027549E+00  0.19567292509E-01 0.  0.
         14    1    1    2    0    0  0.70676507940E-02 -0.19464287666E-01 -0.11983289879E-01  0.23925079277E-01  0.00000000000E+00 0.  1.
     999901    1    3    3    0    0  0.29986222642E-03  0.96105669361E-02 -0.11804863955E+00  0.88793464524E+00  0.88000000000E+00 0.  1.
        -11    1    4    4    0    0  0.32918851859E-02  0.11767701602E-01  0.64946925648E-01  0.66088422445E-01  0.51100000000E-03 0.  1.
         11    1    4    4    0    0 -0.10659398206E-01 -0.19139808721E-02  0.65085003778E-01  0.65981853041E-01  0.51100000000E-03 0. -1.
</event>
<event>
 8    1  0.1081309E+005  0.1043930E+01  0.7957747E-01            NaN
         13   -1    0    0    0    0  0.00000000000E+00  0.00000000000E+00  0.74505805969E-08  0.10566000000E+00  0.10566000000E+00 0. -1.
     999900   -1    0    0    0    0 -0.00000000000E+00 -0.00000000000E+00 -0.74505805969E-08  0.93827000000E+00  0.93827000000E+00 0. -1.
     999902    2    1    2    0    0 -0.18449773880E-01  0.12522999202E-01 -0.10519895341E-01  0.10192746180E+01  0.10189763780E+01 0.  0.
     999903    2    3    3    0    0 -0.12393980469E+00 -0.20102934210E-01  0.33262202204E-01  0.13129406064E+00  0.19145576808E-01 0.  0.
         14    1    1    2    0    0  0.18449773880E-01 -0.12522999202E-01  0.10519895341E-01  0.24655382034E-01  0.00000000000E+00 0.  1.
     999901    1    3    3    0    0  0.10549003081E+00  0.32625933412E-01 -0.43782097545E-01  0.88798055733E+00  0.88000000000E+00 0. -1.
        -11    1    4    4    0    0 -0.33242089787E-01 -0.31311187063E-02  0.56227829752E-03  0.33397869927E-01  0.51100000000E-03 0.  1.
         11    1    4    4    0    0 -0.90697714906E-01 -0.16971815504E-01  0.32699923906E-01  0.97896190708E-01  0.51100000000E-03 0. -1.
</event>
<event>
 8    1  0.1081309E+005  0.1043930E+01  0.7957747E-01            NaN
         13   -1    0    0    0    0  0.00000000000E+00  0.00000000000E+00  0.74505805969E-08  0.10566000000E+00  0.10566000000E+00 0.  1.
     999900   -1    0    0    0    0 -0.00000000000E+00 -0.00000000000E+00 -0.74505805969E-08  0.93827000000E+00  0.93827000000E+00 0. -1.
     999902    2    1    2    0    0 -0.17146549130E-01 -0.12857960154E-01 -0.10320523465E-01  0.10201425140E+01  0.10198651403E+01 0.  0.
     999903    2    3    3    0    0 -0.80031849014E-01  0.89603957737E-02 -0.10360602719E+00  0.13271207344E+00  0.19821705749E-01 0.  0.
         14    1    1    2    0    0  0.17146549130E-01  0.12857960154E-01  0.10320523465E-01  0.23787486017E-01  0.00000000000E+00 0.  1.
     999901    1    3    3    0    0  0.62885299883E-01 -0.21818355928E-01  0.93285503721E-01  0.88743044054E+00  0.88000000000E+00 0.  1.
        -11    1    4    4    0    0 -0.17097030246E-01 -0.29901528451E-02 -0.33582399706E-01  0.37805927423E-01  0.51100000000E-03 0. -1.
         11    1    4    4    0    0 -0.62934818768E-01  0.11950548619E-01 -0.70023627480E-01  0.94906146018E-01  0.51100000000E-03 0.  1.
</event>
<event>
 8    1  0.1081309E+005  0.1043930E+01  0.7957747E-01            NaN
         13   -1    0    0    0    0  0.00000000000E+00  0.00000000000E+00  0.74505805969E-08  0.10566000000E+00  0.10566000000E+00 0.  1.
     999900   -1    0    0    0    0 -0.00000000000E+00 -0.00000000000E+00 -0.74505805969E-08  0.93827000000E+00  0.93827000000E+00 0.  1.
     999902    2    1    2    0    0  0.76306115649E-02 -0.12114224451E-01 -0.17278505659E-01  0.10214905832E+01  0.10212440865E+01 0.  0.
     999903    2    3    3    0    0 -0.40590991866E-01 -0.94413441203E-03 -0.12574082872E+00  0.13345107428E+00  0.18705967169E-01 0.  0.
         14    1    1    2    0    0 -0.76306115649E-02  0.12114224451E-01  0.17278505659E-01  0.22439416764E-01  0.00000000000E+00 0.  1.
     999901    1    3    3    0    0  0.48221603431E-01 -0.11170090039E-01  0.10846232306E+00  0.88803950896E+00  0.88000000000E+00 0. -1.
        -11    1    4    4    0    0 -0.31110703415E-01 -0.88486754629E-02 -0.90538388793E-01  0.96143829187E-01  0.51100000000E-03 0.  1.
         11    1    4    4    0    0 -0.94802884507E-02  0.79045410508E-02 -0.35202439927E-01  0.37307245089E-01  0.51100000000E-03 0. -1.
</event>
<event>
 8    1  0.1081309E+005  0.1043930E+01  0.7957747E-01            NaN
         13   -1    0    0    0    0  0.00000000000E+00  0.00000000000E+00  0.74505805969E-08  0.10566000000E+00  0.10566000000E+00 0. -1.
     999900   -1    0    0    0    0 -0.00000000000E+00 -0.00000000000E+00 -0.74505805969E-08  0.93827000000E+00  0.93827000000E+00 0.  1.
     999902    2    1    2    0    0 -0.12297054041E-01 -0.12120649733E-01  0.17636128274E-01  0.10192488187E+01  0.10189499467E+01 0.  0.
     999903    2    3    3    0    0 -0.58455300337E-02 -0.47882490020E-01  0.12152183447E+00  0.13239326605E+00  0.20821084719E-01 0.  0.
         14    1    1    2    0    0  0.12297054041E-01  0.12120649733E-01 -0.17636128274E-01  0.24681181263E-01  0.00000000000E+00 0.  1.
     999901    1    3    3    0    0 -0.64515240072E-02  0.35761840287E-01 -0.10388570620E+00  0.88685555269E+00  0.88000000000E+00 0.  1.
        -11    1    4    4    0    0  0.70135976734E-02 -0.19439343100E-01  0.58871169103E-01  0.62395146327E-01  0.51100000000E-03 0.  1.
         11    1    4    4    0    0 -0.12859127707E-01 -0.28443146920E-01  0.62650665371E-01  0.69998119722E-01  0.51100000000E-03 0. -1.
</event>
<event>
 8    1  0.1081309E+005  0.1043930E+01  0.7957747E-01            NaN
         13   -1    0    0    0    0  0.00000000000E+00  0.00000000000E+00  0.74505805969E-08  0.10566000000E+00  0.10566000000E+00 0.  1.
     999900   -1    0    0    0    0 -0.00000000000E+00 -0.00000000000E+00 -0.74505805969E-08  0.93827000000E+00  0.93827000000E+00 0.  1.
     999902    2    1    2    0    0  0.10027880193E-01 -0.78875168909E-02 -0.17812585059E-01  0.10220197401E+01  0.10217848548E+01 0.  0.
     999903    2    3    3    0    0  0.50388706271E-01 -0.33728662090E-01  0.11440785917E+00  0.13085252403E+00  0.18883337618E-01 0.  0.
         14    1    1    2    0    0 -0.10027880193E-01  0.78875168909E-02  0.17812585059E-01  0.21910259933E-01  0.00000000000E+00 0.  1.
     999901    1    3    3    0    0 -0.40360826077E-01  0.25841145199E-01 -0.13222044423E+00  0.89116721604E+00  0.88000000000E+00 0.  1.
        -11    1    4    4    0    0  0.90926258978E-02 -0.10089870348E-01  0.42538864869E-01  0.44657557867E-01  0.51100000000E-03 0.  1.
         11    1    4    4    0    0  0.41296080373E-01 -0.23638791743E-01  0.71868994299E-01  0.86194966163E-01  0.51100000000E-03 0. -1.
</event>
<event>
 8    1  0.1081309E+005  0.1043930E+01  0.7957747E-01            NaN
         13   -1    0    0    0    0  0.00000000000E+00  0.00000000000E+00  0.74505805969E-08  0.10566000000E+00  0.10566000000E+00 0.  1.
     999900   -1    0    0    0    0 -0.00000000000E+00 -0.00000000000E+00 -0.74505805969E-08  0.93827000000E+00  0.93827000000E+00 0.  1.
     999902    2    1    2    0    0 -0.25353953457E-02  0.19245528509E-01  0.13674449395E-01  0.10201853340E+01  0.10199089697E+01 0.  0.
     999903    2    3    3    0    0 -0.12203390177E+00 -0.31048435764E-01  0.27849779161E-01  0.13057288138E+00  0.20430090788E-01 0.  0.
         14    1    1    2    0    0  0.25353953457E-02 -0.19245528509E-01 -0.13674449395E-01  0.23744665999E-01  0.00000000000E+00 0. -1.
     999901    1    3    3    0    0  0.11949850642E+00  0.50293964273E-01 -0.14175329767E-01  0.88961245262E+00  0.88000000000E+00 0.  1.
        -11    1    4    4    0    0 -0.22100073001E-01 -0.13354356417E-01  0.89858338976E-02  0.27345171307E-01  0.51100000000E-03 0. -1.
         11    1    4    4    0    0 -0.99933828766E-01 -0.17694079347E-01  0.18863945264E-01  0.10322771008E+00  0.51100000000E-03 0.  1.
</event>
<event>
 8    1  0.1081309E+005  0.1043930E+01  0.7957747E-01            NaN
         13   -1    0    0    0    0  0.00000000000E+00  0.00000000000E+00  0.74505805969E-08  0.10566000000E+00  0.10566000000E+00 0. -1.
     999900   -1    0    0    0    0 -0.00000000000E+00 -0.00000000000E+00 -0.74505805969E-08  0.93827000000E+00  0.93827000000E+00 0. -1.
     999902    2    1    2    0    0  0.16555136268E-01  0.43916320320E-02  0.18027246613E-01  0.10190635449E+01  0.10187601131E+01 0.  0.
     999903    2    3    3    0    0 -0.11112380893E+00  0.44167329766E-03  0.61802769613E-01  0.12876370123E+00  0.20293162288E-01 0.  0.
         14    1    1    2    0    0 -0.16555136268E-01 -0.43916320320E-02 -0.18027246613E-01  0.24866455099E-01  0.00000000000E+00 0.  1.
     999901    1    3    3    0    0  0.12767894520E+00  0.39499587344E-02 -0.43775523000E-01  0.89029984367E+00  0.88000000000E+00 0. -1.
        -11    1    4    4    0    0 -0.44446844570E-01 -0.97552124519E-02  0.25114051476E-01  0.51977522688E-01  0.51100000000E-03 0. -1.
         11    1    4    4    0    0 -0.66676964364E-01  0.10196885750E-01  0.36688718137E-01  0.76786178544E-01  0.51100000000E-03 0.  1.
</event>
<event>
 8    1  0.1081309E+005  0.1043930E+01  0.7957747E-01            NaN
         13   -1    0    0    0    0  0.00000000000E+00  0.00000000000E+00  0.74505805969E-08  0.10566000000E+00  0.10566000000E+00 0. -1.
     999900   -1    0    0    0    0 -0.00000000000E+00 -0.00000000000E+00 -0.74505805969E-08  0.93827000000E+00  0.93827000000E+00 0.  1.
     999902    2    1    2    0    0 -0.99099531547E-03 -0.24079743513E-01 -0.70763119143E-03  0.10198194865E+01  0.10195344370E+01 0.  0.
     999903    2    3    3    0    0  0.21038692250E-01  0.71609020298E-01  0.10249323229E+00  0.12836445966E+00  0.20052268670E-01 0.  0.
         14    1    1    2    0    0  0.99099531547E-03  0.24079743513E-01  0.70763119143E-03  0.24110513501E-01  0.00000000000E+00 0. -1.
     999901    1    3    3    0    0 -0.22029687566E-01 -0.95688763810E-01 -0.10320086348E+00  0.89145502684E+00  0.88000000000E+00 0.  1.
        -11    1    4    4    0    0  0.20810869636E-01  0.46176492969E-01  0.78321628804E-01  0.93273251564E-01  0.51100000000E-03 0.  1.
         11    1    4    4    0    0  0.22782261384E-03  0.25432527329E-01  0.24171603487E-01  0.35091208096E-01  0.51100000000E-03 0. -1.
</event>
<event>
 8    1  0.1081309E+005  0.1043930E+01  0.7957747E-01            NaN
         13   -1    0    0    0    0  0.00000000000E+00  0.00000000000E+00  0.74505805969E-08  0.10566000000E+00  0.10566000000E+00 0.  1.
     999900   -1    0    0    0    0 -0.00000000000E+00 -0.00000000000E+00 -0.74505805969E-08  0.93827000000E+00  0.93827000000E+00 0.  1.
     999902    2    1    2    0    0 -0.14474481527E-01 -0.16329907987E-02  0.18993824985E-01  0.10199937793E+01  0.10197128847E+01 0.  0.
     999903    2    3    3    0    0 -0.72084480509E-01 -0.46880790718E-02  0.11038148896E+00  0.13338228000E+00  0.19713170607E-01 0.  0.
         14    1    1    2    0    0  0.14474481527E-01  0.16329907987E-02 -0.18993824985E-01  0.23936220712E-01  0.00000000000E+00 0. -1.
     999901    1    3    3    0    0  0.57609998983E-01  0.30550882731E-02 -0.91387663980E-01  0.88661149929E+00  0.88000000000E+00 0.  1.
        -11    1    4    4    0    0 -0.41171638065E-01 -0.35860062128E-02  0.45296184782E-01  0.61318583630E-01  0.51100000000E-03 0. -1.
         11    1    4    4    0    0 -0.30912842444E-01 -0.11020728590E-02  0.65085304183E-01  0.72063696367E-01  0.51100000000E-03 0.  1.
</event>
<event>
 8    1  0.1081309E+005  0.1043930E+01  0.7957747E-01            NaN
         13   -1    0    0    0    0  0.00000000000E+00  0.00000000000E+00  0.74505805969E-08  0.10566000000E+00  0.10566000000E+00 0.  1.
     999900   -1    0    0    0    0 -0.00000000000E+00 -0.00000000000E+00 -0.74505805969E-08  0.93827000000E+00  0.93827000000E+00 0. -1.
     999902    2    1    2    0    0  0.14198492713E-01 -0.79246383384E-02 -0.10334420346E-01  0.10246635179E+01  0.10244823706E+01 0.  0.
     999903    2    3    3    0    0 -0.12074747306E+00 -0.48888167406E-02  0.50106094721E-01  0.13232239158E+00  0.19868110270E-01 0.  0.
         14    1    1    2    0    0 -0.14198492713E-01  0.79246383384E-02  0.10334420346E-01  0.19266482087E-01  0.00000000000E+00 0. -1.
     999901    1    3    3    0    0  0.13494596577E+00 -0.30358215978E-02 -0.60440515067E-01  0.89234112634E+00  0.88000000000E+00 0.  1.
        -11    1    4    4    0    0 -0.47152407323E-01  0.27109930356E-02  0.28827405017E-01  0.55335155196E-01  0.51100000000E-03 0.  1.
         11    1    4    4    0    0 -0.73595065734E-01 -0.75998097762E-02  0.21278689704E-01  0.76987236380E-01  0.51100000000E-03 0. -1.
</event>
<event>
 8    1  0.1081309E+005  0.1043930E+01  0.7957747E-01            NaN
         13   -1    0    0    0    0  0.00000000000E+00  0.00000000000E+00  0.74505805969E-08  0.10566000000E+00  0.10566000000E+00 0. -1.
     999900   -1    0    0    0    0 -0.00000000000E+00 -0.00000000000E+00 -0.74505805969E-08  0.93827000000E+00  0.93827000000E+00 0.  1.
     999902    2    1    2    0    0  0.23128573653E-01  0.10463469655E-01 -0.33804495647E-02  0.10183205768E+01  0.10179985042E+01 0.  0.
     999903    2    3    3    0    0  0.31018754599E-01  0.24765521381E-01  0.12149001900E+00  0.12935520204E+00  0.19936132798E-01 0.  0.
         14    1    1    2    0    0 -0.23128573653E-01 -0.10463469655E-01  0.33804495647E-02  0.25609423182E-01  0.00000000000E+00 0.  1.
     999901    1    3    3    0    0 -0.78901809453E-02 -0.14302051726E-01 -0.12487046857E+00  0.88896537478E+00  0.88000000000E+00 0.  1.
        -11    1    4    4    0    0  0.17888091564E-01  0.71700999927E-02  0.81322559304E-01  0.83576395749E-01  0.51100000000E-03 0.  1.
         11    1    4    4    0    0  0.13130663035E-01  0.17595421389E-01  0.40167459697E-01  0.45778806288E-01  0.51100000000E-03 0. -1.
</event>
<event>
 8    1  0.1081309E+005  0.1043930E+01  0.7957747E-01            NaN
         13   -1    0    0    0    0  0.00000000000E+00  0.00000000000E+00  0.74505805969E-08  0.10566000000E+00  0.10566000000E+00 0.  1.
     999900   -1    0    0    0    0 -0.00000000000E+00 -0.00000000000E+00 -0.74505805969E-08  0.93827000000E+00  0.93827000000E+00 0. -1.
     999902    2    1    2    0    0 -0.53278115281E-03 -0.12345300453E-01 -0.21017062035E-01  0.10195495325E+01  0.10192579860E+01 0.  0.
     999903    2    3    3    0    0 -0.67274977709E-01  0.33388310196E-01  0.10110520317E+00  0.12743971213E+00  0.19440067758E-01 0.  0.
         14    1    1    2    0    0  0.53278115281E-03  0.12345300453E-01  0.21017062035E-01  0.24380467503E-01  0.00000000000E+00 0.  1.
     999901    1    3    3    0    0  0.66742196556E-01 -0.45733610649E-01 -0.12212226521E+00  0.89210982037E+00  0.88000000000E+00 0. -1.
        -11    1    4    4    0    0 -0.35550645611E-01  0.11226106725E-01  0.62492379401E-01  0.72769722273E-01  0.51100000000E-03 0. -1.
         11    1    4    4    0    0 -0.31724332098E-01  0.22162203471E-01  0.38612823773E-01  0.54669989852E-01  0.51100000000E-03 0.  1.
</event>
<event>
 8    1  0.1081309E+005  0.1043930E+01  0.7957747E-01            NaN
         13   -1    0    0    0    0  0.00000000000E+00  0.00000000000E+00  0.74505805969E-08  0.10566000000E+00  0.10566000000E+00 0. -1.
     999900   -1    0    0    0    0 -0.00000000000E+00 -0.00000000000E+00 -0.74505805969E-08  0.93827000000E+00  0.93827000000E+00 0. -1.
     999902    2    1    2    0    0 -0.11912587385E-01  0.83193341538E-02 -0.18495263222E-01  0.10204098848E+01  0.10201387833E+01 0.  0.
     999903    2    3    3    0    0 -0.75639128753E-01 -0.66192461779E-01  0.80567825199E-01  0.12944042665E+00  0.12685810934E-01 0.  0.
         14    1    1    2    0    0  0.11912587385E-01 -0.83193341538E-02  0.18495263222E-01  0.23520115234E-01  0.00000000000E+00 0. -1.
     999901    1    3    3    0    0  0.63726541369E-01  0.74511795933E-01 -0.99063088421E-01  0.89096945812E+00  0.88000000000E+00 0. -1.
        -11    1    4    4    0    0 -0.32459380521E-01 -0.28824137108E-01  0.42874558881E-01  0.61015827325E-01  0.51100000000E-03 0. -1.
         11    1    4    4    0    0 -0.43179748232E-01 -0.37368324671E-01  0.37693266318E-01  0.68424599325E-01  0.51100000000E-03 0.  1.
</event>
<event>
 8    1  0.1081309E+005  0.1043930E+01  0.7957747E-01            NaN
         13   -1    0    0    0    0  0.00000000000E+00  0.00000000000E+00  0.74505805969E-08  0.10566000000E+00  0.10566000000E+00 0.  1.
     999900   -1    0    0    0    0 -0.00000000000E+00 -0.00000000000E+00 -0.74505805969E-08  0.93827000000E+00  0.93827000000E+00 0. -1.
     999902    2    1    2    0    0  0.21784732230E-01 -0.97745136522E-02  0.81920051034E-03  0.10200388559E+01  0.10197590308E+01 0.  0.
     999903    2    3    3    0    0 -0.41220633172E-01  0.47531094481E-01 -0.11070516667E+00  0.12892085405E+00  0.20164502003E-01 0.  0.
         14    1    1    2    0    0 -0.21784732230E-01  0.97745136522E-02 -0.81920051034E-03  0.23891144069E-01  0.00000000000E+00 0.  1.
     999901    1    3    3    0    0  0.63005365401E-01 -0.57305608134E-01  0.11152436718E+00  0.89111800188E+00  0.88000000000E+00 0.  1.
        -11    1    4    4    0    0 -0.27349710367E-01  0.42437008541E-01 -0.76528929720E-01  0.91683393023E-01  0.51100000000E-03 0. -1.
         11    1    4    4    0    0 -0.13870922805E-01  0.50940859400E-02 -0.34176236950E-01  0.37237461032E-01  0.51100000000E-03 0.  1.
</event>
<event>
 8    1  0.1081309E+005  0.1043930E+01  0.7957747E-01            NaN
         13   -1    0    0    0    0  0.00000000000E+00  0.00000000000E+00  0.74505805969E-08  0.10566000000E+00  0.10566000000E+00 0. -1.
     999900   -1    0    0    0    0 -0.00000000000E+00 -0.00000000000E+00 -0.74505805969E-08  0.93827000000E+00  0.93827000000E+00 0.  1.
     999902    2    1    2    0    0 -0.13220028636E-01  0.92236422223E-02 -0.20146587161E-01  0.10181282615E+01  0.10178012710E+01 0.  0.
     999903    2    3    3    0    0 -0.28367503269E-01  0.98273969114E-01 -0.80067537044E-01  0.13147730038E+00  0.20321953133E-01 0.  0.
         14    1    1    2    0    0  0.13220028636E-01 -0.92236422223E-02  0.20146587161E-01  0.25801738454E-01  0.00000000000E+00 0. -1.
     999901    1    3    3    0    0  0.15147474633E-01 -0.89050326891E-01  0.59920949882E-01  0.88665096117E+00  0.88000000000E+00 0. -1.
        -11    1    4    4    0    0 -0.28384987100E-01  0.69229280991E-01 -0.62782809253E-01  0.97674679922E-01  0.51100000000E-03 0. -1.
         11    1    4    4    0    0  0.17483830948E-04  0.29044688122E-01 -0.17284727791E-01  0.33802620455E-01  0.51100000000E-03 0.  1.
</event>
<event>
 8    1  0.1081309E+005  0.1043930E+01  0.7957747E-01            NaN
         13   -1    0    0    0    0  0.00000000000E+00  0.00000000000E+00  0.74505805969E-08  0.10566000000E+00  0.10566000000E+00 0.  1.
     999900   -1    0    0    0    0 -0.00000000000E+00 -0.00000000000E+00 -0.74505805969E-08  0.93827000000E+00  0.93827000000E+00 0. -1.
     999902    2    1    2    0    0 -0.82487299581E-02  0.24223319745E-01 -0.11433152585E-02  0.10183152009E+01  0.10179929913E+01 0.  0.
     999903    2    3    3    0    0 -0.38654732576E-01  0.42769326505E-01  0.11475552317E+00  0.13000161878E+00  0.20203641902E-01 0.  0.
         14    1    1    2    0    0  0.82487299581E-02 -0.24223319745E-01  0.11433152585E-02  0.25614799143E-01  0.00000000000E+00 0.  1.
     999901    1    3    3    0    0  0.30406002618E-01 -0.18546006760E-01 -0.11589883843E+00  0.88831358208E+00  0.88000000000E+00 0. -1.
        -11    1    4    4    0    0 -0.13487563833E-01  0.66903046821E-02  0.45744505313E-01  0.48161140375E-01  0.51100000000E-03 0. -1.
         11    1    4    4    0    0 -0.25167168743E-01  0.36079021823E-01  0.69011017856E-01  0.81840478400E-01  0.51100000000E-03 0.  1.
</event>
<event>
 8    1  0.1081309E+005  0.1043930E+01  0.7957747E-01            NaN
         13   -1    0    0    0    0  0.00000000000E+00  0.00000000000E+00  0.74505805969E-08  0.10566000000E+00  0.10566000000E+00 0.  1.
     999900   -1    0    0    0    0 -0.00000000000E+00 -0.00000000000E+00 -0.74505805969E-08  0.93827000000E+00  0.93827000000E+00 0. -1.
     999902    2    1    2    0    0 -0.19841023891E-01 -0.37929119476E-02 -0.12944814521E-01  0.10199379048E+01  0.10196556816E+01 0.  0.
     999903    2    3    3    0    0  0.71110401073E-01 -0.83925211377E-01 -0.66351945810E-01  0.13002461193E+00  0.20092007107E-01 0.  0.
         14    1    1    2    0    0  0.19841023891E-01  0.37929119476E-02  0.12944814521E-01  0.23992095221E-01  0.00000000000E+00 0.  1.
     999901    1    3    3    0    0 -0.90951424964E-01  0.80132299430E-01  0.53407131289E-01  0.88991329285E+00  0.88000000000E+00 0. -1.
        -11    1    4    4    0    0  0.29438818055E-01 -0.47340128782E-01 -0.40078332829E-01  0.68660510375E-01  0.51100000000E-03 0.  1.
         11    1    4    4    0    0  0.41671583018E-01 -0.36585082595E-01 -0.26273612981E-01  0.61364101556E-01  0.51100000000E-03 0. -1.
</event>
<event>
 8    1  0.1081309E+005  0.1043930E+01  0.7957747E-01            NaN
         13   -1    0    0    0    0  0.00000000000E+00  0.00000000000E+00  0.74505805969E-08  0.10566000000E+00  0.10566000000E+00 0. -1.
     999900   -1    0    0    0    0 -0.00000000000E+00 -0.00000000000E+00 -0.74505805969E-08  0.93827000000E+00  0.93827000000E+00 0.  1.
     999902    2    1    2    0    0  0.21304456202E-01  0.10393944122E-01 -0.11748482905E-02  0.10201961803E+01  0.10199200714E+01 0.  0.
     999903    2    3    3    0    0 -0.11470944315E+00  0.48182467235E-01  0.25400156133E-01  0.12854939814E+00  0.19999333352E-01 0.  0.
         14    1    1    2    0    0 -0.21304456202E-01 -0.10393944122E-01  0.11748482905E-02  0.23733819687E-01  0.00000000000E+00 0.  1.
     999901    1    3    3    0    0  0.13601389935E+00 -0.37788523113E-01 -0.26575004424E-01  0.89164678217E+00  0.88000000000E+00 0. -1.
        -11    1    4    4    0    0 -0.77052647097E-01  0.33719269421E-01  0.75903998477E-02  0.84451020395E-01  0.51100000000E-03 0.  1.
         11    1    4    4    0    0 -0.37656796053E-01  0.14463197814E-01  0.17809756285E-01  0.44098377747E-01  0.51100000000E-03 0. -1.
</event>
<event>
 8    1  0.1081309E+005  0.1043930E+01  0.7957747E-01            NaN
         13   -1    0    0    0    0  0.00000000000E+00  0.00000000000E+00  0.74505805969E-08  0.10566000000E+00  0.10566000000E+00 0. -1.
     999900   -1    0    0    0    0 -0.00000000000E+00 -0.00000000000E+00 -0.74505805969E-08  0.93827000000E+00  0.93827000000E+00 0. -1.
     999902    2    1    2    0    0 -0.30547986095E-02 -0.20376495448E-01 -0.12012294382E-01  0.10200798726E+01  0.10198010188E+01 0.  0.
     999903    2    3    3    0    0 -0.65171807040E-01  0.35383248499E-01  0.10332255015E+00  0.12863733482E+00  0.19304813723E-01 0.  0.
         14    1    1    2    0    0  0.30547986095E-02  0.20376495448E-01  0.12012294382E-01  0.23850127413E-01  0.00000000000E+00 0. -1.
     999901    1    3    3    0    0  0.62117008431E-01 -0.55759743947E-01 -0.11533484453E+00  0.89144253777E+00  0.88000000000E+00 0. -1.
        -11    1    4    4    0    0 -0.52665807222E-01  0.25603125771E-01  0.66953221322E-01  0.88950560796E-01  0.51100000000E-03 0. -1.
         11    1    4    4    0    0 -0.12505999818E-01  0.97801227282E-02  0.36369328826E-01  0.39686774022E-01  0.51100000000E-03 0.  1.
</event>
<event>
 8    1  0.1081309E+005  0.1043930E+01  0.7957747E-01            NaN
         13   -1    0    0    0    0  0.00000000000E+00  0.00000000000E+00  0.74505805969E-08  0.10566000000E+00  0.10566000000E+00 0. -1.
     999900   -1    0    0    0    0 -0.00000000000E+00 -0.00000000000E+00 -0.74505805969E-08  0.93827000000E+00  0.93827000000E+00 0. -1.
     999902    2    1    2    0    0  0.21338259195E-01  0.78301636825E-03 -0.84194110776E-02  0.10209774206E+01  0.10207193896E+01 0.  0.
     999903    2    3    3    0    0 -0.80330031296E-01 -0.37323876117E-01  0.92520514582E-01  0.12857759697E+00  0.11232415949E-01 0.  0.
         14    1    1    2    0    0 -0.21338259195E-01 -0.78301636825E-03  0.84194110776E-02  0.22952579441E-01  0.00000000000E+00 0. -1.
     999901    1    3    3    0    0  0.10166829049E+00  0.38106892485E-01 -0.10093992566E+00  0.89239982359E+00  0.88000000000E+00 0.  1.
        -11    1    4    4    0    0 -0.46826353874E-01 -0.27768130431E-01  0.56219550597E-01  0.78260305872E-01  0.51100000000E-03 0. -1.
         11    1    4    4    0    0 -0.33503677421E-01 -0.95557456855E-02  0.36300963985E-01  0.50317291100E-01  0.51100000000E-03 0.  1.
</event>
<event>
 8    1  0.1081309E+005  0.1043930E+01  0.7957747E-01            NaN
         13   -1    0    0    0    0  0.00000000000E+00  0.00000000000E+00  0.74505805969E-08  0.10566000000E+00  0.10566000000E+00 0.  1.
     999900   -1    0    0    0    0 -0.00000000000E+00 -0.00000000000E+00 -0.74505805969E-08  0.93827000000E+00  0.93827000000E+00 0. -1.
     999902    2    1    2    0    0  0.16838901640E-02 -0.10601923905E-01 -0.22540265227E-01  0.10189640265E+01  0.10186581308E+01 0.  0.
     999903    2    3    3    0    0 -0.39149680628E-02  0.11212864817E+00 -0.61713106928E-01  0.12956611101E+00  0.19766356290E-01 0.  0.
         14    1    1    2    0    0 -0.16838901640E-02  0.10601923905E-01  0.22540265227E-01  0.24965973505E-01  0.00000000000E+00 0.  1.
     999901    1    3    3    0    0  0.55988582268E-02 -0.12273057208E+00  0.39172841701E-01  0.88939791548E+00  0.88000000000E+00 0. -1.
        -11    1    4    4    0    0  0.71031962603E-02  0.56886514410E-01 -0.26737403110E-01  0.63258839421E-01  0.51100000000E-03 0. -1.
         11    1    4    4    0    0 -0.11018164323E-01  0.55242133760E-01 -0.34975703818E-01  0.66307271592E-01  0.51100000000E-03 0.  1.
</event>
<event>
 8    1  0.1081309E+005  0.1043930E+01  0.7957747E-01            NaN
         13   -1    0    0    0    0  0.00000000000E+00  0.00000000000E+00  0.74505805969E-08  0.10566000000E+00  0.10566000000E+00 0.  1.
     999900   -1    0    0    0    0 -0.00000000000E+00 -0.00000000000E+00 -0.74505805969E-08  0.93827000000E+00  0.93827000000E+00 0.  1.
     999902    2    1    2    0    0 -0.14865616288E-01 -0.99822022524E-02 -0.12720315684E-01  0.10219655437E+01  0.10217294824E+01 0.  0.
     999903    2    3    3    0    0  0.68514942760E-01 -0.10723116279E-01 -0.11110214051E+00  0.13256583039E+00  0.20511732202E-01 0.  0.
         14    1    1    2    0    0  0.14865616288E-01  0.99822022524E-02  0.12720315684E-01  0.21964456300E-01  0.00000000000E+00 0.  1.
     999901    1    3    3    0    0 -0.83380559047E-01  0.74091402699E-03  0.98381824822E-01  0.88939971331E+00  0.88000000000E+00 0. -1.
        -11    1    4    4    0    0  0.13145700737E-01 -0.10222184049E-01 -0.30893742208E-01  0.35099671270E-01  0.51100000000E-03 0.  1.
         11    1    4    4    0    0  0.55369242023E-01 -0.50093223058E-03 -0.80208398298E-01  0.97466159121E-01  0.51100000000E-03 0. -1.
</event>
<event>
 8    1  0.1081309E+005  0.1043930E+01  0.7957747E-01            NaN
         13   -1    0    0    0    0  0.00000000000E+00  0.00000000000E+00  0.74505805969E-08  0.10566000000E+00  0.10566000000E+00 0. -1.
     999900   -1    0    0    0    0 -0.00000000000E+00 -0.00000000000E+00 -0.74505805969E-08  0.93827000000E+00  0.93827000000E+00 0.  1.
     999902    2    1    2    0    0 -0.19467119059E-01 -0.12400969198E-01 -0.80381541764E-02  0.10194889549E+01  0.10191959402E+01 0.  0.
     999903    2    3    3    0    0 -0.11136938508E+00  0.51167437746E-01 -0.43564594597E-01  0.13171133817E+00  0.20706426043E-01 0.  0.
         14    1    1    2    0    0  0.19467119059E-01  0.12400969198E-01  0.80381541764E-02  0.24441045069E-01  0.00000000000E+00 0.  1.
     999901    1    3    3    0    0  0.91902266025E-01 -0.63568406944E-01  0.35526440421E-01  0.88777761677E+00  0.88000000000E+00 0. -1.
        -11    1    4    4    0    0 -0.69321833311E-01  0.29344147676E-01 -0.16206784077E-01  0.77003354132E-01  0.51100000000E-03 0. -1.
         11    1    4    4    0    0 -0.42047551773E-01  0.21823290070E-01 -0.27357810521E-01  0.54707984034E-01  0.51100000000E-03 0.  1.
</event>
<event>
 8    1  0.1081309E+005  0.1043930E+01  0.7957747E-01            NaN
         13   -1    0    0    0    0  0.00000000000E+00  0.00000000000E+00  0.74505805969E-08  0.10566000000E+00  0.10566000000E+00 0. -1.
     999900   -1    0    0    0    0 -0.00000000000E+00 -0.00000000000E+00 -0.74505805969E-08  0.93827000000E+00  0.93827000000E+00 0.  1.
     999902    2    1    2    0    0 -0.24812350466E-01  0.58140853432E-02  0.31779935469E-02  0.10182481783E+01  0.10179242588E+01 0.  0.
     999903    2    3    3    0    0 -0.27850302007E-01 -0.11236436292E+00  0.53018024254E-01  0.12894541575E+00  0.20362219188E-01 0.  0.
         14    1    1    2    0    0  0.24812350466E-01 -0.58140853432E-02 -0.31779935469E-02  0.25681821723E-01  0.00000000000E+00 0.  1.
     999901    1    3    3    0    0  0.30379515411E-02  0.11817844826E+00 -0.49840030707E-01  0.88930276253E+00  0.88000000000E+00 0.  1.
        -11    1    4    4    0    0 -0.19295633769E-01 -0.69802383155E-01  0.22358111206E-01  0.75794725637E-01  0.51100000000E-03 0. -1.
         11    1    4    4    0    0 -0.85546682382E-02 -0.42561979765E-01  0.30659913047E-01  0.53150690110E-01  0.51100000000E-03 0.  1.
</event>
<event>
 8    1  0.1081309E+005  0.1043930E+01  0.7957747E-01            NaN
         13   -1    0    0    0    0  0.00000000000E+00  0.00000000000E+00  0.74505805969E-08  0.10566000000E+00  0.10566000000E+00 0.  1.
     999900   -1    0    0    0    0 -0.00000000000E+00 -0.00000000000E+00 -0.74505805969E-08  0.93827000000E+00  0.93827000000E+00 0. -1.
     999902    2    1    2    0    0 -0.14131431432E-01 -0.37188090130E-02  0.18796716703E-01  0.10201215256E+01  0.10198436564E+01 0.  0.
     999903    2    3    3    0    0 -0.87621018844E-01  0.16457404534E-01  0.97037734264E-01  0.13336933029E+00  0.20561305474E-01 0.  0.
         14    1    1    2    0    0  0.14131431432E-01  0.37188090130E-02 -0.18796716703E-01  0.23808474407E-01  0.00000000000E+00 0. -1.
     999901    1    3    3    0    0  0.73489587412E-01 -0.20176213547E-01 -0.78241017561E-01  0.88675219531E+00  0.88000000000E+00 0. -1.
        -11    1    4    4    0    0 -0.86412898192E-01  0.12534499219E-01  0.93415552487E-01  0.12787114300E+00  0.51100000000E-03 0. -1.
         11    1    4    4    0    0 -0.12081206528E-02  0.39229053152E-02  0.36221817771E-02  0.54981872877E-02  0.51100000000E-03 0.  1.
</event>
<event>
 8    1  0.1081309E+005  0.1043930E+01  0.7957747E-01            NaN
         13   -1    0    0    0    0  0.00000000000E+00  0.00000000000E+00  0.74505805969E-08  0.10566000000E+00  0.10566000000E+00 0. -1.
     999900   -1    0    0    0    0 -0.00000000000E+00 -0.00000000000E+00 -0.74505805969E-08  0.93827000000E+00  0.93827000000E+00 0.  1.
     999902    2    1    2    0    0  0.43427520561E-02  0.23517804815E-01  0.31031218339E-02  0.10198141130E+01  0.10195289349E+01 0.  0.
     999903    2    3    3    0    0  0.11909819012E+00  0.11326559954E-01  0.49200643836E-01  0.13108332222E+00  0.21200569817E-01 0.  0.
         14    1    1    2    0    0 -0.43427520561E-02 -0.23517804815E-01 -0.31031218339E-02  0.24115886960E-01  0.00000000000E+00 0. -1.
     999901    1    3    3    0    0 -0.11475543806E+00  0.12191244861E-01 -0.46097522002E-01  0.88873079082E+00  0.88000000000E+00 0. -1.
        -11    1    4    4    0    0  0.43465269378E-01  0.30830804634E-02  0.71709893718E-02  0.44163550999E-01  0.51100000000E-03 0. -1.
         11    1    4    4    0    0  0.75632920740E-01  0.82434794907E-02  0.42029654464E-01  0.86919771221E-01  0.51100000000E-03 0.  1.
</event>
<event>
 8    1  0.1081309E+005  0.1043930E+01  0.7957747E-01            NaN
         13   -1    0    0    0    0  0.00000000000E+00  0.00000000000E+00  0.74505805969E-08  0.10566000000E+00  0.10566000000E+00 0. -1.
     999900   -1    0    0    0    0 -0.00000000000E+00 -0.00000000000E+00 -0.74505805969E-08  0.93827000000E+00  0.93827000000E+00 0.  1.
     999902    2    1    2    0    0  0.12579833748E-01 -0.12791246376E-01 -0.14575792126E-01  0.10208145957E+01  0.10205528486E+01 0.  0.
     999903    2    3    3    0    0  0.95278460586E-01 -0.71565804054E-01 -0.58091941986E-01  0.13391710058E+00  0.18959608174E-01 0.  0.
         14    1    1    2    0    0 -0.12579833748E-01  0.12791246376E-01  0.14575792126E-01  0.23115404324E-01  0.00000000000E+00 0. -1.
     999901    1    3    3    0    0 -0.82698626838E-01  0.58774557679E-01  0.43516149860E-01  0.88689749510E+00  0.88000000000E+00 0. -1.
        -11    1    4    4    0    0  0.58303017203E-01 -0.36202736614E-01 -0.25303721643E-01  0.73146561117E-01  0.51100000000E-03 0.  1.
         11    1    4    4    0    0  0.36975443383E-01 -0.35363067440E-01 -0.32788220343E-01  0.60770539461E-01  0.51100000000E-03 0. -1.
</event>
<event>
 8    1  0.1081309E+005  0.1043930E+01  0.7957747E-01            NaN
         13   -1    0    0    0    0  0.00000000000E+00  0.00000000000E+00  0.74505805969E-08  0.10566000000E+00  0.10566000000E+00 0.  1.
     999900   -1    0    0    0    0 -0.00000000000E+00 -0.00000000000E+00 -0.74505805969E-08  0.93827000000E+00  0.93827000000E+00 0.  1.
     999902    2    1    2    0    0 -0.96839657759E-03  0.21448562312E-01 -0.15597451692E-01  0.10173921192E+01  0.10170459504E+01 0.  0.
     999903    2    3    3    0    0  0.12130782340E+00 -0.30294464415E-01  0.10657391952E-01  0.12704492199E+00  0.19836572483E-01 0.  0.
         14    1    1    2    0    0  0.96839657759E-03 -0.21448562312E-01  0.15597451692E-01  0.26537880783E-01  0.00000000000E+00 0.  1.
     999901    1    3    3    0    0 -0.12227621998E+00  0.51743026726E-01 -0.26254843644E-01  0.89034719722E+00  0.88000000000E+00 0.  1.
        -11    1    4    4    0    0  0.92880294801E-01 -0.28665094159E-01  0.18019292946E-02  0.97221113219E-01  0.51100000000E-03 0. -1.
         11    1    4    4    0    0  0.28427528604E-01 -0.16293702564E-02  0.88554626577E-02  0.29823808775E-01  0.51100000000E-03 0.  1.
</event>
<event>
 8    1  0.1081309E+005  0.1043930E+01  0.7957747E-01            NaN
         13   -1    0    0    0    0  0.00000000000E+00  0.00000000000E+00  0.74505805969E-08  0.10566000000E+00  0.10566000000E+00 0. -1.
     999900   -1    0    0    0    0 -0.00000000000E+00 -0.00000000000E+00 -0.74505805969E-08  0.93827000000E+00  0.93827000000E+00 0. -1.
     999902    2    1    2    0    0  0.17276501227E-01  0.16050070013E-01  0.53105421390E-02  0.10197580307E+01  0.10194715087E+01 0.  0.
     999903    2    3    3    0    0  0.28751651071E-01  0.12998501078E-01  0.12601907651E+00  0.13143852657E+00  0.19991502042E-01 0.  0.
         14    1    1    2    0    0 -0.17276501227E-01 -0.16050070013E-01 -0.53105421390E-02  0.24171969301E-01  0.00000000000E+00 0.  1.
     999901    1    3    3    0    0 -0.11475149844E-01  0.30515689355E-02 -0.12070853437E+00  0.88831950412E+00  0.88000000000E+00 0. -1.
        -11    1    4    4    0    0  0.69108919457E-02  0.13373261028E-01  0.61600496772E-01  0.63415194248E-01  0.51100000000E-03 0. -1.
         11    1    4    4    0    0  0.21840759125E-01 -0.37475995051E-03  0.64418579740E-01  0.68023332327E-01  0.51100000000E-03 0.  1.
</event>
<event>
 8    1  0.1081309E+005  0.1043930E+01  0.7957747E-01            NaN
         13   -1    0    0    0    0  0.00000000000E+00  0.00000000000E+00  0.74505805969E-08  0.10566000000E+00  0.10566000000E+00 0.  1.
     999900   -1    0    0    0    0 -0.00000000000E+00 -0.00000000000E+00 -0.74505805969E-08  0.93827000000E+00  0.93827000000E+00 0. -1.
     999902    2    1    2    0    0  0.22362528422E-01  0.64950448857E-02  0.71604919893E-04  0.10206432352E+01  0.10203775479E+01 0.  0.
     999903    2    3    3    0    0 -0.10066952514E+00  0.22940169159E-01 -0.74499247253E-01  0.12880909130E+00  0.19520233279E-01 0.  0.
         14    1    1    2    0    0 -0.22362528422E-01 -0.64950448857E-02 -0.71604919893E-04  0.23286764755E-01  0.00000000000E+00 0.  1.
     999901    1    3    3    0    0  0.12303205356E+00 -0.16445124273E-01  0.74570852173E-01  0.89183414395E+00  0.88000000000E+00 0. -1.
        -11    1    4    4    0    0 -0.66802727472E-01  0.80466036311E-02 -0.55458801625E-01  0.87196857893E-01  0.51100000000E-03 0.  1.
         11    1    4    4    0    0 -0.33866797665E-01  0.14893565528E-01 -0.19040445628E-01  0.41612233405E-01  0.51100000000E-03 0. -1.
</event>
<event>
 8    1  0.1081309E+005  0.1043930E+01  0.7957747E-01            NaN
         13   -1    0    0    0    0  0.00000000000E+00  0.00000000000E+00  0.74505805969E-08  0.10566000000E+00  0.10566000000E+00 0.  1.
     999900   -1    0    0    0    0 -0.00000000000E+00 -0.00000000000E+00 -0.74505805969E-08  0.93827000000E+00  0.93827000000E+00 0.  1.
     999902    2    1    2    0    0  0.97320742432E-02  0.21279736358E-01  0.56580791461E-02  0.10198560658E+01  0.10195718909E+01 0.  0.
     999903    2    3    3    0    0  0.58560829563E-02 -0.10192769185E+00 -0.74032789294E-01  0.12769816038E+00  0.20060363960E-01 0.  0.
         14    1    1    2    0    0 -0.97320742432E-02 -0.21279736358E-01 -0.56580791461E-02  0.24073934206E-01  0.00000000000E+00 0.  1.
     999901    1    3    3    0    0  0.38759912869E-02  0.12320742820E+00  0.79690868440E-01  0.89215790541E+00  0.88000000000E+00 0. -1.
        -11    1    4    4    0    0  0.10329951927E-02 -0.55080889481E-01 -0.51786264428E-01  0.75611174898E-01  0.51100000000E-03 0. -1.
         11    1    4    4    0    0  0.48230877636E-02 -0.46846802364E-01 -0.22246524866E-01  0.52086985485E-01  0.51100000000E-03 0.  1.
</event>
<event>
 8    1  0.1081309E+005  0.1043930E+01  0.7957747E-01            NaN
         13   -1    0    0    0    0  0.00000000000E+00  0.00000000000E+00  0.74505805969E-08  0.10566000000E+00  0.10566000000E+00 0. -1.
     999900   -1    0    0    0    0 -0.00000000000E+00 -0.00000000000E+00 -0.74505805969E-08  0.93827000000E+00  0.93827000000E+00 0. -1.
     999902    2    1    2    0    0 -0.14921431631E-01  0.11575579824E-01 -0.11379800215E-01  0.10218813487E+01  0.10216434544E+01 0.  0.
     999903    2    3    3    0    0 -0.21438875520E-01  0.59934133665E-02 -0.13037279056E+00  0.13383125475E+00  0.20449788290E-01 0.  0.
         14    1    1    2    0    0  0.14921431631E-01 -0.11575579824E-01  0.11379800215E-01  0.22048651277E-01  0.00000000000E+00 0. -1.
     999901    1    3    3    0    0  0.65174438891E-02  0.55821664575E-02  0.11899299035E+00  0.88805009398E+00  0.88000000000E+00 0.  1.
        -11    1    4    4    0    0  0.29529637618E-02  0.85051740121E-03 -0.38796043510E-01  0.38920913245E-01  0.51100000000E-03 0.  1.
         11    1    4    4    0    0 -0.24391839282E-01  0.51428959653E-02 -0.91576747053E-01  0.94910341503E-01  0.51100000000E-03 0. -1.
</event>
<event>
 8    1  0.1081309E+005  0.1043930E+01  0.7957747E-01            NaN
         13   -1    0    0    0    0  0.00000000000E+00  0.00000000000E+00  0.74505805969E-08  0.10566000000E+00  0.10566000000E+00 0. -1.
     999900   -1    0    0    0    0 -0.00000000000E+00 -0.00000000000E+00 -0.74505805969E-08  0.93827000000E+00  0.93827000000E+00 0. -1.
     999902    2    1    2    0    0 -0.18296476285E-01  0.11631313815E-01  0.99524919298E-02  0.10200741705E+01  0.10197951818E+01 0.  0.
     999903    2    3    3    0    0 -0.11134544831E+00 -0.66906509988E-01  0.13425989514E-01  0.13168328460E+00  0.16909769652E-01 0.  0.
         14    1    1    2    0    0  0.18296476285E-01 -0.11631313815E-01 -0.99524919298E-02  0.23855829500E-01  0.00000000000E+00 0. -1.
     999901    1    3    3    0    0  0.93048972030E-01  0.78537823803E-01 -0.34734975838E-02  0.88839088590E+00  0.88000000000E+00 0. -1.
        -11    1    4    4    0    0 -0.36201285602E-01 -0.25010431059E-01 -0.29512856311E-02  0.44102448332E-01  0.51100000000E-03 0.  1.
         11    1    4    4    0    0 -0.75144162713E-01 -0.41896078929E-01  0.16377275145E-01  0.87580836269E-01  0.51100000000E-03 0. -1.
</event>
<event>
 8    1  0.1081309E+005  0.1043930E+01  0.7957747E-01            NaN
         13   -1    0    0    0    0  0.00000000000E+00  0.00000000000E+00  0.74505805969E-08  0.10566000000E+00  0.10566000000E+00 0.  1.
     999900   -1    0    0    0    0 -0.00000000000E+00 -0.00000000000E+00 -0.74505805969E-08  0.93827000000E+00  0.93827000000E+00 0.  1.
     999902    2    1    2    0    0  0.33844942912E-03 -0.15444699572E-01  0.16744295498E-01  0.10211478859E+01  0.10208937163E+01 0.  0.
     999903    2    3    3    0    0 -0.59194674520E-01  0.11352000166E+00 -0.71388564902E-03  0.12958696529E+00  0.20036758014E-01 0.  0.
         14    1    1    2    0    0 -0.33844942912E-03  0.15444699572E-01 -0.16744295498E-01  0.22782114138E-01  0.00000000000E+00 0. -1.
     999901    1    3    3    0    0  0.59533123949E-01 -0.12896470123E+00  0.17458181147E-01  0.89156092058E+00  0.88000000000E+00 0. -1.
        -11    1    4    4    0    0 -0.28630297460E-01  0.60048726666E-01  0.93408912387E-02  0.67179289048E-01  0.51100000000E-03 0. -1.
         11    1    4    4    0    0 -0.30564377060E-01  0.53471274991E-01 -0.10054776888E-01  0.62407676238E-01  0.51100000000E-03 0.  1.
</event>
<event>
 8    1  0.1081309E+005  0.1043930E+01  0.7957747E-01            NaN
         13   -1    0    0    0    0  0.00000000000E+00  0.00000000000E+00  0.74505805969E-08  0.10566000000E+00  0.10566000000E+00 0.  1.
     999900   -1    0    0    0    0 -0.00000000000E+00 -0.00000000000E+00 -0.74505805969E-08  0.93827000000E+00  0.93827000000E+00 0. -1.
     999902    2    1    2    0    0  0.99072397576E-02 -0.20309040813E-01 -0.59677347251E-02  0.10205585560E+01  0.10202909104E+01 0.  0.
     999903    2    3    3    0    0 -0.65573777507E-01  0.65883938167E-01 -0.87685571872E-01  0.12937708259E+00  0.20225142247E-01 0.  0.
         14    1    1    2    0    0 -0.99072397576E-02  0.20309040813E-01  0.59677347251E-02  0.23371444032E-01  0.00000000000E+00 0.  1.
     999901    1    3    3    0    0  0.75481017265E-01 -0.86192978980E-01  0.81717837147E-01  0.89118147338E+00  0.88000000000E+00 0.  1.
        -11    1    4    4    0    0 -0.14079212173E-01  0.84383543868E-02 -0.73374372096E-02  0.17986915966E-01  0.51100000000E-03 0.  1.
         11    1    4    4    0    0 -0.51494565335E-01  0.57445583780E-01 -0.80348134662E-01  0.11139016662E+00  0.51100000000E-03 0. -1.
</event>
<event>
 8    1  0.1081309E+005  0.1043930E+01  0.7957747E-01            NaN
         13   -1    0    0    0    0  0.00000000000E+00  0.00000000000E+00  0.74505805969E-08  0.10566000000E+00  0.10566000000E+00 0.  1.
     999900   -1    0    0    0    0 -0.00000000000E+00 -0.00000000000E+00 -0.74505805969E-08  0.93827000000E+00  0.93827000000E+00 0.  1.
     999902    2    1    2    0    0 -0.20184536474E-01 -0.55913129552E-02 -0.10370659497E-01  0.10205584602E+01  0.10202908124E+01 0.  0.
     999903    2    3    3    0    0  0.10116881908E+00  0.68102908227E-01 -0.34558262398E-01  0.12885082020E+00  0.23132753910E-01 0.  0.
         14    1    1    2    0    0  0.20184536474E-01  0.55913129552E-02  0.10370659497E-01  0.23371539779E-01  0.00000000000E+00 0.  1.
     999901    1    3    3    0    0 -0.12135335555E+00 -0.73694221182E-01  0.24187602901E-01  0.89170764002E+00  0.88000000000E+00 0. -1.
        -11    1    4    4    0    0  0.99967941770E-02  0.89999232315E-04 -0.14188563703E-03  0.10011255976E-01  0.51100000000E-03 0. -1.
         11    1    4    4    0    0  0.91172024901E-01  0.68012908995E-01 -0.34416376761E-01  0.11883956422E+00  0.51100000000E-03 0.  1.
</event>
<event>
 8    1  0.1081309E+005  0.1043930E+01  0.7957747E-01            NaN
         13   -1    0    0    0    0  0.00000000000E+00  0.00000000000E+00  0.74505805969E-08  0.10566000000E+00  0.10566000000E+00 0. -1.
     999900   -1    0    0    0    0 -0.00000000000E+00 -0.00000000000E+00 -0.74505805969E-08  0.93827000000E+00  0.93827000000E+00 0.  1.
     999902    2    1    2    0    0 -0.49075425921E-02 -0.19847097592E-01 -0.81412785382E-02  0.10219238265E+01  0.10216868578E+01 0.  0.
     999903    2    3    3    0    0  0.10176937068E+00  0.57870816387E-01 -0.54906729811E-01  0.13085309672E+00  0.20043645999E-01 0.  0.
         14    1    1    2    0    0  0.49075425921E-02  0.19847097592E-01  0.81412785382E-02  0.22006173528E-01  0.00000000000E+00 0. -1.
     999901    1    3    3    0    0 -0.10667691328E+00 -0.77717913979E-01  0.46765451273E-01  0.89107072975E+00  0.88000000000E+00 0. -1.
        -11    1    4    4    0    0  0.42678938970E-01  0.17900161762E-01 -0.30600467541E-01  0.55484748873E-01  0.51100000000E-03 0. -1.
         11    1    4    4    0    0  0.59090431715E-01  0.39970654625E-01 -0.24306262270E-01  0.75368347852E-01  0.51100000000E-03 0.  1.
</event>
<event>
 8    1  0.1081309E+005  0.1043930E+01  0.7957747E-01            NaN
         13   -1    0    0    0    0  0.00000000000E+00  0.00000000000E+00  0.74505805969E-08  0.10566000000E+00  0.10566000000E+00 0. -1.
     999900   -1    0    0    0    0 -0.00000000000E+00 -0.00000000000E+00 -0.74505805969E-08  0.93827000000E+00  0.93827000000E+00 0.  1.
     999902    2    1    2    0    0 -0.71541123575E-02  0.64440673514E-02  0.21974061307E-01  0.10199390288E+01  0.10196568324E+01 0.  0.
     999903    2    3    3    0    0 -0.11345685450E+00  0.60275398801E-01 -0.16701623538E-01  0.13106676925E+00  0.19848733974E-01 0.  0.
         14    1    1    2    0    0  0.71541123575E-02 -0.64440673514E-02 -0.21974061307E-01  0.23990971177E-01  0.00000000000E+00 0.  1.
     999901    1    3    3    0    0  0.10630274214E+00 -0.53831331449E-01  0.38675684845E-01  0.88887225957E+00  0.88000000000E+00 0.  1.
        -11    1    4    4    0    0 -0.55636399491E-01  0.19016777036E-01 -0.42695147361E-02  0.58953682109E-01  0.51100000000E-03 0. -1.
         11    1    4    4    0    0 -0.57820455009E-01  0.41258621764E-01 -0.12432108802E-01  0.72113087145E-01  0.51100000000E-03 0.  1.
</event>
<event>
 8    1  0.1081309E+005  0.1043930E+01  0.7957747E-01            NaN
         13   -1    0    0    0    0  0.00000000000E+00  0.00000000000E+00  0.74505805969E-08  0.10566000000E+00  0.10566000000E+00 0. -1.
     999900   -1    0    0    0    0 -0.00000000000E+00 -0.00000000000E+00 -0.74505805969E-08  0.93827000000E+00  0.93827000000E+00 0.  1.
     999902    2    1    2    0    0 -0.20992610304E-02 -0.15980976142E-01  0.92618900854E-02  0.10253401882E+01  0.10251716541E+01 0.  0.
     999903    2    3    3    0    0  0.50709259826E-01  0.76455488449E-01 -0.94039973965E-01  0.13292519785E+00  0.20216843814E-01 0.  0.
         14    1    1    2    0    0  0.20992610304E-02  0.15980976142E-01 -0.92618900854E-02  0.18589811814E-01  0.00000000000E+00 0.  1.
     999901    1    3    3    0    0 -0.52808520856E-01 -0.92436464591E-01  0.10330186405E+00  0.89241499034E+00  0.88000000000E+00 0. -1.
        -11    1    4    4    0    0  0.19647749149E-01  0.29170409773E-01 -0.22654512813E-01  0.41838199349E-01  0.51100000000E-03 0.  1.
         11    1    4    4    0    0  0.31061510677E-01  0.47285078676E-01 -0.71385461152E-01  0.91086998501E-01  0.51100000000E-03 0. -1.
</event>
<event>
 8    1  0.1081309E+005  0.1043930E+01  0.7957747E-01            NaN
         13   -1    0    0    0    0  0.00000000000E+00  0.00000000000E+00  0.74505805969E-08  0.10566000000E+00  0.10566000000E+00 0. -1.
     999900   -1    0    0    0    0 -0.00000000000E+00 -0.00000000000E+00 -0.74505805969E-08  0.93827000000E+00  0.93827000000E+00 0.  1.
     999902    2    1    2    0    0 -0.13894226074E-02  0.28220194987E-01 -0.64895431102E-02  0.10149399315E+01  0.10145258205E+01 0.  0.
     999903    2    3    3    0    0 -0.13510266545E-01  0.71286897125E-01 -0.10404792719E+00  0.12841903838E+00  0.20028211650E-01 0.  0.
         14    1    1    2    0    0  0.13894226074E-02 -0.28220194987E-01  0.64895431102E-02  0.28990068473E-01  0.00000000000E+00 0.  1.
     999901    1    3    3    0    0  0.12120843938E-01 -0.43066702138E-01  0.97558384075E-01  0.88652089315E+00  0.88000000000E+00 0. -1.
        -11    1    4    4    0    0 -0.33192726491E-02  0.53724351463E-01 -0.84761435541E-01  0.10040958912E+00  0.51100000000E-03 0.  1.
         11    1    4    4    0    0 -0.10190993896E-01  0.17562545662E-01 -0.19286491644E-01  0.28009449256E-01  0.51100000000E-03 0. -1.
</event>
<event>
 8    1  0.1081309E+005  0.1043930E+01  0.7957747E-01            NaN
         13   -1    0    0    0    0  0.00000000000E+00  0.00000000000E+00  0.74505805969E-08  0.10566000000E+00  0.10566000000E+00 0. -1.
     999900   -1    0    0    0    0 -0.00000000000E+00 -0.00000000000E+00 -0.74505805969E-08  0.93827000000E+00  0.93827000000E+00 0.  1.
     999902    2    1    2    0    0  0.17397256145E-01 -0.59942508657E-02 -0.14781686433E-01  0.10203271650E+01  0.10200541309E+01 0.  0.
     999903    2    3    3    0    0 -0.11829621937E+00  0.32342626591E-01 -0.34142499130E-01  0.12889165052E+00  0.20181831282E-01 0.  0.
         14    1    1    2    0    0 -0.17397256145E-01  0.59942508657E-02  0.14781686433E-01  0.23602834970E-01  0.00000000000E+00 0.  1.
     999901    1    3    3    0    0  0.13569347551E+00 -0.38336877456E-01  0.19360812697E-01  0.89143551451E+00  0.88000000000E+00 0.  1.
        -11    1    4    4    0    0 -0.78095913370E-01  0.12764146189E-01 -0.16598186257E-01  0.80855772961E-01  0.51100000000E-03 0.  1.
         11    1    4    4    0    0 -0.40200305998E-01  0.19578480401E-01 -0.17544312873E-01  0.48035877554E-01  0.51100000000E-03 0. -1.
</event>
<event>
 8    1  0.1081309E+005  0.1043930E+01  0.7957747E-01            NaN
         13   -1    0    0    0    0  0.00000000000E+00  0.00000000000E+00  0.74505805969E-08  0.10566000000E+00  0.10566000000E+00 0. -1.
     999900   -1    0    0    0    0 -0.00000000000E+00 -0.00000000000E+00 -0.74505805969E-08  0.93827000000E+00  0.93827000000E+00 0.  1.
     999902    2    1    2    0    0 -0.13448390522E-01 -0.12536584058E-01 -0.14794881600E-01  0.10203309816E+01  0.10200580368E+01 0.  0.
     999903    2    3    3    0    0  0.85283548185E-02  0.10549414194E+00 -0.73214975313E-01  0.13025955921E+00  0.20133885299E-01 0.  0.
         14    1    1    2    0    0  0.13448390522E-01  0.12536584058E-01  0.14794881600E-01  0.23599018391E-01  0.00000000000E+00 0. -1.
     999901    1    3    3    0    0 -0.21976745340E-01 -0.11803072600E+00  0.58420093713E-01  0.89007142240E+00  0.88000000000E+00 0.  1.
        -11    1    4    4    0    0  0.99185204598E-02  0.21899141704E-01 -0.14264634795E-01  0.27958726408E-01  0.51100000000E-03 0. -1.
         11    1    4    4    0    0 -0.13901656413E-02  0.83595000233E-01 -0.58950340519E-01  0.10230083281E+00  0.51100000000E-03 0.  1.
</event>
<event>
 8    1  0.1081309E+005  0.1043930E+01  0.7957747E-01            NaN
         13   -1    0    0    0    0  0.00000000000E+00  0.00000000000E+00  0.74505805969E-08  0.10566000000E+00  0.10566000000E+00 0. -1.
     999900   -1    0    0    0    0 -0.00000000000E+00 -0.00000000000E+00 -0.74505805969E-08  0.93827000000E+00  0.93827000000E+00 0.  1.
     999902    2    1    2    0    0  0.22004740314E-01  0.84750969444E-02  0.53201609531E-02  0.10197568749E+01  0.10194703252E+01 0.  0.
     999903    2    3    3    0    0 -0.32364181691E-01 -0.12128541480E+00 -0.17291538293E-01  0.12829455992E+00  0.20072486354E-01 0.  0.
         14    1    1    2    0    0 -0.22004740314E-01 -0.84750969444E-02 -0.53201609531E-02  0.24173125099E-01  0.00000000000E+00 0.  1.
     999901    1    3    3    0    0  0.54368922005E-01  0.12976051175E+00  0.22611699246E-01  0.89146231498E+00  0.88000000000E+00 0. -1.
        -11    1    4    4    0    0 -0.32557823967E-01 -0.93153101379E-01 -0.17133304106E-01  0.10015649469E+00  0.51100000000E-03 0.  1.
         11    1    4    4    0    0  0.19364227627E-03 -0.28132313422E-01 -0.15823418698E-03  0.28138065230E-01  0.51100000000E-03 0. -1.
</event>
<event>
 8    1  0.1081309E+005  0.1043930E+01  0.7957747E-01            NaN
         13   -1    0    0    0    0  0.00000000000E+00  0.00000000000E+00  0.74505805969E-08  0.10566000000E+00  0.10566000000E+00 0. -1.
     999900   -1    0    0    0    0 -0.00000000000E+00 -0.00000000000E+00 -0.74505805969E-08  0.93827000000E+00  0.93827000000E+00 0.  1.
     999902    2    1    2    0    0 -0.10032830634E-01 -0.18236207925E-01 -0.11803484709E-01  0.10200022082E+01  0.10197215137E+01 0.  0.
     999903    2    3    3    0    0 -0.12386879291E+00 -0.17683031456E-01  0.35142036630E-01  0.13142873666E+00  0.19554606204E-01 0.  0.
         14    1    1    2    0    0  0.10032830634E-01  0.18236207925E-01  0.11803484709E-01  0.23927791819E-01  0.00000000000E+00 0. -1.
     999901    1    3    3    0    0  0.11383596228E+00 -0.55317646919E-03 -0.46945521339E-01  0.88857347152E+00  0.88000000000E+00 0. -1.
        -11    1    4    4    0    0 -0.92820541971E-01 -0.57150475487E-02  0.21425700514E-01  0.95433938113E-01  0.51100000000E-03 0.  1.
         11    1    4    4    0    0 -0.31048250940E-01 -0.11967983907E-01  0.13716336116E-01  0.35994798550E-01  0.51100000000E-03 0. -1.
</event>
<event>
 8    1  0.1081309E+005  0.1043930E+01  0.7957747E-01            NaN
         13   -1    0    0    0    0  0.00000000000E+00  0.00000000000E+00  0.74505805969E-08  0.10566000000E+00  0.10566000000E+00 0. -1.
     999900   -1    0    0    0    0 -0.00000000000E+00 -0.00000000000E+00 -0.74505805969E-08  0.93827000000E+00  0.93827000000E+00 0.  1.
     999902    2    1    2    0    0 -0.31363242427E-02 -0.83913800515E-02 -0.21443536585E-01  0.10206904421E+01  0.10204258433E+01 0.  0.
     999903    2    3    3    0    0 -0.71376650300E-01 -0.25735859785E-01  0.10255330822E+00  0.12921257330E+00  0.20536489133E-01 0.  0.
         14    1    1    2    0    0  0.31363242427E-02  0.83913800515E-02  0.21443536585E-01  0.23239557874E-01  0.00000000000E+00 0. -1.
     999901    1    3    3    0    0  0.68240326057E-01  0.17344479733E-01 -0.12399684481E+00  0.89147786882E+00  0.88000000000E+00 0.  1.
        -11    1    4    4    0    0 -0.28980184062E-01  0.28498229831E-04  0.37030684592E-01  0.47025361272E-01  0.51100000000E-03 0.  1.
         11    1    4    4    0    0 -0.42396466238E-01 -0.25764358015E-01  0.65522623629E-01  0.82187212032E-01  0.51100000000E-03 0. -1.
</event>
<event>
 8    1  0.1081309E+005  0.1043930E+01  0.7957747E-01            NaN
         13   -1    0    0    0    0  0.00000000000E+00  0.00000000000E+00  0.74505805969E-08  0.10566000000E+00  0.10566000000E+00 0.  1.
     999900   -1    0    0    0    0 -0.00000000000E+00 -0.00000000000E+00 -0.74505805969E-08  0.93827000000E+00  0.93827000000E+00 0.  1.
     999902    2    1    2    0    0 -0.16682969685E-01  0.10901097004E-01  0.13089780341E-01  0.10200868093E+01  0.10198081196E+01 0.  0.
     999903    2    3    3    0    0  0.96096523581E-01 -0.81668155721E-01 -0.67843731987E-02  0.12785182757E+00  0.19895541939E-01 0.  0.
         14    1    1    2    0    0  0.16682969685E-01 -0.10901097004E-01 -0.13089780341E-01  0.23843190700E-01  0.00000000000E+00 0. -1.
     999901    1    3    3    0    0 -0.11277949327E+00  0.92569252725E-01  0.19874153540E-01  0.89223498173E+00  0.88000000000E+00 0.  1.
        -11    1    4    4    0    0  0.44020189483E-01 -0.35540501256E-01 -0.12844545906E-01  0.58018512495E-01  0.51100000000E-03 0. -1.
         11    1    4    4    0    0  0.52076334098E-01 -0.46127654465E-01  0.60601727069E-02  0.69833315071E-01  0.51100000000E-03 0.  1.
</event>
<event>
 8    1  0.1081309E+005  0.1043930E+01  0.7957747E-01            NaN
         13   -1    0    0    0    0  0.00000000000E+00  0.00000000000E+00  0.74505805969E-08  0.10566000000E+00  0.10566000000E+00 0. -1.
     999900   -1    0    0    0    0 -0.00000000000E+00 -0.00000000000E+00 -0.74505805969E-08  0.93827000000E+00  0.93827000000E+00 0. -1.
     999902    2    1    2    0    0  0.11572278265E-01 -0.10531368105E-01 -0.17408349935E-01  0.10205232064E+01  0.10202547412E+01 0.  0.
     999903    2    3    3    0    0 -0.71586854129E-01  0.11257551883E-01  0.10354678021E+00  0.12809934869E+00  0.20882942413E-01 0.  0.
         14    1    1    2    0    0 -0.11572278265E-01  0.10531368105E-01  0.17408349935E-01  0.23406793583E-01  0.00000000000E+00 0. -1.
     999901    1    3    3    0    0  0.83159132394E-01 -0.21788919989E-01 -0.12095513015E+00  0.89242385773E+00  0.88000000000E+00 0. -1.
        -11    1    4    4    0    0 -0.60567208963E-01  0.63346699030E-02  0.71898997320E-01  0.94224422423E-01  0.51100000000E-03 0. -1.
         11    1    4    4    0    0 -0.11019645166E-01  0.49228819803E-02  0.31647782890E-01  0.33874926265E-01  0.51100000000E-03 0.  1.
</event>
<event>
 8    1  0.1081309E+005  0.1043930E+01  0.7957747E-01            NaN
         13   -1    0    0    0    0  0.00000000000E+00  0.00000000000E+00  0.74505805969E-08  0.10566000000E+00  0.10566000000E+00 0.  1.
     999900   -1    0    0    0    0 -0.00000000000E+00 -0.00000000000E+00 -0.74505805969E-08  0.93827000000E+00  0.93827000000E+00 0.  1.
     999902    2    1    2    0    0 -0.22865077136E-01 -0.75382457583E-02  0.12115742797E-02  0.10198238843E+01  0.10195389400E+01 0.  0.
     999903    2    3    3    0    0 -0.82599670612E-01  0.99206292092E-01  0.12472678111E-01  0.13129170679E+00  0.20429160475E-01 0.  0.
         14    1    1    2    0    0  0.22865077136E-01  0.75382457583E-02 -0.12115742797E-02  0.24106115692E-01  0.00000000000E+00 0. -1.
     999901    1    3    3    0    0  0.59734593476E-01 -0.10674453785E+00 -0.11261103832E-01  0.88853217751E+00  0.88000000000E+00 0. -1.
        -11    1    4    4    0    0 -0.46259839600E-01  0.70599112219E-01  0.96037137247E-02  0.84951161524E-01  0.51100000000E-03 0.  1.
         11    1    4    4    0    0 -0.36339831012E-01  0.28607179873E-01  0.28689643865E-02  0.46340545270E-01  0.51100000000E-03 0. -1.
</event>
<event>
 8    1  0.1081309E+005  0.1043930E+01  0.7957747E-01            NaN
         13   -1    0    0    0    0  0.00000000000E+00  0.00000000000E+00  0.74505805969E-08  0.10566000000E+00  0.10566000000E+00 0.  1.
     999900   -1    0    0    0    0 -0.00000000000E+00 -0.00000000000E+00 -0.74505805969E-08  0.93827000000E+00  0.93827000000E+00 0. -1.
     999902    2    1    2    0    0  0.16582554057E-01 -0.49065017765E-03 -0.17083703606E-01  0.10201166683E+01  0.10198386844E+01 0.  0.
     999903    2    3    3    0    0  0.65783996381E-01  0.10658659299E+00 -0.37155230665E-01  0.13203492427E+00  0.19091204132E-01 0.  0.
         14    1    1    2    0    0 -0.16582554057E-01  0.49065017765E-03  0.17083703606E-01  0.23813331677E-01  0.00000000000E+00 0.  1.
     999901    1    3    3    0    0 -0.49201442325E-01 -0.10707724317E+00  0.20071527059E-01  0.88808174406E+00  0.88000000000E+00 0.  1.
        -11    1    4    4    0    0  0.32827469646E-01  0.35860199195E-01 -0.16074124492E-01  0.51207765513E-01  0.51100000000E-03 0.  1.
         11    1    4    4    0    0  0.32956526735E-01  0.70726393793E-01 -0.21081106173E-01  0.80827158752E-01  0.51100000000E-03 0. -1.
</event>
<event>
 8    1  0.1081309E+005  0.1043930E+01  0.7957747E-01            NaN
         13   -1    0    0    0    0  0.00000000000E+00  0.00000000000E+00  0.74505805969E-08  0.10566000000E+00  0.10566000000E+00 0.  1.
     999900   -1    0    0    0    0 -0.00000000000E+00 -0.00000000000E+00 -0.74505805969E-08  0.93827000000E+00  0.93827000000E+00 0.  1.
     999902    2    1    2    0    0  0.26134274096E-02 -0.15415677635E-01  0.18549920303E-01  0.10196694835E+01  0.10193808331E+01 0.  0.
     999903    2    3    3    0    0  0.35389249581E-01 -0.12115482823E+00 -0.29507763329E-01  0.13143271128E+00  0.21747600056E-01 0.  0.
         14    1    1    2    0    0 -0.26134274096E-02  0.15415677635E-01 -0.18549920303E-01  0.24260516545E-01  0.00000000000E+00 0. -1.
     999901    1    3    3    0    0 -0.32775822171E-01  0.10573915060E+00  0.48057683632E-01  0.88823677217E+00  0.88000000000E+00 0.  1.
        -11    1    4    4    0    0  0.19278730241E-01 -0.40521114754E-01 -0.27535922724E-02  0.44960800394E-01  0.51100000000E-03 0. -1.
         11    1    4    4    0    0  0.16110519340E-01 -0.80633713477E-01 -0.26754171056E-01  0.86471910887E-01  0.51100000000E-03 0.  1.
</event>
<event>
 8    1  0.1081309E+005  0.1043930E+01  0.7957747E-01            NaN
         13   -1    0    0    0    0  0.00000000000E+00  0.00000000000E+00  0.74505805969E-08  0.10566000000E+00  0.10566000000E+00 0.  1.
     999900   -1    0    0    0    0 -0.00000000000E+00 -0.00000000000E+00 -0.74505805969E-08  0.93827000000E+00  0.93827000000E+00 0.  1.
     999902    2    1    2    0    0 -0.89992290749E-02  0.19481646803E-01  0.97516181423E-02  0.10203585184E+01  0.10200862176E+01 0.  0.
     999903    2    3    3    0    0  0.15342046379E-01 -0.10142501601E+00 -0.73593759109E-01  0.12785789060E+00  0.20228360020E-01 0.  0.
         14    1    1    2    0    0  0.89992290749E-02 -0.19481646803E-01 -0.97516181423E-02  0.23571481550E-01  0.00000000000E+00 0. -1.
     999901    1    3    3    0    0 -0.24341275453E-01  0.12090666281E+00  0.83345377252E-01  0.89250062785E+00  0.88000000000E+00 0. -1.
        -11    1    4    4    0    0 -0.49463003888E-02 -0.24315260709E-01 -0.17472119988E-01  0.30351835015E-01  0.51100000000E-03 0.  1.
         11    1    4    4    0    0  0.20288346767E-01 -0.77109755300E-01 -0.56121639122E-01  0.97506055585E-01  0.51100000000E-03 0. -1.
</event>
<event>
 8    1  0.1081309E+005  0.1043930E+01  0.7957747E-01            NaN
         13   -1    0    0    0    0  0.00000000000E+00  0.00000000000E+00  0.74505805969E-08  0.10566000000E+00  0.10566000000E+00 0. -1.
     999900   -1    0    0    0    0 -0.00000000000E+00 -0.00000000000E+00 -0.74505805969E-08  0.93827000000E+00  0.93827000000E+00 0. -1.
     999902    2    1    2    0    0  0.12823057686E-01  0.17479482956E-01 -0.13220280132E-01  0.10185382899E+01  0.10182217387E+01 0.  0.
     999903    2    3    3    0    0 -0.45302210157E-02 -0.12426243243E+00 -0.16773787660E-01  0.12702018341E+00  0.19776046736E-01 0.  0.
         14    1    1    2    0    0 -0.12823057686E-01 -0.17479482956E-01  0.13220280132E-01  0.25391710056E-01  0.00000000000E+00 0.  1.
     999901    1    3    3    0    0  0.17353278701E-01  0.14174191539E+00  0.35535075285E-02  0.89151810653E+00  0.88000000000E+00 0.  1.
        -11    1    4    4    0    0  0.70380652011E-02 -0.33643799786E-01 -0.75937639273E-02  0.35204630340E-01  0.51100000000E-03 0. -1.
         11    1    4    4    0    0 -0.11568286217E-01 -0.90618632648E-01 -0.91800237330E-02  0.91815553071E-01  0.51100000000E-03 0.  1.
</event>
<event>
 8    1  0.1081309E+005  0.1043930E+01  0.7957747E-01            NaN
         13   -1    0    0    0    0  0.00000000000E+00  0.00000000000E+00  0.74505805969E-08  0.10566000000E+00  0.10566000000E+00 0.  1.
     999900   -1    0    0    0    0 -0.00000000000E+00 -0.00000000000E+00 -0.74505805969E-08  0.93827000000E+00  0.93827000000E+00 0.  1.
     999902    2    1    2    0    0 -0.84722848071E-02  0.52159490392E-02  0.21747032880E-01  0.10200151683E+01  0.10197347814E+01 0.  0.
     999903    2    3    3    0    0 -0.22426004603E-01 -0.58376071002E-01 -0.10993453705E+00  0.12783879162E+00  0.18613512792E-01 0.  0.
         14    1    1    2    0    0  0.84722848071E-02 -0.52159490392E-02 -0.21747032880E-01  0.23914831660E-01  0.00000000000E+00 0. -1.
     999901    1    3    3    0    0  0.13953719796E-01  0.63592020041E-01  0.13168156994E+00  0.89217637672E+00  0.88000000000E+00 0. -1.
        -11    1    4    4    0    0 -0.18595435129E-01 -0.46981541687E-01 -0.10071653697E+00  0.11268157528E+00  0.51100000000E-03 0.  1.
         11    1    4    4    0    0 -0.38305694734E-02 -0.11394529315E-01 -0.92180000846E-02  0.15157216346E-01  0.51100000000E-03 0. -1.
</event>
<event>
 8    1  0.1081309E+005  0.1043930E+01  0.7957747E-01            NaN
         13   -1    0    0    0    0  0.00000000000E+00  0.00000000000E+00  0.74505805969E-08  0.10566000000E+00  0.10566000000E+00 0. -1.
     999900   -1    0    0    0    0 -0.00000000000E+00 -0.00000000000E+00 -0.74505805969E-08  0.93827000000E+00  0.93827000000E+00 0.  1.
     999902    2    1    2    0    0  0.14236372844E-01  0.81999097030E-02 -0.15173177847E-01  0.10215662312E+01  0.10213214119E+01 0.  0.
     999903    2    3    3    0    0 -0.61932955545E-01 -0.23602809373E-01 -0.11280729892E+00  0.13232745494E+00  0.19806187113E-01 0.  0.
         14    1    1    2    0    0 -0.14236372844E-01 -0.81999097030E-02  0.15173177847E-01  0.22363768843E-01  0.00000000000E+00 0.  1.
     999901    1    3    3    0    0  0.76169328389E-01  0.31802719076E-01  0.97634121075E-01  0.88923877622E+00  0.88000000000E+00 0. -1.
        -11    1    4    4    0    0 -0.39163588960E-01 -0.21003825045E-01 -0.59210215789E-01  0.74034168743E-01  0.51100000000E-03 0.  1.
         11    1    4    4    0    0 -0.22769366585E-01 -0.25989843282E-02 -0.53597083134E-01  0.58293286197E-01  0.51100000000E-03 0. -1.
</event>
<event>
 8    1  0.1081309E+005  0.1043930E+01  0.7957747E-01            NaN
         13   -1    0    0    0    0  0.00000000000E+00  0.00000000000E+00  0.74505805969E-08  0.10566000000E+00  0.10566000000E+00 0.  1.
     999900   -1    0    0    0    0 -0.00000000000E+00 -0.00000000000E+00 -0.74505805969E-08  0.93827000000E+00  0.93827000000E+00 0.  1.
     999902    2    1    2    0    0 -0.11398271363E-01 -0.17846410668E-01 -0.11102647761E-01  0.10200200909E+01  0.10197398208E+01 0.  0.
     999903    2    3    3    0    0  0.11187807853E-01  0.40970299028E-01  0.11926315604E+00  0.12818783143E+00  0.20116840965E-01 0.  0.
         14    1    1    2    0    0  0.11398271363E-01  0.17846410668E-01  0.11102647761E-01  0.23909909057E-01  0.00000000000E+00 0.  1.
     999901    1    3    3    0    0 -0.22586079216E-01 -0.58816709695E-01 -0.13036580380E+00  0.89183225952E+00  0.88000000000E+00 0.  1.
        -11    1    4    4    0    0 -0.19730911484E-02  0.14610600595E-02  0.82364896483E-03  0.26395650769E-02  0.51100000000E-03 0. -1.
         11    1    4    4    0    0  0.13160899001E-01  0.39509238968E-01  0.11843950707E+00  0.12554826635E+00  0.51100000000E-03 0.  1.
</event>
<event>
 8    1  0.1081309E+005  0.1043930E+01  0.7957747E-01            NaN
         13   -1    0    0    0    0  0.00000000000E+00  0.00000000000E+00  0.74505805969E-08  0.10566000000E+00  0.10566000000E+00 0. -1.
     999900   -1    0    0    0    0 -0.00000000000E+00 -0.00000000000E+00 -0.74505805969E-08  0.93827000000E+00  0.93827000000E+00 0.  1.
     999902    2    1    2    0    0  0.17162746702E-01 -0.26484011938E-02  0.16024728935E-01  0.10203002340E+01  0.10200265691E+01 0.  0.
     999903    2    3    3    0    0  0.53940510481E-01 -0.39831260320E-01 -0.10941237875E+00  0.12986795871E+00  0.19962717882E-01 0.  0.
         14    1    1    2    0    0 -0.17162746702E-01  0.26484011938E-02 -0.16024728935E-01  0.23629765989E-01  0.00000000000E+00 0.  1.
     999901    1    3    3    0    0 -0.36777763779E-01  0.37182859127E-01  0.12543710768E+00  0.89043227531E+00  0.88000000000E+00 0.  1.
        -11    1    4    4    0    0  0.28373829763E-01 -0.10966030398E-01 -0.37701169245E-01  0.48445508786E-01  0.51100000000E-03 0.  1.
         11    1    4    4    0    0  0.25566680719E-01 -0.28865229923E-01 -0.71711209504E-01  0.81422449920E-01  0.51100000000E-03 0. -1.
</event>
<event>
 8    1  0.1081309E+005  0.1043930E+01  0.7957747E-01            NaN
         13   -1    0    0    0    0  0.00000000000E+00  0.00000000000E+00  0.74505805969E-08  0.10566000000E+00  0.10566000000E+00 0. -1.
     999900   -1    0    0    0    0 -0.00000000000E+00 -0.00000000000E+00 -0.74505805969E-08  0.93827000000E+00  0.93827000000E+00 0. -1.
     999902    2    1    2    0    0  0.12624469186E-01 -0.20468852845E-02 -0.21291256632E-01  0.10190928389E+01  0.10187901304E+01 0.  0.
     999903    2    3    3    0    0  0.12336428990E+00  0.42603940729E-02  0.36713311493E-01  0.13023535901E+00  0.19403157368E-01 0.  0.
         14    1    1    2    0    0 -0.12624469186E-01  0.20468852845E-02  0.21291256632E-01  0.24837161082E-01  0.00000000000E+00 0. -1.
     999901    1    3    3    0    0 -0.11073982071E+00 -0.63072793574E-02 -0.58004568125E-01  0.88885747991E+00  0.88000000000E+00 0. -1.
        -11    1    4    4    0    0  0.10345770492E+00 -0.13804210283E-02  0.24967496418E-01  0.10643795971E+00  0.51100000000E-03 0. -1.
         11    1    4    4    0    0  0.19906584978E-01  0.56408151012E-02  0.11745815075E-01  0.23797399297E-01  0.51100000000E-03 0.  1.
</event>
<event>
 8    1  0.1081309E+005  0.1043930E+01  0.7957747E-01            NaN
         13   -1    0    0    0    0  0.00000000000E+00  0.00000000000E+00  0.74505805969E-08  0.10566000000E+00  0.10566000000E+00 0. -1.
     999900   -1    0    0    0    0 -0.00000000000E+00 -0.00000000000E+00 -0.74505805969E-08  0.93827000000E+00  0.93827000000E+00 0. -1.
     999902    2    1    2    0    0  0.11742130692E-01  0.17324353749E-01 -0.10888995485E-01  0.10203380291E+01  0.10200652492E+01 0.  0.
     999903    2    3    3    0    0  0.10369943836E+00  0.79482100856E-01 -0.17016968635E-01  0.13334463345E+00  0.20499662823E-01 0.  0.
         14    1    1    2    0    0 -0.11742130692E-01 -0.17324353749E-01  0.10888995485E-01  0.23591970852E-01  0.00000000000E+00 0. -1.
     999901    1    3    3    0    0 -0.91957307667E-01 -0.62157747107E-01  0.61279731502E-02  0.88699339570E+00  0.88000000000E+00 0. -1.
        -11    1    4    4    0    0  0.35477554315E-01  0.26761301599E-01  0.39324267689E-02  0.44615571550E-01  0.51100000000E-03 0. -1.
         11    1    4    4    0    0  0.68221884043E-01  0.52720799257E-01 -0.20949395404E-01  0.88729061899E-01  0.51100000000E-03 0.  1.
</event>
<event>
 8    1  0.1081309E+005  0.1043930E+01  0.7957747E-01            NaN
         13   -1    0    0    0    0  0.00000000000E+00  0.00000000000E+00  0.74505805969E-08  0.10566000000E+00  0.10566000000E+00 0. -1.
     999900   -1    0    0    0    0 -0.00000000000E+00 -0.00000000000E+00 -0.74505805969E-08  0.93827000000E+00  0.93827000000E+00 0. -1.
     999902    2    1    2    0    0 -0.16116323764E-01  0.54912497707E-02  0.11022569267E-01  0.10236473289E+01  0.10234463675E+01 0.  0.
     999903    2    3    3    0    0  0.11146408177E-01  0.10708438657E+00 -0.75720846008E-01  0.13314811937E+00  0.20086485728E-01 0.  0.
         14    1    1    2    0    0  0.16116323764E-01 -0.54912497707E-02 -0.11022569267E-01  0.20282671150E-01  0.00000000000E+00 0.  1.
     999901    1    3    3    0    0 -0.27262731941E-01 -0.10159313680E+00  0.86743415275E-01  0.89049920948E+00  0.88000000000E+00 0.  1.
        -11    1    4    4    0    0  0.13473932249E-01  0.65687449335E-01 -0.37907281554E-01  0.77029935520E-01  0.51100000000E-03 0. -1.
         11    1    4    4    0    0 -0.23275240720E-02  0.41396937232E-01 -0.37813564454E-01  0.56118183846E-01  0.51100000000E-03 0.  1.
</event>
<event>
 8    1  0.1081309E+005  0.1043930E+01  0.7957747E-01            NaN
         13   -1    0    0    0    0  0.00000000000E+00  0.00000000000E+00  0.74505805969E-08  0.10566000000E+00  0.10566000000E+00 0. -1.
     999900   -1    0    0    0    0 -0.00000000000E+00 -0.00000000000E+00 -0.74505805969E-08  0.93827000000E+00  0.93827000000E+00 0.  1.
     999902    2    1    2    0    0  0.18487560192E-01 -0.42258626304E-02 -0.14551316211E-01  0.10200262639E+01  0.10197461402E+01 0.  0.
     999903    2    3    3    0    0  0.20683937708E-01 -0.41642024616E-01 -0.12226985777E+00  0.13266609042E+00  0.22101808420E-01 0.  0.
         14    1    1    2    0    0 -0.18487560192E-01  0.42258626304E-02  0.14551316211E-01  0.23903736116E-01  0.00000000000E+00 0. -1.
     999901    1    3    3    0    0 -0.21963775159E-02  0.37416161986E-01  0.10771854156E+00  0.88736017346E+00  0.88000000000E+00 0.  1.
        -11    1    4    4    0    0  0.20612880047E-02 -0.28727481471E-01 -0.69557998979E-01  0.75286741481E-01  0.51100000000E-03 0. -1.
         11    1    4    4    0    0  0.18622649703E-01 -0.12914543145E-01 -0.52711858792E-01  0.57379348941E-01  0.51100000000E-03 0.  1.
</event>
<event>
 8    1  0.1081309E+005  0.1043930E+01  0.7957747E-01            NaN
         13   -1    0    0    0    0  0.00000000000E+00  0.00000000000E+00  0.74505805969E-08  0.10566000000E+00  0.10566000000E+00 0.  1.
     999900   -1    0    0    0    0 -0.00000000000E+00 -0.00000000000E+00 -0.74505805969E-08  0.93827000000E+00  0.93827000000E+00 0. -1.
     999902    2    1    2    0    0 -0.16696491260E-01  0.15918643067E-01 -0.37988734217E-02  0.10205503623E+01  0.10202825269E+01 0.  0.
     999903    2    3    3    0    0  0.72348858985E-01 -0.68996976440E-01  0.78935604402E-01  0.12814645679E+00  0.13990875271E-01 0.  0.
         14    1    1    2    0    0  0.16696491260E-01 -0.15918643067E-01  0.37988734217E-02  0.23379637653E-01  0.00000000000E+00 0. -1.
     999901    1    3    3    0    0 -0.89045350246E-01  0.84915619506E-01 -0.82734477823E-01  0.89240390556E+00  0.88000000000E+00 0. -1.
        -11    1    4    4    0    0  0.49349391409E-01 -0.43036998272E-01  0.58990084451E-01  0.88134197887E-01  0.51100000000E-03 0. -1.
         11    1    4    4    0    0  0.22999467576E-01 -0.25959978168E-01  0.19945519951E-01  0.40012258901E-01  0.51100000000E-03 0.  1.
</event>
<event>
 8    1  0.1081309E+005  0.1043930E+01  0.7957747E-01            NaN
         13   -1    0    0    0    0  0.00000000000E+00  0.00000000000E+00  0.74505805969E-08  0.10566000000E+00  0.10566000000E+00 0.  1.
     999900   -1    0    0    0    0 -0.00000000000E+00 -0.00000000000E+00 -0.74505805969E-08  0.93827000000E+00  0.93827000000E+00 0. -1.
     999902    2    1    2    0    0  0.12772245758E-01 -0.13932978781E-01 -0.15383465282E-01  0.10195597484E+01  0.10192684491E+01 0.  0.
     999903    2    3    3    0    0  0.48624918032E-01 -0.11521030543E+00  0.35448319347E-01  0.13156966887E+00  0.20400913988E-01 0.  0.
         14    1    1    2    0    0 -0.12772245758E-01  0.13932978781E-01  0.15383465282E-01  0.24370251609E-01  0.00000000000E+00 0.  1.
     999901    1    3    3    0    0 -0.35852672274E-01  0.10127732664E+00 -0.50831784629E-01  0.88799007952E+00  0.88000000000E+00 0. -1.
        -11    1    4    4    0    0  0.11520930090E-01 -0.20471865335E-01 -0.93111608276E-03  0.23515041965E-01  0.51100000000E-03 0. -1.
         11    1    4    4    0    0  0.37103987942E-01 -0.94738440091E-01  0.36379435430E-01  0.10805462690E+00  0.51100000000E-03 0.  1.
</event>
<event>
 8    1  0.1081309E+005  0.1043930E+01  0.7957747E-01            NaN
         13   -1    0    0    0    0  0.00000000000E+00  0.00000000000E+00  0.74505805969E-08  0.10566000000E+00  0.10566000000E+00 0. -1.
     999900   -1    0    0    0    0 -0.00000000000E+00 -0.00000000000E+00 -0.74505805969E-08  0.93827000000E+00  0.93827000000E+00 0.  1.
     999902    2    1    2    0    0  0.20113423048E-02  0.19886609777E-01  0.13928023147E-01  0.10195678865E+01  0.10192767841E+01 0.  0.
     999903    2    3    3    0    0 -0.90025827312E-02  0.81750413616E-01 -0.98162102019E-01  0.13023519680E+00  0.23690326964E-01 0.  0.
         14    1    1    2    0    0 -0.20113423048E-02 -0.19886609777E-01 -0.13928023147E-01  0.24362113518E-01  0.00000000000E+00 0.  1.
     999901    1    3    3    0    0  0.11013925036E-01 -0.61863803839E-01  0.11209012517E+00  0.88933268968E+00  0.88000000000E+00 0. -1.
        -11    1    4    4    0    0  0.60666842849E-02  0.94063699445E-02 -0.18046777284E-01  0.21242216106E-01  0.51100000000E-03 0.  1.
         11    1    4    4    0    0 -0.15069267016E-01  0.72344043671E-01 -0.80115324734E-01  0.10899298070E+00  0.51100000000E-03 0. -1.
</event>
<event>
 8    1  0.1081309E+005  0.1043930E+01  0.7957747E-01            NaN
         13   -1    0    0    0    0  0.00000000000E+00  0.00000000000E+00  0.74505805969E-08  0.10566000000E+00  0.10566000000E+00 0. -1.
     999900   -1    0    0    0    0 -0.00000000000E+00 -0.00000000000E+00 -0.74505805969E-08  0.93827000000E+00  0.93827000000E+00 0.  1.
     999902    2    1    2    0    0 -0.12374993603E-01  0.20851720284E-02  0.14612430617E-01  0.10246683402E+01  0.10244872844E+01 0.  0.
     999903    2    3    3    0    0 -0.40381542334E-01  0.67559418427E-01  0.11003920378E+00  0.13664947063E+00  0.19222577223E-01 0.  0.
         14    1    1    2    0    0  0.12374993603E-01 -0.20851720284E-02 -0.14612430617E-01  0.19261659783E-01  0.00000000000E+00 0.  1.
     999901    1    3    3    0    0  0.28006548731E-01 -0.65474246398E-01 -0.95426773161E-01  0.88801886959E+00  0.88000000000E+00 0.  1.
        -11    1    4    4    0    0 -0.25315860434E-01  0.24676569920E-01  0.53052036333E-01  0.63754259251E-01  0.51100000000E-03 0.  1.
         11    1    4    4    0    0 -0.15065681900E-01  0.42882848507E-01  0.56987167444E-01  0.72895211376E-01  0.51100000000E-03 0. -1.
</event>
<event>
 8    1  0.1081309E+005  0.1043930E+01  0.7957747E-01            NaN
         13   -1    0    0    0    0  0.00000000000E+00  0.00000000000E+00  0.74505805969E-08  0.10566000000E+00  0.10566000000E+00 0. -1.
     999900   -1    0    0    0    0 -0.00000000000E+00 -0.00000000000E+00 -0.74505805969E-08  0.93827000000E+00  0.93827000000E+00 0. -1.
     999902    2    1    2    0    0  0.34663761016E-02 -0.56519856149E-02  0.23433109533E-01  0.10195769442E+01  0.10192860608E+01 0.  0.
     999903    2    3    3    0    0 -0.11586668335E+00  0.50470183279E-01  0.21430905996E-01  0.12974882274E+00  0.20078484951E-01 0.  0.
         14    1    1    2    0    0 -0.34663761016E-02  0.56519856149E-02 -0.23433109533E-01  0.24353055805E-01  0.00000000000E+00 0.  1.
     999901    1    3    3    0    0  0.11933305946E+00 -0.56122168894E-01  0.20022035374E-02  0.88982812146E+00  0.88000000000E+00 0.  1.
        -11    1    4    4    0    0 -0.27656715775E-01  0.21350657672E-01  0.32585274231E-02  0.35094495757E-01  0.51100000000E-03 0. -1.
         11    1    4    4    0    0 -0.88209967578E-01  0.29119525607E-01  0.18172378573E-01  0.94654326978E-01  0.51100000000E-03 0.  1.
</event>
<event>
 8    1  0.1081309E+005  0.1043930E+01  0.7957747E-01            NaN
         13   -1    0    0    0    0  0.00000000000E+00  0.00000000000E+00  0.74505805969E-08  0.10566000000E+00  0.10566000000E+00 0. -1.
     999900   -1    0    0    0    0 -0.00000000000E+00 -0.00000000000E+00 -0.74505805969E-08  0.93827000000E+00  0.93827000000E+00 0.  1.
     999902    2    1    2    0    0  0.23492872070E-01 -0.21442666838E-01  0.27658839393E-02  0.10120026902E+01  0.10114989332E+01 0.  0.
     999903    2    3    3    0    0 -0.18347836859E-01 -0.53529018293E-02  0.11987192282E+00  0.12311386146E+00  0.20553547811E-01 0.  0.
         14    1    1    2    0    0 -0.23492872070E-01  0.21442666838E-01 -0.27658839393E-02  0.31927309833E-01  0.00000000000E+00 0.  1.
     999901    1    3    3    0    0  0.41840708930E-01 -0.16089765008E-01 -0.11710603888E+00  0.88888882871E+00  0.88000000000E+00 0. -1.
        -11    1    4    4    0    0 -0.10164729882E-01 -0.70582180997E-02  0.10727255767E+00  0.10798519772E+00  0.51100000000E-03 0. -1.
         11    1    4    4    0    0 -0.81831069775E-02  0.17053162705E-02  0.12599365145E-01  0.15128663736E-01  0.51100000000E-03 0.  1.
</event>
<event>
 8    1  0.1081309E+005  0.1043930E+01  0.7957747E-01            NaN
         13   -1    0    0    0    0  0.00000000000E+00  0.00000000000E+00  0.74505805969E-08  0.10566000000E+00  0.10566000000E+00 0. -1.
     999900   -1    0    0    0    0 -0.00000000000E+00 -0.00000000000E+00 -0.74505805969E-08  0.93827000000E+00  0.93827000000E+00 0.  1.
     999902    2    1    2    0    0  0.18125038183E-01 -0.96762254824E-02 -0.63738571829E-02  0.10224178545E+01  0.10221915167E+01 0.  0.
     999903    2    3    3    0    0  0.34719036782E-01  0.67244745261E-01 -0.10767643193E+00  0.13311790050E+00  0.19972334853E-01 0.  0.
         14    1    1    2    0    0 -0.18125038183E-01  0.96762254824E-02  0.63738571829E-02  0.21512145502E-01  0.00000000000E+00 0. -1.
     999901    1    3    3    0    0 -0.16593998599E-01 -0.76920970744E-01  0.10130257475E+00  0.88929995400E+00  0.88000000000E+00 0. -1.
        -11    1    4    4    0    0  0.15033557556E-01  0.24322742128E-01 -0.25386435940E-01  0.38240500626E-01  0.51100000000E-03 0.  1.
         11    1    4    4    0    0  0.19685479225E-01  0.42922003134E-01 -0.82289995993E-01  0.94877399874E-01  0.51100000000E-03 0. -1.
</event>
<event>
 8    1  0.1081309E+005  0.1043930E+01  0.7957747E-01            NaN
         13   -1    0    0    0    0  0.00000000000E+00  0.00000000000E+00  0.74505805969E-08  0.10566000000E+00  0.10566000000E+00 0. -1.
     999900   -1    0    0    0    0 -0.00000000000E+00 -0.00000000000E+00 -0.74505805969E-08  0.93827000000E+00  0.93827000000E+00 0.  1.
     999902    2    1    2    0    0 -0.14336405494E-01 -0.17246969779E-01 -0.47336652519E-02  0.10210084364E+01  0.10207511103E+01 0.  0.
     999903    2    3    3    0    0 -0.29370913107E-01  0.10262938745E+00  0.69873812356E-01  0.12962599711E+00  0.22915230042E-01 0.  0.
         14    1    1    2    0    0  0.14336405494E-01  0.17246969779E-01  0.47336652519E-02  0.22921563555E-01  0.00000000000E+00 0. -1.
     999901    1    3    3    0    0  0.15034507613E-01 -0.11987635723E+00 -0.74607477608E-01  0.89138243934E+00  0.88000000000E+00 0. -1.
        -11    1    4    4    0    0 -0.80028472662E-02  0.40719664446E-01  0.39995885939E-01  0.57637389341E-01  0.51100000000E-03 0.  1.
         11    1    4    4    0    0 -0.21368065841E-01  0.61909723006E-01  0.29877926417E-01  0.71988607768E-01  0.51100000000E-03 0. -1.
</event>
<event>
 8    1  0.1081309E+005  0.1043930E+01  0.7957747E-01            NaN
         13   -1    0    0    0    0  0.00000000000E+00  0.00000000000E+00  0.74505805969E-08  0.10566000000E+00  0.10566000000E+00 0.  1.
     999900   -1    0    0    0    0 -0.00000000000E+00 -0.00000000000E+00 -0.74505805969E-08  0.93827000000E+00  0.93827000000E+00 0.  1.
     999902    2    1    2    0    0 -0.12272829785E-01 -0.84453377833E-02 -0.18209388328E-01  0.10204028263E+01  0.10201315601E+01 0.  0.
     999903    2    3    3    0    0  0.26154592797E-02 -0.13007167000E+00  0.46780094199E-02  0.13161800482E+00  0.19389055027E-01 0.  0.
         14    1    1    2    0    0  0.12272829785E-01  0.84453377833E-02  0.18209388328E-01  0.23527173747E-01  0.00000000000E+00 0.  1.
     999901    1    3    3    0    0 -0.14888289065E-01  0.12162633222E+00 -0.22887397748E-01  0.88878482144E+00  0.88000000000E+00 0.  1.
        -11    1    4    4    0    0  0.70908419226E-02 -0.40128599631E-01 -0.49323798859E-02  0.41050871366E-01  0.51100000000E-03 0.  1.
         11    1    4    4    0    0 -0.44753826430E-02 -0.89943070373E-01  0.96103893058E-02  0.90567133451E-01  0.51100000000E-03 0. -1.
</event>
<event>
 8    1  0.1081309E+005  0.1043930E+01  0.7957747E-01            NaN
         13   -1    0    0    0    0  0.00000000000E+00  0.00000000000E+00  0.74505805969E-08  0.10566000000E+00  0.10566000000E+00 0.  1.
     999900   -1    0    0    0    0 -0.00000000000E+00 -0.00000000000E+00 -0.74505805969E-08  0.93827000000E+00  0.93827000000E+00 0.  1.
     999902    2    1    2    0    0  0.10491967350E-01 -0.20569205955E-01 -0.59919183096E-03  0.10208316744E+01  0.10205703185E+01 0.  0.
     999903    2    3    3    0    0  0.10307167366E+00 -0.84268493132E-02  0.79945354914E-01  0.13223397984E+00  0.19994598071E-01 0.  0.
         14    1    1    2    0    0 -0.10491967350E-01  0.20569205955E-01  0.59919183096E-03  0.23098325553E-01  0.00000000000E+00 0. -1.
     999901    1    3    3    0    0 -0.92579706312E-01 -0.12142356642E-01 -0.80544546745E-01  0.88859769460E+00  0.88000000000E+00 0.  1.
        -11    1    4    4    0    0  0.85455496784E-01 -0.14416695744E-01  0.64191501818E-01  0.10784847274E+00  0.51100000000E-03 0. -1.
         11    1    4    4    0    0  0.17616176878E-01  0.59898464312E-02  0.15753853095E-01  0.24385507098E-01  0.51100000000E-03 0.  1.
</event>
<event>
 8    1  0.1081309E+005  0.1043930E+01  0.7957747E-01            NaN
         13   -1    0    0    0    0  0.00000000000E+00  0.00000000000E+00  0.74505805969E-08  0.10566000000E+00  0.10566000000E+00 0.  1.
     999900   -1    0    0    0    0 -0.00000000000E+00 -0.00000000000E+00 -0.74505805969E-08  0.93827000000E+00  0.93827000000E+00 0.  1.
     999902    2    1    2    0    0  0.15311339391E-01 -0.15703955178E-01  0.63196828187E-02  0.10211048009E+01  0.10208496582E+01 0.  0.
     999903    2    3    3    0    0 -0.11368825768E+00 -0.38089244096E-01 -0.45955489256E-01  0.12988390192E+00  0.19547647769E-01 0.  0.
         14    1    1    2    0    0 -0.15311339391E-01  0.15703955178E-01 -0.63196828187E-02  0.22825199082E-01  0.00000000000E+00 0.  1.
     999901    1    3    3    0    0  0.12899959707E+00  0.22385288917E-01  0.52275172075E-01  0.89122089900E+00  0.88000000000E+00 0.  1.
        -11    1    4    4    0    0 -0.19334048544E-01 -0.13628932269E-01 -0.12953211329E-01  0.26974062220E-01  0.51100000000E-03 0. -1.
         11    1    4    4    0    0 -0.94354209138E-01 -0.24460311827E-01 -0.33002277927E-01  0.10290983970E+00  0.51100000000E-03 0.  1.
</event>
<event>
 8    1  0.1081309E+005  0.1043930E+01  0.7957747E-01            NaN
         13   -1    0    0    0    0  0.00000000000E+00  0.00000000000E+00  0.74505805969E-08  0.10566000000E+00  0.10566000000E+00 0.  1.
     999900   -1    0    0    0    0 -0.00000000000E+00 -0.00000000000E+00 -0.74505805969E-08  0.93827000000E+00  0.93827000000E+00 0. -1.
     999902    2    1    2    0    0  0.25387961726E-01  0.27136020768E-02  0.16048988734E-01  0.10137723762E+01  0.10133237135E+01 0.  0.
     999903    2    3    3    0    0 -0.59512190233E-01  0.10447351899E+00  0.21731992759E-01  0.12383113482E+00  0.20135875552E-01 0.  0.
         14    1    1    2    0    0 -0.25387961726E-01 -0.27136020768E-02 -0.16048988734E-01  0.30157623849E-01  0.00000000000E+00 0. -1.
     999901    1    3    3    0    0  0.84900151960E-01 -0.10175991691E+00 -0.56830040250E-02  0.88994124133E+00  0.88000000000E+00 0. -1.
        -11    1    4    4    0    0 -0.33900721046E-01  0.46934942760E-01  0.18425615629E-01  0.60761107393E-01  0.51100000000E-03 0. -1.
         11    1    4    4    0    0 -0.25611469187E-01  0.57538576230E-01  0.33063771294E-02  0.63070027423E-01  0.51100000000E-03 0.  1.
</event>
<event>
 7    1  0.1081309E+005  0.1043930E+01  0.7957747E-01            NaN
         13   -1    0    0    0    0  0.00000000000E+00  0.00000000000E+00  0.74505805969E-08  0.10566000000E+00  0.10566000000E+00 0. -1.
     999900   -1    0    0    0    0 -0.00000000000E+00 -0.00000000000E+00 -0.74505805969E-08  0.93827000000E+00  0.93827000000E+00 0. -1.
     999902    2    1    2    0    0 -0.14139469089E-01 -0.81221935440E-02  0.16248881530E-01  0.10209099921E+01  0.10206504255E+01 0.  0.
         14    1    1    2    0    0  0.14139469089E-01  0.81221935440E-02 -0.16248881530E-01  0.23020007929E-01  0.00000000000E+00 0.  1.
     999901    1    3    3    0    0 -0.64129559720E-02  0.59977845239E-01  0.89222081799E-01  0.88656587336E+00  0.88000000000E+00 0.  1.
        -11    1    3    3    0    0 -0.17936361039E-01 -0.42034174128E-01 -0.90448077643E-01  0.10133953183E+00  0.51100000000E-03 0. -1.
         11    1    3    3    0    0  0.10209847922E-01 -0.26065864655E-01  0.17474877374E-01  0.33004586878E-01  0.51100000000E-03 0.  1.
</event>
<event>
 8    1  0.1081309E+005  0.1043930E+01  0.7957747E-01            NaN
         13   -1    0    0    0    0  0.00000000000E+00  0.00000000000E+00  0.74505805969E-08  0.10566000000E+00  0.10566000000E+00 0.  1.
     999900   -1    0    0    0    0 -0.00000000000E+00 -0.00000000000E+00 -0.74505805969E-08  0.93827000000E+00  0.93827000000E+00 0.  1.
     999902    2    1    2    0    0 -0.23372180231E-01  0.18522757309E-01 -0.27716307088E-02  0.10139794861E+01  0.10135370565E+01 0.  0.
     999903    2    3    3    0    0  0.19720491858E-01  0.14591237235E-01 -0.12088723805E+00  0.12503419421E+00  0.20445620466E-01 0.  0.
         14    1    1    2    0    0  0.23372180231E-01 -0.18522757309E-01  0.27716307088E-02  0.29950513916E-01  0.00000000000E+00 0. -1.
     999901    1    3    3    0    0 -0.43092672089E-01  0.39315200742E-02  0.11811560734E+00  0.88894529187E+00  0.88000000000E+00 0. -1.
        -11    1    4    4    0    0  0.78282351355E-02  0.15255195393E-01 -0.43955441059E-01  0.47184151698E-01  0.51100000000E-03 0.  1.
         11    1    4    4    0    0  0.11892256723E-01 -0.66395815871E-03 -0.76931796992E-01  0.77850042517E-01  0.51100000000E-03 0. -1.
</event>
<event>
 8    1  0.1081309E+005  0.1043930E+01  0.7957747E-01            NaN
         13   -1    0    0    0    0  0.00000000000E+00  0.00000000000E+00  0.74505805969E-08  0.10566000000E+00  0.10566000000E+00 0. -1.
     999900   -1    0    0    0    0 -0.00000000000E+00 -0.00000000000E+00 -0.74505805969E-08  0.93827000000E+00  0.93827000000E+00 0. -1.
     999902    2    1    2    0    0  0.18476789117E-01 -0.14934303519E-02  0.13708581227E-01  0.10208746911E+01  0.10206143187E+01 0.  0.
     999903    2    3    3    0    0 -0.10435055756E+00  0.28957380297E-02 -0.71705374625E-01  0.12823738189E+00  0.20143018731E-01 0.  0.
         14    1    1    2    0    0 -0.18476789117E-01  0.14934303519E-02 -0.13708581227E-01  0.23055308923E-01  0.00000000000E+00 0.  1.
     999901    1    3    3    0    0  0.12282734668E+00 -0.43891683816E-02  0.85413955852E-01  0.89263730918E+00  0.88000000000E+00 0.  1.
        -11    1    4    4    0    0 -0.43609771614E-01  0.89395313986E-02 -0.22790185020E-01  0.50013808654E-01  0.51100000000E-03 0.  1.
         11    1    4    4    0    0 -0.60740785945E-01 -0.60437933689E-02 -0.48915189605E-01  0.78223573240E-01  0.51100000000E-03 0. -1.
</event>
<event>
 8    1  0.1081309E+005  0.1043930E+01  0.7957747E-01            NaN
         13   -1    0    0    0    0  0.00000000000E+00  0.00000000000E+00  0.74505805969E-08  0.10566000000E+00  0.10566000000E+00 0. -1.
     999900   -1    0    0    0    0 -0.00000000000E+00 -0.00000000000E+00 -0.74505805969E-08  0.93827000000E+00  0.93827000000E+00 0. -1.
     999902    2    1    2    0    0 -0.21230145601E-01 -0.94292428773E-02  0.55200163637E-02  0.10200532271E+01  0.10197737425E+01 0.  0.
     999903    2    3    3    0    0 -0.10769351740E+00 -0.63484385168E-01 -0.41096348663E-01  0.13293939080E+00  0.18862950537E-01 0.  0.
         14    1    1    2    0    0  0.21230145601E-01  0.94292428773E-02 -0.55200163637E-02  0.23876772900E-01  0.00000000000E+00 0.  1.
     999901    1    3    3    0    0  0.86463371795E-01  0.54055142291E-01  0.46616365027E-01  0.88711383630E+00  0.88000000000E+00 0.  1.
        -11    1    4    4    0    0 -0.53610284502E-01 -0.23759470991E-01 -0.12313877595E-01  0.59920512085E-01  0.51100000000E-03 0.  1.
         11    1    4    4    0    0 -0.54083232894E-01 -0.39724914177E-01 -0.28782471068E-01  0.73018878713E-01  0.51100000000E-03 0. -1.
</event>
<event>
 8    1  0.1081309E+005  0.1043930E+01  0.7957747E-01            NaN
         13   -1    0    0    0    0  0.00000000000E+00  0.00000000000E+00  0.74505805969E-08  0.10566000000E+00  0.10566000000E+00 0. -1.
     999900   -1    0    0    0    0 -0.00000000000E+00 -0.00000000000E+00 -0.74505805969E-08  0.93827000000E+00  0.93827000000E+00 0. -1.
     999902    2    1    2    0    0  0.94767821321E-02 -0.33761755659E-02 -0.21512070606E-01  0.10201817971E+01  0.10199053495E+01 0.  0.
     999903    2    3    3    0    0  0.11090072065E+00 -0.53805175878E-03 -0.70631225814E-01  0.13299097111E+00  0.19964192850E-01 0.  0.
         14    1    1    2    0    0 -0.94767821321E-02  0.33761755659E-02  0.21512070606E-01  0.23748202938E-01  0.00000000000E+00 0. -1.
     999901    1    3    3    0    0 -0.10142393852E+00 -0.28381238071E-02  0.49119155208E-01  0.88719082596E+00  0.88000000000E+00 0. -1.
        -11    1    4    4    0    0  0.19207912176E-01 -0.19039202938E-02 -0.21707241261E-01  0.29052267499E-01  0.51100000000E-03 0. -1.
         11    1    4    4    0    0  0.91692808471E-01  0.13658685350E-02 -0.48923984553E-01  0.10393870361E+00  0.51100000000E-03 0.  1.
</event>
<event>
 8    1  0.1081309E+005  0.1043930E+01  0.7957747E-01            NaN
         13   -1    0    0    0    0  0.00000000000E+00  0.00000000000E+00  0.74505805969E-08  0.10566000000E+00  0.10566000000E+00 0. -1.
     999900   -1    0    0    0    0 -0.00000000000E+00 -0.00000000000E+00 -0.74505805969E-08  0.93827000000E+00  0.93827000000E+00 0. -1.
     999902    2    1    2    0    0 -0.84445028623E-02 -0.12901036331E-01  0.18083740147E-01  0.10201651515E+01  0.10198883117E+01 0.  0.
     999903    2    3    3    0    0  0.12538893734E+00 -0.42008663768E-03  0.23773304736E-01  0.12994072194E+00  0.24430700353E-01 0.  0.
         14    1    1    2    0    0  0.84445028623E-02  0.12901036331E-01 -0.18083740147E-01  0.23764848510E-01  0.00000000000E+00 0.  1.
     999901    1    3    3    0    0 -0.13383344020E+00 -0.12480949693E-01 -0.56895645887E-02  0.89022442955E+00  0.88000000000E+00 0.  1.
        -11    1    4    4    0    0  0.67763376690E-01  0.79952241167E-04  0.25183410166E-01  0.72293477447E-01  0.51100000000E-03 0.  1.
         11    1    4    4    0    0  0.57625560651E-01 -0.50003887884E-03 -0.14101054304E-02  0.57647244493E-01  0.51100000000E-03 0. -1.
</event>
<event>
 8    1  0.1081309E+005  0.1043930E+01  0.7957747E-01            NaN
         13   -1    0    0    0    0  0.00000000000E+00  0.00000000000E+00  0.74505805969E-08  0.10566000000E+00  0.10566000000E+00 0. -1.
     999900   -1    0    0    0    0 -0.00000000000E+00 -0.00000000000E+00 -0.74505805969E-08  0.93827000000E+00  0.93827000000E+00 0. -1.
     999902    2    1    2    0    0 -0.22180986343E-01  0.15073695002E-01 -0.90621330586E-03  0.10170965571E+01  0.10167425302E+01 0.  0.
     999903    2    3    3    0    0 -0.10581644606E+00 -0.23362326079E-01 -0.68675860759E-01  0.12970434225E+00  0.19076792425E-01 0.  0.
         14    1    1    2    0    0  0.22180986343E-01 -0.15073695002E-01  0.90621330586E-03  0.26833442916E-01  0.00000000000E+00 0.  1.
     999901    1    3    3    0    0  0.83635459720E-01  0.38436021081E-01  0.67769647453E-01  0.88739221484E+00  0.88000000000E+00 0.  1.
        -11    1    4    4    0    0 -0.68954851304E-01 -0.16210718720E-01 -0.33930637498E-01  0.78543670667E-01  0.51100000000E-03 0. -1.
         11    1    4    4    0    0 -0.36861594759E-01 -0.71516073590E-02 -0.34745223260E-01  0.51160671579E-01  0.51100000000E-03 0.  1.
</event>
<event>
 8    1  0.1081309E+005  0.1043930E+01  0.7957747E-01            NaN
         13   -1    0    0    0    0  0.00000000000E+00  0.00000000000E+00  0.74505805969E-08  0.10566000000E+00  0.10566000000E+00 0. -1.
     999900   -1    0    0    0    0 -0.00000000000E+00 -0.00000000000E+00 -0.74505805969E-08  0.93827000000E+00  0.93827000000E+00 0. -1.
     999902    2    1    2    0    0 -0.41617939299E-02 -0.14882790188E-01 -0.14113739057E-01  0.10230011777E+01  0.10227870717E+01 0.  0.
     999903    2    3    3    0    0  0.94398678489E-01 -0.92710110580E-01  0.34440296483E-02  0.13391201808E+00  0.20354167668E-01 0.  0.
         14    1    1    2    0    0  0.41617939299E-02  0.14882790188E-01  0.14113739057E-01  0.20928822296E-01  0.00000000000E+00 0. -1.
     999901    1    3    3    0    0 -0.98560472418E-01  0.77827320391E-01 -0.17557768706E-01  0.88908915963E+00  0.88000000000E+00 0. -1.
        -11    1    4    4    0    0  0.49577703163E-01 -0.35661824450E-01 -0.24423343217E-02  0.61122340368E-01  0.51100000000E-03 0. -1.
         11    1    4    4    0    0  0.44820975325E-01 -0.57048286129E-01  0.58863639700E-02  0.72789677710E-01  0.51100000000E-03 0.  1.
</event>
<event>
 8    1  0.1081309E+005  0.1043930E+01  0.7957747E-01            NaN
         13   -1    0    0    0    0  0.00000000000E+00  0.00000000000E+00  0.74505805969E-08  0.10566000000E+00  0.10566000000E+00 0.  1.
     999900   -1    0    0    0    0 -0.00000000000E+00 -0.00000000000E+00 -0.74505805969E-08  0.93827000000E+00  0.93827000000E+00 0.  1.
     999902    2    1    2    0    0  0.20776301760E-01 -0.63643426484E-02 -0.11397882777E-01  0.10193928587E+01  0.10190975071E+01 0.  0.
     999903    2    3    3    0    0 -0.95438187351E-01 -0.15160772832E-01 -0.82931863134E-01  0.12883107250E+00  0.19530864829E-01 0.  0.
         14    1    1    2    0    0 -0.20776301760E-01  0.63643426484E-02  0.11397882777E-01  0.24537141316E-01  0.00000000000E+00 0.  1.
     999901    1    3    3    0    0  0.11621448911E+00  0.87964301833E-02  0.71533980357E-01  0.89056178618E+00  0.88000000000E+00 0. -1.
        -11    1    4    4    0    0 -0.36764389860E-01 -0.14474805292E-01 -0.27792489241E-01  0.48309667037E-01  0.51100000000E-03 0.  1.
         11    1    4    4    0    0 -0.58673797491E-01 -0.68596754015E-03 -0.55139373893E-01  0.80521405463E-01  0.51100000000E-03 0. -1.
</event>
<event>
 8    1  0.1081309E+005  0.1043930E+01  0.7957747E-01            NaN
         13   -1    0    0    0    0  0.00000000000E+00  0.00000000000E+00  0.74505805969E-08  0.10566000000E+00  0.10566000000E+00 0.  1.
     999900   -1    0    0    0    0 -0.00000000000E+00 -0.00000000000E+00 -0.74505805969E-08  0.93827000000E+00  0.93827000000E+00 0.  1.
     999902    2    1    2    0    0  0.56095277728E-02 -0.16078316407E-01 -0.16296627369E-01  0.10203596983E+01  0.10200874250E+01 0.  0.
     999903    2    3    3    0    0  0.71693256070E-01  0.10576279733E+00 -0.28101157479E-02  0.12940840771E+00  0.20321096701E-01 0.  0.
         14    1    1    2    0    0 -0.56095277728E-02  0.16078316407E-01  0.16296627369E-01  0.23570301736E-01  0.00000000000E+00 0. -1.
     999901    1    3    3    0    0 -0.66083728298E-01 -0.12184111374E+00 -0.13486511621E-01  0.89095129055E+00  0.88000000000E+00 0.  1.
        -11    1    4    4    0    0  0.24571766915E-01  0.39288190102E-01 -0.10645041572E-01  0.47549044595E-01  0.51100000000E-03 0. -1.
         11    1    4    4    0    0  0.47121489156E-01  0.66474607227E-01  0.78349258245E-02  0.81859363117E-01  0.51100000000E-03 0.  1.
</event>
<event>
 8    1  0.1081309E+005  0.1043930E+01  0.7957747E-01            NaN
         13   -1    0    0    0    0  0.00000000000E+00  0.00000000000E+00  0.74505805969E-08  0.10566000000E+00  0.10566000000E+00 0.  1.
     999900   -1    0    0    0    0 -0.00000000000E+00 -0.00000000000E+00 -0.74505805969E-08  0.93827000000E+00  0.93827000000E+00 0.  1.
     999902    2    1    2    0    0 -0.16626873381E-01 -0.47010093361E-02  0.15547605825E-01  0.10206860663E+01  0.10204213666E+01 0.  0.
     999903    2    3    3    0    0  0.99114785468E-01  0.72384166812E-01 -0.32460857381E-01  0.12847360925E+00  0.19711740344E-01 0.  0.
         14    1    1    2    0    0  0.16626873381E-01  0.47010093361E-02 -0.15547605825E-01  0.23243933705E-01  0.00000000000E+00 0. -1.
     999901    1    3    3    0    0 -0.11574165885E+00 -0.77085176148E-01  0.48008463206E-01  0.89221245705E+00  0.88000000000E+00 0.  1.
        -11    1    4    4    0    0  0.53640768960E-01  0.36936115739E-01 -0.72128771252E-02  0.65527822015E-01  0.51100000000E-03 0.  1.
         11    1    4    4    0    0  0.45474016507E-01  0.35448051073E-01 -0.25247980256E-01  0.62945787231E-01  0.51100000000E-03 0. -1.
</event>
<event>
 8    1  0.1081309E+005  0.1043930E+01  0.7957747E-01            NaN
         13   -1    0    0    0    0  0.00000000000E+00  0.00000000000E+00  0.74505805969E-08  0.10566000000E+00  0.10566000000E+00 0.  1.
     999900   -1    0    0    0    0 -0.00000000000E+00 -0.00000000000E+00 -0.74505805969E-08  0.93827000000E+00  0.93827000000E+00 0. -1.
     999902    2    1    2    0    0 -0.50629813715E-02 -0.15638097293E-02 -0.23166538975E-01  0.10201651560E+01  0.10198883163E+01 0.  0.
     999903    2    3    3    0    0 -0.69457562425E-01  0.10306540153E+00 -0.38120243863E-01  0.13150462060E+00  0.19836387718E-01 0.  0.
         14    1    1    2    0    0  0.50629813715E-02  0.15638097293E-02  0.23166538975E-01  0.23764843978E-01  0.00000000000E+00 0.  1.
     999901    1    3    3    0    0  0.64394581054E-01 -0.10462921126E+00  0.14953704888E-01  0.88866053542E+00  0.88000000000E+00 0.  1.
        -11    1    4    4    0    0 -0.64739271034E-01  0.89605978065E-01 -0.28087828208E-01  0.11405959729E+00  0.51100000000E-03 0.  1.
         11    1    4    4    0    0 -0.47182913909E-02  0.13459423466E-01 -0.10032415655E-01  0.17445023317E-01  0.51100000000E-03 0. -1.
</event>
<event>
 8    1  0.1081309E+005  0.1043930E+01  0.7957747E-01            NaN
         13   -1    0    0    0    0  0.00000000000E+00  0.00000000000E+00  0.74505805969E-08  0.10566000000E+00  0.10566000000E+00 0.  1.
     999900   -1    0    0    0    0 -0.00000000000E+00 -0.00000000000E+00 -0.74505805969E-08  0.93827000000E+00  0.93827000000E+00 0.  1.
     999902    2    1    2    0    0 -0.21742356783E-01 -0.75400903711E-02 -0.10230764878E-01  0.10187456479E+01  0.10184343099E+01 0.  0.
     999903    2    3    3    0    0 -0.91623745921E-01  0.57160093604E-01  0.70060095309E-01  0.12997337977E+00  0.17957599383E-01 0.  0.
         14    1    1    2    0    0  0.21742356783E-01  0.75400903711E-02  0.10230764878E-01  0.25184352111E-01  0.00000000000E+00 0.  1.
     999901    1    3    3    0    0  0.69881389138E-01 -0.64700183975E-01 -0.80290860188E-01  0.88877226812E+00  0.88000000000E+00 0.  1.
        -11    1    4    4    0    0 -0.16107915465E-01  0.17386464142E-01  0.10700614394E-01  0.26009966271E-01  0.51100000000E-03 0.  1.
         11    1    4    4    0    0 -0.75515830456E-01  0.39773629462E-01  0.59359480915E-01  0.10396341350E+00  0.51100000000E-03 0. -1.
</event>
<event>
 8    1  0.1081309E+005  0.1043930E+01  0.7957747E-01            NaN
         13   -1    0    0    0    0  0.00000000000E+00  0.00000000000E+00  0.74505805969E-08  0.10566000000E+00  0.10566000000E+00 0. -1.
     999900   -1    0    0    0    0 -0.00000000000E+00 -0.00000000000E+00 -0.74505805969E-08  0.93827000000E+00  0.93827000000E+00 0.  1.
     999902    2    1    2    0    0  0.21926076757E-01  0.80850247624E-02 -0.24161416681E-02  0.10204362092E+01  0.10201657212E+01 0.  0.
     999903    2    3    3    0    0  0.72264539463E-01 -0.59106266229E-01 -0.87503887065E-01  0.13235481941E+00  0.33840118165E-01 0.  0.
         14    1    1    2    0    0 -0.21926076757E-01 -0.80850247624E-02  0.24161416681E-02  0.23493790838E-01  0.00000000000E+00 0.  1.
     999901    1    3    3    0    0 -0.50338462706E-01  0.67191290992E-01  0.85087745397E-01  0.88808138976E+00  0.88000000000E+00 0. -1.
        -11    1    4    4    0    0  0.23108018760E-01 -0.40697390528E-01 -0.40521567368E-01  0.61907323232E-01  0.51100000000E-03 0. -1.
         11    1    4    4    0    0  0.49156520703E-01 -0.18408875701E-01 -0.46982319697E-01  0.70447496175E-01  0.51100000000E-03 0.  1.
</event>
<event>
 8    1  0.1081309E+005  0.1043930E+01  0.7957747E-01            NaN
         13   -1    0    0    0    0  0.00000000000E+00  0.00000000000E+00  0.74505805969E-08  0.10566000000E+00  0.10566000000E+00 0. -1.
     999900   -1    0    0    0    0 -0.00000000000E+00 -0.00000000000E+00 -0.74505805969E-08  0.93827000000E+00  0.93827000000E+00 0.  1.
     999902    2    1    2    0    0 -0.18545289114E-01  0.14184242123E-01  0.71653161621E-02  0.10195074238E+01  0.10192148571E+01 0.  0.
     999903    2    3    3    0    0  0.97973757097E-01  0.39499906936E-01  0.71197689761E-01  0.12916046003E+00  0.21312289404E-01 0.  0.
         14    1    1    2    0    0  0.18545289114E-01 -0.14184242123E-01 -0.71653161621E-02  0.24422576208E-01  0.00000000000E+00 0.  1.
     999901    1    3    3    0    0 -0.11651904621E+00 -0.25315664814E-01 -0.64032373599E-01  0.89034696376E+00  0.88000000000E+00 0.  1.
        -11    1    4    4    0    0  0.39696578371E-01  0.17044034404E-01  0.16865397951E-01  0.46379092404E-01  0.51100000000E-03 0.  1.
         11    1    4    4    0    0  0.58277178726E-01  0.22455872532E-01  0.54332291810E-01  0.82781367624E-01  0.51100000000E-03 0. -1.
</event>
<event>
 8    1  0.1081309E+005  0.1043930E+01  0.7957747E-01            NaN
         13   -1    0    0    0    0  0.00000000000E+00  0.00000000000E+00  0.74505805969E-08  0.10566000000E+00  0.10566000000E+00 0.  1.
     999900   -1    0    0    0    0 -0.00000000000E+00 -0.00000000000E+00 -0.74505805969E-08  0.93827000000E+00  0.93827000000E+00 0. -1.
     999902    2    1    2    0    0 -0.18589266642E-01  0.11382529659E-01  0.16885443307E-02  0.10220673836E+01  0.10218335298E+01 0.  0.
     999903    2    3    3    0    0  0.84449529726E-01 -0.36455285371E-01  0.90162594598E-01  0.13036501860E+00  0.20125449239E-01 0.  0.
         14    1    1    2    0    0  0.18589266642E-01 -0.11382529659E-01 -0.16885443307E-02  0.21862616442E-01  0.00000000000E+00 0.  1.
     999901    1    3    3    0    0 -0.10303879637E+00  0.47837815030E-01 -0.88474050268E-01  0.89170236496E+00  0.88000000000E+00 0. -1.
        -11    1    4    4    0    0  0.17349751246E-01 -0.10956537593E-01  0.10240129196E-01  0.22938634468E-01  0.51100000000E-03 0.  1.
         11    1    4    4    0    0  0.67099778480E-01 -0.25498747778E-01  0.79922465402E-01  0.10742638413E+00  0.51100000000E-03 0. -1.
</event>
<event>
 8    1  0.1081309E+005  0.1043930E+01  0.7957747E-01            NaN
         13   -1    0    0    0    0  0.00000000000E+00  0.00000000000E+00  0.74505805969E-08  0.10566000000E+00  0.10566000000E+00 0. -1.
     999900   -1    0    0    0    0 -0.00000000000E+00 -0.00000000000E+00 -0.74505805969E-08  0.93827000000E+00  0.93827000000E+00 0.  1.
     999902    2    1    2    0    0 -0.12755068874E-01 -0.10940802173E-01  0.17132994235E-01  0.10199314078E+01  0.10196490299E+01 0.  0.
     999903    2    3    3    0    0  0.91982334021E-02 -0.11097422536E+00 -0.64674932093E-01  0.13022293309E+00  0.19372126103E-01 0.  0.
         14    1    1    2    0    0  0.12755068874E-01  0.10940802173E-01 -0.17132994235E-01  0.23998592159E-01  0.00000000000E+00 0.  1.
     999901    1    3    3    0    0 -0.21953302276E-01  0.10003342318E+00  0.81807926328E-01  0.88970847475E+00  0.88000000000E+00 0. -1.
        -11    1    4    4    0    0  0.85342351838E-02 -0.49479357685E-01 -0.38996002451E-01  0.63576641428E-01  0.51100000000E-03 0.  1.
         11    1    4    4    0    0  0.66399821834E-03 -0.61494867672E-01 -0.25678929642E-01  0.66646291661E-01  0.51100000000E-03 0. -1.
</event>
<event>
 8    1  0.1081309E+005  0.1043930E+01  0.7957747E-01            NaN
         13   -1    0    0    0    0  0.00000000000E+00  0.00000000000E+00  0.74505805969E-08  0.10566000000E+00  0.10566000000E+00 0.  1.
     999900   -1    0    0    0    0 -0.00000000000E+00 -0.00000000000E+00 -0.74505805969E-08  0.93827000000E+00  0.93827000000E+00 0. -1.
     999902    2    1    2    0    0 -0.21493387115E-01 -0.64921647473E-02 -0.62811865825E-02  0.10206154724E+01  0.10203491438E+01 0.  0.
     999903    2    3    3    0    0  0.39829461721E-02 -0.11375938410E+00  0.62020611549E-01  0.13110974698E+00  0.19650653058E-01 0.  0.
         14    1    1    2    0    0  0.21493387115E-01  0.64921647473E-02  0.62811865825E-02  0.23314527610E-01  0.00000000000E+00 0.  1.
     999901    1    3    3    0    0 -0.25476333287E-01  0.10726721935E+00 -0.68301798131E-01  0.88950572541E+00  0.88000000000E+00 0. -1.
        -11    1    4    4    0    0  0.36544668246E-02 -0.19725509345E-01  0.19236521897E-01  0.27798484534E-01  0.51100000000E-03 0. -1.
         11    1    4    4    0    0  0.32847934749E-03 -0.94033874756E-01  0.42784089652E-01  0.10331126245E+00  0.51100000000E-03 0.  1.
</event>
<event>
 8    1  0.1081309E+005  0.1043930E+01  0.7957747E-01            NaN
         13   -1    0    0    0    0  0.00000000000E+00  0.00000000000E+00  0.74505805969E-08  0.10566000000E+00  0.10566000000E+00 0.  1.
     999900   -1    0    0    0    0 -0.00000000000E+00 -0.00000000000E+00 -0.74505805969E-08  0.93827000000E+00  0.93827000000E+00 0. -1.
     999902    2    1    2    0    0 -0.22736211186E-01  0.62919466528E-02 -0.13977747876E-02  0.10202978679E+01  0.10200241476E+01 0.  0.
     999903    2    3    3    0    0 -0.12224490373E+00 -0.48114248004E-01 -0.50626102233E-02  0.13301243194E+00  0.20196031280E-01 0.  0.
         14    1    1    2    0    0  0.22736211186E-01 -0.62919466528E-02  0.13977747876E-02  0.23632132069E-01  0.00000000000E+00 0. -1.
     999901    1    3    3    0    0  0.99508692541E-01  0.54406194657E-01  0.36648354357E-02  0.88728543599E+00  0.88000000000E+00 0.  1.
        -11    1    4    4    0    0 -0.10110452983E+00 -0.46930756703E-01 -0.11410558591E-02  0.11147279940E+00  0.51100000000E-03 0.  1.
         11    1    4    4    0    0 -0.21140373901E-01 -0.11834913014E-02 -0.39215543643E-02  0.21539632541E-01  0.51100000000E-03 0. -1.
</event>
<event>
 8    1  0.1081309E+005  0.1043930E+01  0.7957747E-01            NaN
         13   -1    0    0    0    0  0.00000000000E+00  0.00000000000E+00  0.74505805969E-08  0.10566000000E+00  0.10566000000E+00 0.  1.
     999900   -1    0    0    0    0 -0.00000000000E+00 -0.00000000000E+00 -0.74505805969E-08  0.93827000000E+00  0.93827000000E+00 0. -1.
     999902    2    1    2    0    0  0.13214510336E-01 -0.16976271568E-01 -0.10015894877E-01  0.10201995295E+01  0.10199234995E+01 0.  0.
     999903    2    3    3    0    0 -0.57823265705E-01  0.96457200520E-01  0.56769196781E-01  0.12757767974E+00  0.20144504831E-01 0.  0.
         14    1    1    2    0    0 -0.13214510336E-01  0.16976271568E-01  0.10015894877E-01  0.23730470496E-01  0.00000000000E+00 0. -1.
     999901    1    3    3    0    0  0.71037776041E-01 -0.11343347209E+00 -0.66785091658E-01  0.89262184977E+00  0.88000000000E+00 0. -1.
        -11    1    4    4    0    0 -0.58986278487E-02  0.89293859686E-02 -0.63458418290E-03  0.10732733219E-01  0.51100000000E-03 0.  1.
         11    1    4    4    0    0 -0.51924637857E-01  0.87527814551E-01  0.57403780964E-01  0.11684494652E+00  0.51100000000E-03 0. -1.
</event>
<event>
 8    1  0.1081309E+005  0.1043930E+01  0.7957747E-01            NaN
         13   -1    0    0    0    0  0.00000000000E+00  0.00000000000E+00  0.74505805969E-08  0.10566000000E+00  0.10566000000E+00 0. -1.
     999900   -1    0    0    0    0 -0.00000000000E+00 -0.00000000000E+00 -0.74505805969E-08  0.93827000000E+00  0.93827000000E+00 0. -1.
     999902    2    1    2    0    0 -0.69697349887E-02  0.22451750516E-01  0.17924122345E-02  0.10203530823E+01  0.10200806544E+01 0.  0.
     999903    2    3    3    0    0  0.81151741610E-01 -0.12350846129E-01 -0.98462935478E-01  0.12960746759E+00  0.19104905774E-01 0.  0.
         14    1    1    2    0    0  0.69697349887E-02 -0.22451750516E-01 -0.17924122345E-02  0.23576917709E-01  0.00000000000E+00 0. -1.
     999901    1    3    3    0    0 -0.88121476599E-01  0.34802596646E-01  0.10025534771E+00  0.89074561470E+00  0.88000000000E+00 0.  1.
        -11    1    4    4    0    0  0.33996979916E-01  0.33941371182E-02 -0.34042670096E-01  0.48233591184E-01  0.51100000000E-03 0. -1.
         11    1    4    4    0    0  0.47154761694E-01 -0.15744983248E-01 -0.64420265382E-01  0.81373876402E-01  0.51100000000E-03 0.  1.
</event>
<event>
 8    1  0.1081309E+005  0.1043930E+01  0.7957747E-01            NaN
         13   -1    0    0    0    0  0.00000000000E+00  0.00000000000E+00  0.74505805969E-08  0.10566000000E+00  0.10566000000E+00 0. -1.
     999900   -1    0    0    0    0 -0.00000000000E+00 -0.00000000000E+00 -0.74505805969E-08  0.93827000000E+00  0.93827000000E+00 0. -1.
     999902    2    1    2    0    0  0.22603949746E-01 -0.17895867189E-02  0.63025641929E-02  0.10203956957E+01  0.10201242631E+01 0.  0.
     999903    2    3    3    0    0 -0.81255827085E-01 -0.93835729657E-01  0.29831019869E-01  0.12920944471E+00  0.19938336468E-01 0.  0.
         14    1    1    2    0    0 -0.22603949746E-01  0.17895867189E-02 -0.63025641929E-02  0.23534304327E-01  0.00000000000E+00 0.  1.
     999901    1    3    3    0    0  0.10385977683E+00  0.92046142938E-01 -0.23528455676E-01  0.89118625096E+00  0.88000000000E+00 0. -1.
        -11    1    4    4    0    0 -0.64839304251E-01 -0.84059925439E-01  0.29114848533E-01  0.11008243260E+00  0.51100000000E-03 0. -1.
         11    1    4    4    0    0 -0.16416522834E-01 -0.97758042177E-02  0.71617133566E-03  0.19127012115E-01  0.51100000000E-03 0.  1.
</event>
<event>
 8    1  0.1081309E+005  0.1043930E+01  0.7957747E-01            NaN
         13   -1    0    0    0    0  0.00000000000E+00  0.00000000000E+00  0.74505805969E-08  0.10566000000E+00  0.10566000000E+00 0. -1.
     999900   -1    0    0    0    0 -0.00000000000E+00 -0.00000000000E+00 -0.74505805969E-08  0.93827000000E+00  0.93827000000E+00 0. -1.
     999902    2    1    2    0    0 -0.83836932767E-02  0.18903262903E-01 -0.10973451640E-01  0.10205198248E+01  0.10202512811E+01 0.  0.
     999903    2    3    3    0    0  0.97559602252E-01 -0.15643528751E-02  0.82324819318E-01  0.12903372143E+00  0.18761721636E-01 0.  0.
         14    1    1    2    0    0  0.83836932767E-02 -0.18903262903E-01  0.10973451640E-01  0.23410175186E-01  0.00000000000E+00 0. -1.
     999901    1    3    3    0    0 -0.10594329553E+00  0.20467615779E-01 -0.93298270958E-01  0.89148610338E+00  0.88000000000E+00 0. -1.
        -11    1    4    4    0    0  0.15855146118E-01 -0.14186803407E-02  0.23360425499E-01  0.28273112896E-01  0.51100000000E-03 0. -1.
         11    1    4    4    0    0  0.81704456134E-01 -0.14567253440E-03  0.58964393819E-01  0.10076060853E+00  0.51100000000E-03 0.  1.
</event>
<event>
 8    1  0.1081309E+005  0.1043930E+01  0.7957747E-01            NaN
         13   -1    0    0    0    0  0.00000000000E+00  0.00000000000E+00  0.74505805969E-08  0.10566000000E+00  0.10566000000E+00 0.  1.
     999900   -1    0    0    0    0 -0.00000000000E+00 -0.00000000000E+00 -0.74505805969E-08  0.93827000000E+00  0.93827000000E+00 0.  1.
     999902    2    1    2    0    0  0.17122813082E-01 -0.18154442772E-01  0.53155626703E-02  0.10184147158E+01  0.10180950367E+01 0.  0.
     999903    2    3    3    0    0 -0.12011390041E+00 -0.21186051447E-01 -0.30510226655E-01  0.12705250361E+00  0.18310294780E-01 0.  0.
         14    1    1    2    0    0 -0.17122813082E-01  0.18154442772E-01 -0.53155626703E-02  0.25515284178E-01  0.00000000000E+00 0. -1.
     999901    1    3    3    0    0  0.13723671349E+00  0.30316086748E-02  0.35825789325E-01  0.89136221221E+00  0.88000000000E+00 0. -1.
        -11    1    4    4    0    0 -0.66362954416E-01 -0.32936756049E-02 -0.20372835146E-01  0.69499665832E-01  0.51100000000E-03 0.  1.
         11    1    4    4    0    0 -0.53750945994E-01 -0.17892375842E-01 -0.10137391509E-01  0.57552837777E-01  0.51100000000E-03 0. -1.
</event>
<event>
 8    1  0.1081309E+005  0.1043930E+01  0.7957747E-01            NaN
         13   -1    0    0    0    0  0.00000000000E+00  0.00000000000E+00  0.74505805969E-08  0.10566000000E+00  0.10566000000E+00 0. -1.
     999900   -1    0    0    0    0 -0.00000000000E+00 -0.00000000000E+00 -0.74505805969E-08  0.93827000000E+00  0.93827000000E+00 0.  1.
     999902    2    1    2    0    0 -0.31557057307E-02 -0.19978473484E-01 -0.11662186885E-01  0.10205825272E+01  0.10203154367E+01 0.  0.
     999903    2    3    3    0    0 -0.11652736310E+00 -0.42990953132E-01  0.38442277923E-01  0.13159818300E+00  0.20332846203E-01 0.  0.
         14    1    1    2    0    0  0.31557057307E-02  0.19978473484E-01  0.11662186885E-01  0.23347472762E-01  0.00000000000E+00 0. -1.
     999901    1    3    3    0    0  0.11337165737E+00  0.23012479648E-01 -0.50104464808E-01  0.88898434424E+00  0.88000000000E+00 0.  1.
        -11    1    4    4    0    0 -0.47955597670E-01 -0.85165047531E-02  0.98564002625E-02  0.49695874559E-01  0.51100000000E-03 0. -1.
         11    1    4    4    0    0 -0.68571765426E-01 -0.34474448379E-01  0.28585877661E-01  0.81902308437E-01  0.51100000000E-03 0.  1.
</event>
<event>
 8    1  0.1081309E+005  0.1043930E+01  0.7957747E-01            NaN
         13   -1    0    0    0    0  0.00000000000E+00  0.00000000000E+00  0.74505805969E-08  0.10566000000E+00  0.10566000000E+00 0. -1.
     999900   -1    0    0    0    0 -0.00000000000E+00 -0.00000000000E+00 -0.74505805969E-08  0.93827000000E+00  0.93827000000E+00 0.  1.
     999902    2    1    2    0    0 -0.55254764521E-02  0.10874835093E-02 -0.23324882693E-01  0.10199349242E+01  0.10196526300E+01 0.  0.
     999903    2    3    3    0    0 -0.32321583066E-01 -0.12384392610E+00 -0.17385248010E-01  0.13068739527E+00  0.19873240030E-01 0.  0.
         14    1    1    2    0    0  0.55254764521E-02 -0.10874835093E-02  0.23324882693E-01  0.23995075809E-01  0.00000000000E+00 0. -1.
     999901    1    3    3    0    0  0.26796106614E-01  0.12493140961E+00 -0.59396346830E-02  0.88924752892E+00  0.88000000000E+00 0. -1.
        -11    1    4    4    0    0 -0.69934701914E-03 -0.21431493741E-01 -0.87177793071E-02  0.23152943814E-01  0.51100000000E-03 0. -1.
         11    1    4    4    0    0 -0.31622236047E-01 -0.10241243236E+00 -0.86674687033E-02  0.10753445145E+00  0.51100000000E-03 0.  1.
</event>
<event>
 8    1  0.1081309E+005  0.1043930E+01  0.7957747E-01            NaN
         13   -1    0    0    0    0  0.00000000000E+00  0.00000000000E+00  0.74505805969E-08  0.10566000000E+00  0.10566000000E+00 0. -1.
     999900   -1    0    0    0    0 -0.00000000000E+00 -0.00000000000E+00 -0.74505805969E-08  0.93827000000E+00  0.93827000000E+00 0. -1.
     999902    2    1    2    0    0 -0.94422080606E-02 -0.18372438265E-01 -0.13309870503E-01  0.10193565502E+01  0.10190603133E+01 0.  0.
     999903    2    3    3    0    0 -0.37502940146E-01 -0.30225570457E-01  0.11800025519E+00  0.12909240373E+00  0.20511773382E-01 0.  0.
         14    1    1    2    0    0  0.94422080606E-02  0.18372438265E-01  0.13309870503E-01  0.24573449772E-01  0.00000000000E+00 0. -1.
     999901    1    3    3    0    0  0.28060732085E-01  0.11853132192E-01 -0.13131012569E+00  0.89026414650E+00  0.88000000000E+00 0. -1.
        -11    1    4    4    0    0 -0.45153646912E-03 -0.41856318712E-02  0.28208362539E-01  0.28525361303E-01  0.51100000000E-03 0. -1.
         11    1    4    4    0    0 -0.37051403677E-01 -0.26039938586E-01  0.89791892651E-01  0.10056704243E+00  0.51100000000E-03 0.  1.
</event>
<event>
 8    1  0.1081309E+005  0.1043930E+01  0.7957747E-01            NaN
         13   -1    0    0    0    0  0.00000000000E+00  0.00000000000E+00  0.74505805969E-08  0.10566000000E+00  0.10566000000E+00 0. -1.
     999900   -1    0    0    0    0 -0.00000000000E+00 -0.00000000000E+00 -0.74505805969E-08  0.93827000000E+00  0.93827000000E+00 0. -1.
     999902    2    1    2    0    0 -0.75264090594E-03 -0.22389894189E-01  0.98157460049E-03  0.10215059656E+01  0.10212598104E+01 0.  0.
     999903    2    3    3    0    0  0.11130453362E+00  0.42651850794E-01 -0.49356362305E-01  0.13059567447E+00  0.20280535221E-01 0.  0.
         14    1    1    2    0    0  0.75264090594E-03  0.22389894189E-01 -0.98157460049E-03  0.22424034402E-01  0.00000000000E+00 0. -1.
     999901    1    3    3    0    0 -0.11205717453E+00 -0.65041744984E-01  0.50337936906E-01  0.89091029113E+00  0.88000000000E+00 0.  1.
        -11    1    4    4    0    0  0.81737816849E-01  0.28293818958E-01 -0.44793185490E-01  0.97407912830E-01  0.51100000000E-03 0. -1.
         11    1    4    4    0    0  0.29566716770E-01  0.14358031836E-01 -0.45631768151E-02  0.33187761636E-01  0.51100000000E-03 0.  1.
</event>
<event>
 8    1  0.1081309E+005  0.1043930E+01  0.7957747E-01            NaN
         13   -1    0    0    0    0  0.00000000000E+00  0.00000000000E+00  0.74505805969E-08  0.10566000000E+00  0.10566000000E+00 0.  1.
     999900   -1    0    0    0    0 -0.00000000000E+00 -0.00000000000E+00 -0.74505805969E-08  0.93827000000E+00  0.93827000000E+00 0.  1.
     999902    2    1    2    0    0  0.17928376737E-01  0.11769382582E-01  0.54060470568E-02  0.10218128030E+01  0.10215734109E+01 0.  0.
     999903    2    3    3    0    0 -0.55336771503E-01 -0.80435084936E-01  0.84097161291E-01  0.13048697186E+00  0.20556169863E-01 0.  0.
         14    1    1    2    0    0 -0.17928376737E-01 -0.11769382582E-01 -0.54060470568E-02  0.22117197010E-01  0.00000000000E+00 0. -1.
     999901    1    3    3    0    0  0.73265148240E-01  0.92204467518E-01 -0.78691114234E-01  0.89132583113E+00  0.88000000000E+00 0.  1.
        -11    1    4    4    0    0 -0.17067636221E-01 -0.34310052342E-01  0.22030757172E-01  0.44205195175E-01  0.51100000000E-03 0. -1.
         11    1    4    4    0    0 -0.38269135282E-01 -0.46125032595E-01  0.62066404118E-01  0.86281776687E-01  0.51100000000E-03 0.  1.
</event>
<event>
 8    1  0.1081309E+005  0.1043930E+01  0.7957747E-01            NaN
         13   -1    0    0    0    0  0.00000000000E+00  0.00000000000E+00  0.74505805969E-08  0.10566000000E+00  0.10566000000E+00 0. -1.
     999900   -1    0    0    0    0 -0.00000000000E+00 -0.00000000000E+00 -0.74505805969E-08  0.93827000000E+00  0.93827000000E+00 0.  1.
     999902    2    1    2    0    0 -0.84361059498E-02  0.16823088811E-02 -0.22576599524E-01  0.10197700974E+01  0.10194838649E+01 0.  0.
     999903    2    3    3    0    0 -0.11830217866E+00 -0.50670388271E-01 -0.19547259896E-01  0.13138924681E+00  0.17836621973E-01 0.  0.
         14    1    1    2    0    0  0.84361059498E-02 -0.16823088811E-02  0.22576599524E-01  0.24159902583E-01  0.00000000000E+00 0. -1.
     999901    1    3    3    0    0  0.10986607271E+00  0.52352697152E-01 -0.30293396277E-02  0.88838085061E+00  0.88000000000E+00 0.  1.
        -11    1    4    4    0    0 -0.89173720559E-01 -0.32714581272E-01 -0.82209186820E-02  0.95341705937E-01  0.51100000000E-03 0.  1.
         11    1    4    4    0    0 -0.29128458103E-01 -0.17955806999E-01 -0.11326341214E-01  0.36047540870E-01  0.51100000000E-03 0. -1.
</event>
<event>
 8    1  0.1081309E+005  0.1043930E+01  0.7957747E-01            NaN
         13   -1    0    0    0    0  0.00000000000E+00  0.00000000000E+00  0.74505805969E-08  0.10566000000E+00  0.10566000000E+00 0. -1.
     999900   -1    0    0    0    0 -0.00000000000E+00 -0.00000000000E+00 -0.74505805969E-08  0.93827000000E+00  0.93827000000E+00 0. -1.
     999902    2    1    2    0    0 -0.97767769120E-02  0.58744315505E-02 -0.20884144712E-01  0.10201341640E+01  0.10198565932E+01 0.  0.
     999903    2    3    3    0    0  0.50267664239E-01 -0.69137641328E-01  0.91512452089E-01  0.12779726515E+00  0.25510009339E-01 0.  0.
         14    1    1    2    0    0  0.97767769120E-02 -0.58744315505E-02  0.20884144712E-01  0.23795836047E-01  0.00000000000E+00 0. -1.
     999901    1    3    3    0    0 -0.60044441151E-01  0.75012072878E-01 -0.11239659680E+00  0.89233689880E+00  0.88000000000E+00 0. -1.
        -11    1    4    4    0    0  0.13065156270E-01 -0.25073032545E-01  0.15077156149E-01  0.32045858202E-01  0.51100000000E-03 0.  1.
         11    1    4    4    0    0  0.37202507969E-01 -0.44064608782E-01  0.76435295940E-01  0.95751406949E-01  0.51100000000E-03 0. -1.
</event>
<event>
 8    1  0.1081309E+005  0.1043930E+01  0.7957747E-01            NaN
         13   -1    0    0    0    0  0.00000000000E+00  0.00000000000E+00  0.74505805969E-08  0.10566000000E+00  0.10566000000E+00 0. -1.
     999900   -1    0    0    0    0 -0.00000000000E+00 -0.00000000000E+00 -0.74505805969E-08  0.93827000000E+00  0.93827000000E+00 0.  1.
     999902    2    1    2    0    0  0.85737414152E-02 -0.17895501123E-01 -0.15876791719E-01  0.10185168043E+01  0.10181997103E+01 0.  0.
     999903    2    3    3    0    0  0.87687410664E-01 -0.18322160058E-01  0.90099855868E-01  0.12863467469E+00  0.20102536329E-01 0.  0.
         14    1    1    2    0    0 -0.85737414152E-02  0.17895501123E-01  0.15876791719E-01  0.25413195737E-01  0.00000000000E+00 0. -1.
     999901    1    3    3    0    0 -0.79113669249E-01  0.42665893518E-03 -0.10597664759E+00  0.88988212957E+00  0.88000000000E+00 0.  1.
        -11    1    4    4    0    0  0.36335577740E-01 -0.11891691248E-01  0.25949298141E-01  0.46209454936E-01  0.51100000000E-03 0.  1.
         11    1    4    4    0    0  0.51351832924E-01 -0.64304688099E-02  0.64150557727E-01  0.82425219754E-01  0.51100000000E-03 0. -1.
</event>
<event>
 8    1  0.1081309E+005  0.1043930E+01  0.7957747E-01            NaN
         13   -1    0    0    0    0  0.00000000000E+00  0.00000000000E+00  0.74505805969E-08  0.10566000000E+00  0.10566000000E+00 0. -1.
     999900   -1    0    0    0    0 -0.00000000000E+00 -0.00000000000E+00 -0.74505805969E-08  0.93827000000E+00  0.93827000000E+00 0. -1.
     999902    2    1    2    0    0 -0.83484004082E-02  0.21036269651E-01  0.30199346470E-02  0.10210971194E+01  0.10208418031E+01 0.  0.
     999903    2    3    3    0    0 -0.41754749352E-01 -0.12024854238E+00 -0.12513650873E-01  0.12906647279E+00  0.17274023898E-01 0.  0.
         14    1    1    2    0    0  0.83484004082E-02 -0.21036269651E-01 -0.30199346470E-02  0.22832880577E-01  0.00000000000E+00 0.  1.
     999901    1    3    3    0    0  0.33406348944E-01  0.14128481203E+00  0.15533585520E-01  0.89203064664E+00  0.88000000000E+00 0.  1.
        -11    1    4    4    0    0 -0.16029698563E-01 -0.24667007281E-01 -0.13281432418E-02  0.29452293114E-01  0.51100000000E-03 0. -1.
         11    1    4    4    0    0 -0.25725050790E-01 -0.95581535097E-01 -0.11185507631E-01  0.99614179672E-01  0.51100000000E-03 0.  1.
</event>
<event>
 8    1  0.1081309E+005  0.1043930E+01  0.7957747E-01            NaN
         13   -1    0    0    0    0  0.00000000000E+00  0.00000000000E+00  0.74505805969E-08  0.10566000000E+00  0.10566000000E+00 0.  1.
     999900   -1    0    0    0    0 -0.00000000000E+00 -0.00000000000E+00 -0.74505805969E-08  0.93827000000E+00  0.93827000000E+00 0.  1.
     999902    2    1    2    0    0  0.20313170662E-01  0.39797596011E-02  0.11329317737E-01  0.10203330335E+01  0.10200601366E+01 0.  0.
     999903    2    3    3    0    0  0.12875010168E-01 -0.12428252790E+00  0.32857312888E-01  0.13074324306E+00  0.20056918221E-01 0.  0.
         14    1    1    2    0    0 -0.20313170662E-01 -0.39797596011E-02 -0.11329317737E-01  0.23596966526E-01  0.00000000000E+00 0. -1.
     999901    1    3    3    0    0  0.74381604939E-02  0.12826228750E+00 -0.21527995151E-01  0.88958979041E+00  0.88000000000E+00 0.  1.
        -11    1    4    4    0    0  0.12854053298E-01 -0.53199847315E-01  0.21268866335E-01  0.58720322178E-01  0.51100000000E-03 0.  1.
         11    1    4    4    0    0  0.20956869682E-04 -0.71082680586E-01  0.11588446553E-01  0.72022920886E-01  0.51100000000E-03 0. -1.
</event>
<event>
 8    1  0.1081309E+005  0.1043930E+01  0.7957747E-01            NaN
         13   -1    0    0    0    0  0.00000000000E+00  0.00000000000E+00  0.74505805969E-08  0.10566000000E+00  0.10566000000E+00 0. -1.
     999900   -1    0    0    0    0 -0.00000000000E+00 -0.00000000000E+00 -0.74505805969E-08  0.93827000000E+00  0.93827000000E+00 0.  1.
     999902    2    1    2    0    0 -0.14165596112E-01 -0.18673259059E-01  0.13149591430E-02  0.10204548251E+01  0.10201847707E+01 0.  0.
     999903    2    3    3    0    0 -0.20095014699E-01 -0.12253510993E+00 -0.43818759835E-01  0.13317837743E+00  0.19943262520E-01 0.  0.
         14    1    1    2    0    0  0.14165596112E-01  0.18673259059E-01 -0.13149591430E-02  0.23475174859E-01  0.00000000000E+00 0. -1.
     999901    1    3    3    0    0  0.59294185864E-02  0.10386185087E+00  0.45133718978E-01  0.88727644771E+00  0.88000000000E+00 0. -1.
        -11    1    4    4    0    0 -0.88655540330E-02 -0.81927820993E-01 -0.20087995154E-01  0.84820720177E-01  0.51100000000E-03 0. -1.
         11    1    4    4    0    0 -0.11229460666E-01 -0.40607288939E-01 -0.23730764680E-01  0.48357657255E-01  0.51100000000E-03 0.  1.
</event>
<event>
 8    1  0.1081309E+005  0.1043930E+01  0.7957747E-01            NaN
         13   -1    0    0    0    0  0.00000000000E+00  0.00000000000E+00  0.74505805969E-08  0.10566000000E+00  0.10566000000E+00 0.  1.
     999900   -1    0    0    0    0 -0.00000000000E+00 -0.00000000000E+00 -0.74505805969E-08  0.93827000000E+00  0.93827000000E+00 0.  1.
     999902    2    1    2    0    0  0.25115613223E-02 -0.17447594551E-01  0.15812989144E-01  0.10202492669E+01  0.10199744063E+01 0.  0.
     999903    2    3    3    0    0 -0.12475351763E+00 -0.31158082403E-01 -0.11511404040E-01  0.13056898707E+00  0.19531556562E-01 0.  0.
         14    1    1    2    0    0 -0.25115613223E-02  0.17447594551E-01 -0.15812989144E-01  0.23680733129E-01  0.00000000000E+00 0. -1.
     999901    1    3    3    0    0  0.12726507895E+00  0.13710487853E-01  0.27324393184E-01  0.88968027980E+00  0.88000000000E+00 0. -1.
        -11    1    4    4    0    0 -0.44691276616E-01 -0.15046414242E-01 -0.12888638468E-01  0.48888474201E-01  0.51100000000E-03 0. -1.
         11    1    4    4    0    0 -0.80062241016E-01 -0.16111668161E-01  0.13772344277E-02  0.81680512872E-01  0.51100000000E-03 0.  1.
</event>
<event>
 8    1  0.1081309E+005  0.1043930E+01  0.7957747E-01            NaN
         13   -1    0    0    0    0  0.00000000000E+00  0.00000000000E+00  0.74505805969E-08  0.10566000000E+00  0.10566000000E+00 0. -1.
     999900   -1    0    0    0    0 -0.00000000000E+00 -0.00000000000E+00 -0.74505805969E-08  0.93827000000E+00  0.93827000000E+00 0.  1.
     999902    2    1    2    0    0 -0.10481498737E-01 -0.32641975618E-02  0.20601219263E-01  0.10205863277E+01  0.10203193251E+01 0.  0.
     999903    2    3    3    0    0  0.50679348746E-01 -0.11289607908E+00 -0.35278426151E-01  0.12992234309E+00  0.17925591222E-01 0.  0.
         14    1    1    2    0    0  0.10481498737E-01  0.32641975618E-02 -0.20601219263E-01  0.23343672304E-01  0.00000000000E+00 0.  1.
     999901    1    3    3    0    0 -0.61160847484E-01  0.10963188152E+00  0.55879645414E-01  0.89066398461E+00  0.88000000000E+00 0. -1.
        -11    1    4    4    0    0  0.17035628997E-01 -0.20955554597E-01 -0.52510477055E-02  0.27516950172E-01  0.51100000000E-03 0. -1.
         11    1    4    4    0    0  0.33643719750E-01 -0.91940524481E-01 -0.30027378446E-01  0.10240539291E+00  0.51100000000E-03 0.  1.
</event>
<event>
 8    1  0.1081309E+005  0.1043930E+01  0.7957747E-01            NaN
         13   -1    0    0    0    0  0.00000000000E+00  0.00000000000E+00  0.74505805969E-08  0.10566000000E+00  0.10566000000E+00 0. -1.
     999900   -1    0    0    0    0 -0.00000000000E+00 -0.00000000000E+00 -0.74505805969E-08  0.93827000000E+00  0.93827000000E+00 0. -1.
     999902    2    1    2    0    0 -0.73506465305E-02  0.10136165953E-03 -0.23315424880E-01  0.10194830919E+01  0.10191899349E+01 0.  0.
     999903    2    3    3    0    0  0.22537983600E-01  0.11193145353E+00 -0.61650538369E-01  0.13107503217E+00  0.18527390052E-01 0.  0.
         14    1    1    2    0    0  0.73506465305E-02 -0.10136165953E-03  0.23315424880E-01  0.24446908106E-01  0.00000000000E+00 0. -1.
     999901    1    3    3    0    0 -0.29888630130E-01 -0.11183009187E+00  0.38335113489E-01  0.88840805973E+00  0.88000000000E+00 0. -1.
        -11    1    4    4    0    0  0.20931932119E-01  0.71706637395E-01 -0.33024498763E-01  0.81675371247E-01  0.51100000000E-03 0. -1.
         11    1    4    4    0    0  0.16060514803E-02  0.40224816138E-01 -0.28626039606E-01  0.49399660922E-01  0.51100000000E-03 0.  1.
</event>
<event>
 8    1  0.1081309E+005  0.1043930E+01  0.7957747E-01            NaN
         13   -1    0    0    0    0  0.00000000000E+00  0.00000000000E+00  0.74505805969E-08  0.10566000000E+00  0.10566000000E+00 0. -1.
     999900   -1    0    0    0    0 -0.00000000000E+00 -0.00000000000E+00 -0.74505805969E-08  0.93827000000E+00  0.93827000000E+00 0. -1.
     999902    2    1    2    0    0  0.10961690842E-02  0.18528339383E-01 -0.15751620040E-01  0.10195863257E+01  0.10192956691E+01 0.  0.
     999903    2    3    3    0    0  0.10405282562E+00  0.77244448767E-01  0.73434769330E-02  0.13134027971E+00  0.20066066750E-01 0.  0.
         14    1    1    2    0    0 -0.10961690842E-02 -0.18528339383E-01  0.15751620040E-01  0.24343674350E-01  0.00000000000E+00 0.  1.
     999901    1    3    3    0    0 -0.10295665654E+00 -0.58716109384E-01 -0.23095096973E-01  0.88824604594E+00  0.88000000000E+00 0.  1.
        -11    1    4    4    0    0  0.54659964274E-01  0.48686426949E-01 -0.34053113240E-02  0.73279854870E-01  0.51100000000E-03 0. -1.
         11    1    4    4    0    0  0.49392861350E-01  0.28558021818E-01  0.10748788257E-01  0.58060424839E-01  0.51100000000E-03 0.  1.
</event>
<event>
 8    1  0.1081309E+005  0.1043930E+01  0.7957747E-01            NaN
         13   -1    0    0    0    0  0.00000000000E+00  0.00000000000E+00  0.74505805969E-08  0.10566000000E+00  0.10566000000E+00 0.  1.
     999900   -1    0    0    0    0 -0.00000000000E+00 -0.00000000000E+00 -0.74505805969E-08  0.93827000000E+00  0.93827000000E+00 0.  1.
     999902    2    1    2    0    0 -0.73189962115E-02  0.12844224289E-01 -0.18770731145E-01  0.10200368598E+01  0.10197569873E+01 0.  0.
     999903    2    3    3    0    0  0.93398699220E-01  0.94180933618E-03 -0.88128854921E-01  0.13150083292E+00  0.28312011003E-01 0.  0.
         14    1    1    2    0    0  0.73189962115E-02 -0.12844224289E-01  0.18770731145E-01  0.23893140247E-01  0.00000000000E+00 0.  1.
     999901    1    3    3    0    0 -0.10071769543E+00  0.11902414953E-01  0.69358123776E-01  0.88853602684E+00  0.88000000000E+00 0. -1.
        -11    1    4    4    0    0  0.49026292860E-01  0.13106345941E-01 -0.54767983663E-01  0.74666905996E-01  0.51100000000E-03 0.  1.
         11    1    4    4    0    0  0.44372406360E-01 -0.12164536605E-01 -0.33360871257E-01  0.56833926919E-01  0.51100000000E-03 0. -1.
</event>
<event>
 8    1  0.1081309E+005  0.1043930E+01  0.7957747E-01            NaN
         13   -1    0    0    0    0  0.00000000000E+00  0.00000000000E+00  0.74505805969E-08  0.10566000000E+00  0.10566000000E+00 0. -1.
     999900   -1    0    0    0    0 -0.00000000000E+00 -0.00000000000E+00 -0.74505805969E-08  0.93827000000E+00  0.93827000000E+00 0. -1.
     999902    2    1    2    0    0 -0.18453806999E-01  0.96054181208E-02  0.18123415086E-01  0.10163389648E+01  0.10159643823E+01 0.  0.
     999903    2    3    3    0    0 -0.38904374846E-01 -0.98670071100E-01  0.68654545071E-01  0.12802865729E+00  0.20701623530E-01 0.  0.
         14    1    1    2    0    0  0.18453806999E-01 -0.96054181208E-02 -0.18123415086E-01  0.27591035218E-01  0.00000000000E+00 0.  1.
     999901    1    3    3    0    0  0.20450567847E-01  0.10827548922E+00 -0.50531129985E-01  0.88831030749E+00  0.88000000000E+00 0. -1.
        -11    1    4    4    0    0 -0.12675395057E-01 -0.38449523865E-01  0.38052536492E-01  0.55563370847E-01  0.51100000000E-03 0. -1.
         11    1    4    4    0    0 -0.26228979789E-01 -0.60220547234E-01  0.30602008579E-01  0.72465286448E-01  0.51100000000E-03 0.  1.
</event>
<event>
 8    1  0.1081309E+005  0.1043930E+01  0.7957747E-01            NaN
         13   -1    0    0    0    0  0.00000000000E+00  0.00000000000E+00  0.74505805969E-08  0.10566000000E+00  0.10566000000E+00 0.  1.
     999900   -1    0    0    0    0 -0.00000000000E+00 -0.00000000000E+00 -0.74505805969E-08  0.93827000000E+00  0.93827000000E+00 0.  1.
     999902    2    1    2    0    0  0.92931259661E-02 -0.16364545759E-01 -0.12846587281E-01  0.10211441414E+01  0.10208898874E+01 0.  0.
     999903    2    3    3    0    0 -0.96149456804E-01 -0.87719413926E-01 -0.14298703866E-01  0.13198062205E+00  0.16583667901E-01 0.  0.
         14    1    1    2    0    0 -0.92931259661E-02  0.16364545759E-01  0.12846587281E-01  0.22785858617E-01  0.00000000000E+00 0.  1.
     999901    1    3    3    0    0  0.10544258277E+00  0.71354868167E-01  0.14521165852E-02  0.88916351933E+00  0.88000000000E+00 0.  1.
        -11    1    4    4    0    0 -0.43529707234E-01 -0.38462073866E-01  0.18319580705E-02  0.58118703782E-01  0.51100000000E-03 0.  1.
         11    1    4    4    0    0 -0.52619749570E-01 -0.49257340060E-01 -0.16130661936E-01  0.73861918267E-01  0.51100000000E-03 0. -1.
</event>
<event>
 8    1  0.1081309E+005  0.1043930E+01  0.7957747E-01            NaN
         13   -1    0    0    0    0  0.00000000000E+00  0.00000000000E+00  0.74505805969E-08  0.10566000000E+00  0.10566000000E+00 0. -1.
     999900   -1    0    0    0    0 -0.00000000000E+00 -0.00000000000E+00 -0.74505805969E-08  0.93827000000E+00  0.93827000000E+00 0. -1.
     999902    2    1    2    0    0 -0.16470576625E-01  0.10177916042E-01 -0.12033215515E-01  0.10211337691E+01  0.10208792809E+01 0.  0.
     999903    2    3    3    0    0 -0.19786441159E-02  0.13089304353E+00 -0.67847895240E-02  0.13275901476E+00  0.21024242009E-01 0.  0.
         14    1    1    2    0    0  0.16470576625E-01 -0.10177916042E-01  0.12033215515E-01  0.22796230938E-01  0.00000000000E+00 0. -1.
     999901    1    3    3    0    0 -0.14491932509E-01 -0.12071512749E+00 -0.52484259915E-02  0.88837475431E+00  0.88000000000E+00 0. -1.
        -11    1    4    4    0    0  0.42579272398E-02  0.19736992017E-01  0.49935600048E-02  0.20805661748E-01  0.51100000000E-03 0.  1.
         11    1    4    4    0    0 -0.62365713557E-02  0.11115605152E+00 -0.11778349529E-01  0.11195335301E+00  0.51100000000E-03 0. -1.
</event>
<event>
 8    1  0.1081309E+005  0.1043930E+01  0.7957747E-01            NaN
         13   -1    0    0    0    0  0.00000000000E+00  0.00000000000E+00  0.74505805969E-08  0.10566000000E+00  0.10566000000E+00 0.  1.
     999900   -1    0    0    0    0 -0.00000000000E+00 -0.00000000000E+00 -0.74505805969E-08  0.93827000000E+00  0.93827000000E+00 0. -1.
     999902    2    1    2    0    0 -0.19069377237E-01  0.12473909184E-02 -0.16208371593E-01  0.10188718987E+01  0.10185637130E+01 0.  0.
     999903    2    3    3    0    0 -0.11109611636E+00 -0.29613495189E-01  0.58807424017E-01  0.13036265022E+00  0.17798912469E-01 0.  0.
         14    1    1    2    0    0  0.19069377237E-01 -0.12473909184E-02  0.16208371593E-01  0.25058101325E-01  0.00000000000E+00 0.  1.
     999901    1    3    3    0    0  0.92026739121E-01  0.30860886108E-01 -0.75015795609E-01  0.88850924846E+00  0.88000000000E+00 0.  1.
        -11    1    4    4    0    0 -0.10583900635E-01 -0.16659711807E-02  0.11763996708E-01  0.15920023623E-01  0.51100000000E-03 0.  1.
         11    1    4    4    0    0 -0.10051221572E+00 -0.27947524008E-01  0.47043427309E-01  0.11444262659E+00  0.51100000000E-03 0. -1.
</event>
<event>
 7    1  0.1081309E+005  0.1043930E+01  0.7957747E-01            NaN
         13   -1    0    0    0    0  0.00000000000E+00  0.00000000000E+00  0.74505805969E-08  0.10566000000E+00  0.10566000000E+00 0. -1.
     999900   -1    0    0    0    0 -0.00000000000E+00 -0.00000000000E+00 -0.74505805969E-08  0.93827000000E+00  0.93827000000E+00 0.  1.
     999903    2    1    2    0    0  0.32806224897E-01  0.52177082327E-01 -0.48709879728E-01  0.79795081308E-01  0.13996653376E-01 0.  0.
         14    1    1    2    0    0  0.66276142052E-01 -0.39544475930E-01  0.71996938906E-02  0.77512116305E-01  0.00000000000E+00 0.  1.
     999901    1    1    2    0    0 -0.99082366949E-01 -0.12632606397E-01  0.41510185837E-01  0.88662280239E+00  0.88000000000E+00 0. -1.
        -11    1    3    3    0    0  0.17439293787E-01  0.16808198252E-01 -0.23285853827E-01  0.33602627958E-01  0.51100000000E-03 0.  1.
         11    1    3    3    0    0  0.15366931110E-01  0.35368884075E-01 -0.25424025901E-01  0.46192453350E-01  0.51100000000E-03 0. -1.
</event>
<event>
 8    1  0.1081309E+005  0.1043930E+01  0.7957747E-01            NaN
         13   -1    0    0    0    0  0.00000000000E+00  0.00000000000E+00  0.74505805969E-08  0.10566000000E+00  0.10566000000E+00 0. -1.
     999900   -1    0    0    0    0 -0.00000000000E+00 -0.00000000000E+00 -0.74505805969E-08  0.93827000000E+00  0.93827000000E+00 0.  1.
     999902    2    1    2    0    0  0.12804703468E-01  0.18890684419E-01 -0.55935498373E-02  0.10204330600E+01  0.10201624987E+01 0.  0.
     999903    2    3    3    0    0 -0.98181210367E-01  0.82490590557E-01 -0.18332251646E-01  0.13109336358E+00  0.20128361228E-01 0.  0.
         14    1    1    2    0    0 -0.12804703468E-01 -0.18890684419E-01  0.55935498373E-02  0.23496939981E-01  0.00000000000E+00 0.  1.
     999901    1    3    3    0    0  0.11098591384E+00 -0.63599906138E-01  0.12738701808E-01  0.88933969643E+00  0.88000000000E+00 0. -1.
        -11    1    4    4    0    0 -0.52586017407E-01  0.41386413473E-01  0.35644933830E-03  0.66921690236E-01  0.51100000000E-03 0. -1.
         11    1    4    4    0    0 -0.45595192961E-01  0.41104177083E-01 -0.18688700984E-01  0.64171673348E-01  0.51100000000E-03 0.  1.
</event>
<event>
 8    1  0.1081309E+005  0.1043930E+01  0.7957747E-01            NaN
         13   -1    0    0    0    0  0.00000000000E+00  0.00000000000E+00  0.74505805969E-08  0.10566000000E+00  0.10566000000E+00 0. -1.
     999900   -1    0    0    0    0 -0.00000000000E+00 -0.00000000000E+00 -0.74505805969E-08  0.93827000000E+00  0.93827000000E+00 0. -1.
     999902    2    1    2    0    0 -0.53449176517E-02  0.18293273065E-01  0.39465021605E-02  0.10244675525E+01  0.10242826657E+01 0.  0.
     999903    2    3    3    0    0 -0.48485319721E-01 -0.95941038105E-01 -0.75600207519E-01  0.13248198580E+00  0.16750407890E-01 0.  0.
         14    1    1    2    0    0  0.53449176517E-02 -0.18293273065E-01 -0.39465021605E-02  0.19462447519E-01  0.00000000000E+00 0.  1.
     999901    1    3    3    0    0  0.43140402069E-01  0.11423431117E+00  0.79546709680E-01  0.89198556668E+00  0.88000000000E+00 0.  1.
        -11    1    4    4    0    0 -0.19761609889E-01 -0.29223093202E-01 -0.32786184342E-01  0.48163320135E-01  0.51100000000E-03 0. -1.
         11    1    4    4    0    0 -0.28723709832E-01 -0.66717944903E-01 -0.42814023177E-01  0.84318665669E-01  0.51100000000E-03 0.  1.
</event>
<event>
 8    1  0.1081309E+005  0.1043930E+01  0.7957747E-01            NaN
         13   -1    0    0    0    0  0.00000000000E+00  0.00000000000E+00  0.74505805969E-08  0.10566000000E+00  0.10566000000E+00 0. -1.
     999900   -1    0    0    0    0 -0.00000000000E+00 -0.00000000000E+00 -0.74505805969E-08  0.93827000000E+00  0.93827000000E+00 0.  1.
     999902    2    1    2    0    0  0.15890205478E-01 -0.17468668542E-01 -0.82346673947E-02  0.10189207466E+01  0.10186137762E+01 0.  0.
     999903    2    3    3    0    0 -0.73936648868E-01 -0.84594056371E-01 -0.62597683283E-01  0.13014067311E+00  0.19883219728E-01 0.  0.
         14    1    1    2    0    0 -0.15890205478E-01  0.17468668542E-01  0.82346673947E-02  0.25009253444E-01  0.00000000000E+00 0.  1.
     999901    1    3    3    0    0  0.89826854346E-01  0.67125387829E-01  0.54363015888E-01  0.88878007344E+00  0.88000000000E+00 0.  1.
        -11    1    4    4    0    0 -0.17662413806E-01 -0.97259274222E-02 -0.14588295478E-01  0.24892448888E-01  0.51100000000E-03 0.  1.
         11    1    4    4    0    0 -0.56274235062E-01 -0.74868128949E-01 -0.48009387804E-01  0.10524822422E+00  0.51100000000E-03 0. -1.
</event>
<event>
 8    1  0.1081309E+005  0.1043930E+01  0.7957747E-01            NaN
         13   -1    0    0    0    0  0.00000000000E+00  0.00000000000E+00  0.74505805969E-08  0.10566000000E+00  0.10566000000E+00 0.  1.
     999900   -1    0    0    0    0 -0.00000000000E+00 -0.00000000000E+00 -0.74505805969E-08  0.93827000000E+00  0.93827000000E+00 0.  1.
     999902    2    1    2    0    0 -0.19770064208E-01 -0.34773233071E-02  0.12697321668E-01  0.10201777539E+01  0.10199012111E+01 0.  0.
     999903    2    3    3    0    0  0.50424530960E-01  0.27110542678E-01 -0.11317663016E+00  0.12792938576E+00  0.16714164087E-01 0.  0.
         14    1    1    2    0    0  0.19770064208E-01  0.34773233071E-02 -0.12697321668E-01  0.23752246077E-01  0.00000000000E+00 0. -1.
     999901    1    3    3    0    0 -0.70194595168E-01 -0.30587865985E-01  0.12587395182E+00  0.89224836816E+00  0.88000000000E+00 0. -1.
        -11    1    4    4    0    0  0.10530900350E-01  0.13243379636E-02 -0.11243878752E-01  0.15470606440E-01  0.51100000000E-03 0.  1.
         11    1    4    4    0    0  0.39893630610E-01  0.25786204714E-01 -0.10193275140E+00  0.11245877932E+00  0.51100000000E-03 0. -1.
</event>
<event>
 8    1  0.1081309E+005  0.1043930E+01  0.7957747E-01            NaN
         13   -1    0    0    0    0  0.00000000000E+00  0.00000000000E+00  0.74505805969E-08  0.10566000000E+00  0.10566000000E+00 0. -1.
     999900   -1    0    0    0    0 -0.00000000000E+00 -0.00000000000E+00 -0.74505805969E-08  0.93827000000E+00  0.93827000000E+00 0.  1.
     999902    2    1    2    0    0 -0.64431260536E-02  0.88612181814E-02 -0.20627247013E-01  0.10205736651E+01  0.10203063694E+01 0.  0.
     999903    2    3    3    0    0 -0.10492372283E+00  0.67539396062E-01  0.35854330464E-01  0.13134269111E+00  0.19869873175E-01 0.  0.
         14    1    1    2    0    0  0.64431260536E-02 -0.88612181814E-02  0.20627247013E-01  0.23356334908E-01  0.00000000000E+00 0. -1.
     999901    1    3    3    0    0  0.98480596781E-01 -0.58678177880E-01 -0.56481577477E-01  0.88923097399E+00  0.88000000000E+00 0. -1.
        -11    1    4    4    0    0 -0.57591839936E-01  0.40184166142E-01  0.29975427125E-01  0.76356889592E-01  0.51100000000E-03 0. -1.
         11    1    4    4    0    0 -0.47331882899E-01  0.27355229920E-01  0.58789033385E-02  0.54985801514E-01  0.51100000000E-03 0.  1.
</event>
<event>
 8    1  0.1081309E+005  0.1043930E+01  0.7957747E-01            NaN
         13   -1    0    0    0    0  0.00000000000E+00  0.00000000000E+00  0.74505805969E-08  0.10566000000E+00  0.10566000000E+00 0.  1.
     999900   -1    0    0    0    0 -0.00000000000E+00 -0.00000000000E+00 -0.74505805969E-08  0.93827000000E+00  0.93827000000E+00 0. -1.
     999902    2    1    2    0    0  0.24009454146E-01  0.16628062159E-01  0.18859931052E-02  0.10146639222E+01  0.10142417718E+01 0.  0.
     999903    2    3    3    0    0  0.98721322488E-01  0.43308453190E-01  0.67416824040E-01  0.12866843895E+00  0.19723523713E-01 0.  0.
         14    1    1    2    0    0 -0.24009454146E-01 -0.16628062159E-01 -0.18859931052E-02  0.29266077796E-01  0.00000000000E+00 0. -1.
     999901    1    3    3    0    0 -0.74711868342E-01 -0.26680391031E-01 -0.65530830935E-01  0.88599548325E+00  0.88000000000E+00 0. -1.
        -11    1    4    4    0    0  0.35618194048E-01  0.20797037262E-01  0.16121719737E-01  0.44287057640E-01  0.51100000000E-03 0. -1.
         11    1    4    4    0    0  0.63103128440E-01  0.22511415929E-01  0.51295104303E-01  0.84381381314E-01  0.51100000000E-03 0.  1.
</event>
<event>
 8    1  0.1081309E+005  0.1043930E+01  0.7957747E-01            NaN
         13   -1    0    0    0    0  0.00000000000E+00  0.00000000000E+00  0.74505805969E-08  0.10566000000E+00  0.10566000000E+00 0.  1.
     999900   -1    0    0    0    0 -0.00000000000E+00 -0.00000000000E+00 -0.74505805969E-08  0.93827000000E+00  0.93827000000E+00 0. -1.
     999902    2    1    2    0    0  0.27024410982E-03  0.48780467483E-03 -0.21625251842E-01  0.10222975590E+01  0.10220686556E+01 0.  0.
     999903    2    3    3    0    0  0.17784056240E-01  0.25386202189E-01  0.12432881301E+00  0.12975666200E+00  0.20454966875E-01 0.  0.
         14    1    1    2    0    0 -0.27024410982E-03 -0.48780467483E-03  0.21625251842E-01  0.21632440975E-01  0.00000000000E+00 0.  1.
     999901    1    3    3    0    0 -0.17513812130E-01 -0.24898397514E-01 -0.14595406486E+00  0.89254089703E+00  0.88000000000E+00 0. -1.
        -11    1    4    4    0    0  0.11533839036E-01  0.77714343451E-02  0.24368003144E-01  0.28062169070E-01  0.51100000000E-03 0. -1.
         11    1    4    4    0    0  0.62502172035E-02  0.17614767844E-01  0.99960809871E-01  0.10169449293E+00  0.51100000000E-03 0.  1.
</event>
<event>
 8    1  0.1081309E+005  0.1043930E+01  0.7957747E-01            NaN
         13   -1    0    0    0    0  0.00000000000E+00  0.00000000000E+00  0.74505805969E-08  0.10566000000E+00  0.10566000000E+00 0. -1.
     999900   -1    0    0    0    0 -0.00000000000E+00 -0.00000000000E+00 -0.74505805969E-08  0.93827000000E+00  0.93827000000E+00 0.  1.
     999902    2    1    2    0    0 -0.50023566700E-02  0.18570707604E-01  0.13688483295E-01  0.10203234473E+01  0.10200503262E+01 0.  0.
     999903    2    3    3    0    0  0.25005901722E-01  0.10866106166E+00  0.70113196535E-01  0.13341842666E+00  0.21262521047E-01 0.  0.
         14    1    1    2    0    0  0.50023566700E-02 -0.18570707604E-01 -0.13688483295E-01  0.23606552652E-01  0.00000000000E+00 0.  1.
     999901    1    3    3    0    0 -0.30008258392E-01 -0.90090354054E-01 -0.56424713240E-01  0.88690502069E+00  0.88000000000E+00 0.  1.
        -11    1    4    4    0    0  0.17257611226E-01  0.44395776522E-01  0.39164258720E-01  0.61667741975E-01  0.51100000000E-03 0. -1.
         11    1    4    4    0    0  0.77482904957E-02  0.64265285137E-01  0.30948937816E-01  0.71750684681E-01  0.51100000000E-03 0.  1.
</event>
<event>
 8    1  0.1081309E+005  0.1043930E+01  0.7957747E-01            NaN
         13   -1    0    0    0    0  0.00000000000E+00  0.00000000000E+00  0.74505805969E-08  0.10566000000E+00  0.10566000000E+00 0. -1.
     999900   -1    0    0    0    0 -0.00000000000E+00 -0.00000000000E+00 -0.74505805969E-08  0.93827000000E+00  0.93827000000E+00 0. -1.
     999902    2    1    2    0    0 -0.21457172210E-01 -0.87541413173E-02 -0.78322760133E-02  0.10194679932E+01  0.10191744695E+01 0.  0.
     999903    2    3    3    0    0 -0.12388105009E+00  0.17447685355E-01 -0.38755528685E-01  0.13260079116E+00  0.20737466504E-01 0.  0.
         14    1    1    2    0    0  0.21457172210E-01  0.87541413173E-02  0.78322760133E-02  0.24462006807E-01  0.00000000000E+00 0.  1.
     999901    1    3    3    0    0  0.10242387788E+00 -0.26201826672E-01  0.30923252672E-01  0.88686720203E+00  0.88000000000E+00 0.  1.
        -11    1    4    4    0    0 -0.76006187905E-01  0.12229442412E-01 -0.34150358474E-01  0.84219997426E-01  0.51100000000E-03 0.  1.
         11    1    4    4    0    0 -0.47874862188E-01  0.52182429424E-02 -0.46051702108E-02  0.48380793737E-01  0.51100000000E-03 0. -1.
</event>
<event>
 8    1  0.1081309E+005  0.1043930E+01  0.7957747E-01            NaN
         13   -1    0    0    0    0  0.00000000000E+00  0.00000000000E+00  0.74505805969E-08  0.10566000000E+00  0.10566000000E+00 0. -1.
     999900   -1    0    0    0    0 -0.00000000000E+00 -0.00000000000E+00 -0.74505805969E-08  0.93827000000E+00  0.93827000000E+00 0.  1.
     999902    2    1    2    0    0  0.15115024382E-01  0.15103784078E-01  0.10460708714E-01  0.10201389369E+01  0.10198614788E+01 0.  0.
     999903    2    3    3    0    0  0.78445259340E-01 -0.13711185859E-02  0.10507172719E+00  0.13265181820E+00  0.20022445865E-01 0.  0.
         14    1    1    2    0    0 -0.15115024382E-01 -0.15103784078E-01 -0.10460708714E-01  0.23791063077E-01  0.00000000000E+00 0.  1.
     999901    1    3    3    0    0 -0.63330234959E-01  0.16474902664E-01 -0.94611018477E-01  0.88748711872E+00  0.88000000000E+00 0.  1.
        -11    1    4    4    0    0  0.19729452420E-01 -0.62935154345E-02  0.38718895969E-01  0.43912112855E-01  0.51100000000E-03 0. -1.
         11    1    4    4    0    0  0.58715806920E-01  0.49223968485E-02  0.66352831222E-01  0.88739705348E-01  0.51100000000E-03 0.  1.
</event>
<event>
 8    1  0.1081309E+005  0.1043930E+01  0.7957747E-01            NaN
         13   -1    0    0    0    0  0.00000000000E+00  0.00000000000E+00  0.74505805969E-08  0.10566000000E+00  0.10566000000E+00 0. -1.
     999900   -1    0    0    0    0 -0.00000000000E+00 -0.00000000000E+00 -0.74505805969E-08  0.93827000000E+00  0.93827000000E+00 0. -1.
     999902    2    1    2    0    0  0.18048251606E-01 -0.15415943659E-01  0.15276332800E-02  0.10201450390E+01  0.10198677249E+01 0.  0.
     999903    2    3    3    0    0 -0.89529280578E-01  0.38257973442E-01  0.81058623249E-01  0.12841694528E+00  0.21005875854E-01 0.  0.
         14    1    1    2    0    0 -0.18048251606E-01  0.15415943659E-01 -0.15276332800E-02  0.23784960971E-01  0.00000000000E+00 0.  1.
     999901    1    3    3    0    0  0.10757753218E+00 -0.53673917101E-01 -0.79530989969E-01  0.89172809374E+00  0.88000000000E+00 0.  1.
        -11    1    4    4    0    0 -0.11802036513E-01  0.31413836609E-02  0.20297830945E-01  0.23694290857E-01  0.51100000000E-03 0.  1.
         11    1    4    4    0    0 -0.77727244066E-01  0.35116589781E-01  0.60760792304E-01  0.10472265443E+00  0.51100000000E-03 0. -1.
</event>
<event>
 8    1  0.1081309E+005  0.1043930E+01  0.7957747E-01            NaN
         13   -1    0    0    0    0  0.00000000000E+00  0.00000000000E+00  0.74505805969E-08  0.10566000000E+00  0.10566000000E+00 0.  1.
     999900   -1    0    0    0    0 -0.00000000000E+00 -0.00000000000E+00 -0.74505805969E-08  0.93827000000E+00  0.93827000000E+00 0.  1.
     999902    2    1    2    0    0  0.11753215247E-01  0.11358888838E-01  0.18640426783E-01  0.10191383092E+01  0.10188367216E+01 0.  0.
     999903    2    3    3    0    0  0.12567873427E+00  0.29677010566E-01  0.15847084811E-01  0.13160105347E+00  0.19794897653E-01 0.  0.
         14    1    1    2    0    0 -0.11753215247E-01 -0.11358888838E-01 -0.18640426783E-01  0.24791690844E-01  0.00000000000E+00 0. -1.
     999901    1    3    3    0    0 -0.11392551903E+00 -0.18318121728E-01  0.27933419727E-02  0.88753725568E+00  0.88000000000E+00 0. -1.
        -11    1    4    4    0    0  0.35875626515E-01  0.16301810542E-01  0.97743842368E-02  0.40603070241E-01  0.51100000000E-03 0.  1.
         11    1    4    4    0    0  0.89803107758E-01  0.13375200024E-01  0.60727005738E-02  0.90997983230E-01  0.51100000000E-03 0. -1.
</event>
<event>
 8    1  0.1081309E+005  0.1043930E+01  0.7957747E-01            NaN
         13   -1    0    0    0    0  0.00000000000E+00  0.00000000000E+00  0.74505805969E-08  0.10566000000E+00  0.10566000000E+00 0.  1.
     999900   -1    0    0    0    0 -0.00000000000E+00 -0.00000000000E+00 -0.74505805969E-08  0.93827000000E+00  0.93827000000E+00 0. -1.
     999902    2    1    2    0    0  0.17291123215E-01 -0.67525728903E-02 -0.15631617241E-01  0.10196621686E+01  0.10193733420E+01 0.  0.
     999903    2    3    3    0    0 -0.42534606947E-01  0.25486861520E-01 -0.11974027163E+00  0.13092311184E+00  0.18556822625E-01 0.  0.
         14    1    1    2    0    0 -0.17291123215E-01  0.67525728903E-02  0.15631617241E-01  0.24267831388E-01  0.00000000000E+00 0.  1.
     999901    1    3    3    0    0  0.59825730162E-01 -0.32239434410E-01  0.10410865438E+00  0.88873905678E+00  0.88000000000E+00 0.  1.
        -11    1    4    4    0    0 -0.34397155081E-02 -0.26420105562E-02 -0.15307170444E-01  0.15917991411E-01  0.51100000000E-03 0.  1.
         11    1    4    4    0    0 -0.39094891439E-01  0.28128872076E-01 -0.10443310118E+00  0.11500512043E+00  0.51100000000E-03 0. -1.
</event>
<event>
 8    1  0.1081309E+005  0.1043930E+01  0.7957747E-01            NaN
         13   -1    0    0    0    0  0.00000000000E+00  0.00000000000E+00  0.74505805969E-08  0.10566000000E+00  0.10566000000E+00 0. -1.
     999900   -1    0    0    0    0 -0.00000000000E+00 -0.00000000000E+00 -0.74505805969E-08  0.93827000000E+00  0.93827000000E+00 0.  1.
     999902    2    1    2    0    0  0.73252858950E-02  0.18165193530E-02  0.22980681279E-01  0.10197417535E+01  0.10194548409E+01 0.  0.
     999903    2    3    3    0    0 -0.80676914562E-01  0.65016399206E-01  0.78392674914E-01  0.13136733856E+00  0.19392510213E-01 0.  0.
         14    1    1    2    0    0 -0.73252858950E-02 -0.18165193530E-02 -0.22980681279E-01  0.24188246486E-01  0.00000000000E+00 0.  1.
     999901    1    3    3    0    0  0.88002200457E-01 -0.63199879853E-01 -0.55411993635E-01  0.88837441495E+00  0.88000000000E+00 0.  1.
        -11    1    4    4    0    0 -0.51482117811E-01  0.44375090532E-01  0.39841910240E-01  0.78785760431E-01  0.51100000000E-03 0.  1.
         11    1    4    4    0    0 -0.29194796751E-01  0.20641308674E-01  0.38550764674E-01  0.52581578134E-01  0.51100000000E-03 0. -1.
</event>
<event>
 8    1  0.1081309E+005  0.1043930E+01  0.7957747E-01            NaN
         13   -1    0    0    0    0  0.00000000000E+00  0.00000000000E+00  0.74505805969E-08  0.10566000000E+00  0.10566000000E+00 0. -1.
     999900   -1    0    0    0    0 -0.00000000000E+00 -0.00000000000E+00 -0.74505805969E-08  0.93827000000E+00  0.93827000000E+00 0.  1.
     999902    2    1    2    0    0  0.14870953802E-01 -0.12808611338E-01 -0.12600190731E-01  0.10206068227E+01  0.10203402942E+01 0.  0.
     999903    2    3    3    0    0  0.21512207224E-01  0.20416602723E-01  0.12512886808E+00  0.12924981528E+00  0.12987239778E-01 0.  0.
         14    1    1    2    0    0 -0.14870953802E-01  0.12808611338E-01  0.12600190731E-01  0.23323177267E-01  0.00000000000E+00 0. -1.
     999901    1    3    3    0    0 -0.66412534218E-02 -0.33225214061E-01 -0.13772905881E+00  0.89135700745E+00  0.88000000000E+00 0.  1.
        -11    1    4    4    0    0  0.55804595003E-02 -0.36750247233E-03  0.32810125302E-01  0.33287265277E-01  0.51100000000E-03 0.  1.
         11    1    4    4    0    0  0.15931747723E-01  0.20784105196E-01  0.92318742775E-01  0.95962550002E-01  0.51100000000E-03 0. -1.
</event>
<event>
 8    1  0.1081309E+005  0.1043930E+01  0.7957747E-01            NaN
         13   -1    0    0    0    0  0.00000000000E+00  0.00000000000E+00  0.74505805969E-08  0.10566000000E+00  0.10566000000E+00 0. -1.
     999900   -1    0    0    0    0 -0.00000000000E+00 -0.00000000000E+00 -0.74505805969E-08  0.93827000000E+00  0.93827000000E+00 0.  1.
     999902    2    1    2    0    0  0.86942290432E-02 -0.11031090952E-01  0.19594542011E-01  0.10198214815E+01  0.10195364797E+01 0.  0.
     999903    2    3    3    0    0  0.39748523686E-01 -0.11612992458E-01 -0.11975055392E+00  0.12831614583E+00  0.20249231727E-01 0.  0.
         14    1    1    2    0    0 -0.86942290432E-02  0.11031090952E-01 -0.19594542011E-01  0.24108518471E-01  0.00000000000E+00 0.  1.
     999901    1    3    3    0    0 -0.31054294643E-01  0.58190150661E-03  0.13934509594E+00  0.89150533570E+00  0.88000000000E+00 0. -1.
        -11    1    4    4    0    0  0.13609720869E-01 -0.12161911788E-01 -0.66946840929E-01  0.69392198638E-01  0.51100000000E-03 0. -1.
         11    1    4    4    0    0  0.26138802818E-01  0.54891933004E-03 -0.52803712995E-01  0.58923947188E-01  0.51100000000E-03 0.  1.
</event>
<event>
 8    1  0.1081309E+005  0.1043930E+01  0.7957747E-01            NaN
         13   -1    0    0    0    0  0.00000000000E+00  0.00000000000E+00  0.74505805969E-08  0.10566000000E+00  0.10566000000E+00 0.  1.
     999900   -1    0    0    0    0 -0.00000000000E+00 -0.00000000000E+00 -0.74505805969E-08  0.93827000000E+00  0.93827000000E+00 0. -1.
     999902    2    1    2    0    0 -0.20191642546E-01  0.57675157048E-03  0.12802583249E-01  0.10200147076E+01  0.10197343098E+01 0.  0.
     999903    2    3    3    0    0  0.25713929015E-01  0.11086913066E+00  0.61271575252E-01  0.13062110884E+00  0.18828113644E-01 0.  0.
         14    1    1    2    0    0  0.20191642546E-01 -0.57675157048E-03 -0.12802583249E-01  0.23915292366E-01  0.00000000000E+00 0. -1.
     999901    1    3    3    0    0 -0.45905571561E-01 -0.11029237909E+00 -0.48468992003E-01  0.88939359879E+00  0.88000000000E+00 0. -1.
        -11    1    4    4    0    0  0.21009138476E-01  0.57557941453E-01  0.39118087268E-01  0.72696536343E-01  0.51100000000E-03 0. -1.
         11    1    4    4    0    0  0.47047905385E-02  0.53311189205E-01  0.22153487984E-01  0.57924572500E-01  0.51100000000E-03 0.  1.
</event>
<event>
 8    1  0.1081309E+005  0.1043930E+01  0.7957747E-01            NaN
         13   -1    0    0    0    0  0.00000000000E+00  0.00000000000E+00  0.74505805969E-08  0.10566000000E+00  0.10566000000E+00 0.  1.
     999900   -1    0    0    0    0 -0.00000000000E+00 -0.00000000000E+00 -0.74505805969E-08  0.93827000000E+00  0.93827000000E+00 0. -1.
     999902    2    1    2    0    0  0.60099790754E-02 -0.39442342943E-02 -0.22813054248E-01  0.10200111314E+01  0.10197306487E+01 0.  0.
     999903    2    3    3    0    0 -0.75917571301E-01  0.66087330315E-01  0.76468389615E-01  0.12789379119E+00  0.19452361122E-01 0.  0.
         14    1    1    2    0    0 -0.60099790754E-02  0.39442342943E-02  0.22813054248E-01  0.23918868635E-01  0.00000000000E+00 0.  1.
     999901    1    3    3    0    0  0.81927550376E-01 -0.70031564609E-01 -0.99281443863E-01  0.89211734018E+00  0.88000000000E+00 0. -1.
        -11    1    4    4    0    0 -0.47010902416E-01  0.40223606997E-01  0.34900312453E-01  0.71037007511E-01  0.51100000000E-03 0. -1.
         11    1    4    4    0    0 -0.28906668885E-01  0.25863723318E-01  0.41568077163E-01  0.56856783675E-01  0.51100000000E-03 0.  1.
</event>
<event>
 8    1  0.1081309E+005  0.1043930E+01  0.7957747E-01            NaN
         13   -1    0    0    0    0  0.00000000000E+00  0.00000000000E+00  0.74505805969E-08  0.10566000000E+00  0.10566000000E+00 0. -1.
     999900   -1    0    0    0    0 -0.00000000000E+00 -0.00000000000E+00 -0.74505805969E-08  0.93827000000E+00  0.93827000000E+00 0. -1.
     999902    2    1    2    0    0 -0.19329167927E-01  0.10516803976E-01 -0.65672628229E-02  0.10209659228E+01  0.10207076304E+01 0.  0.
     999903    2    3    3    0    0  0.83761787264E-01  0.95562878457E-01  0.21986912098E-01  0.13041782154E+00  0.19418628372E-01 0.  0.
         14    1    1    2    0    0  0.19329167927E-01 -0.10516803976E-01  0.65672628229E-02  0.22964077155E-01  0.00000000000E+00 0. -1.
     999901    1    3    3    0    0 -0.10309095519E+00 -0.85046074481E-01 -0.28554174921E-01  0.89054810130E+00  0.88000000000E+00 0. -1.
        -11    1    4    4    0    0  0.33942221641E-01  0.27650995535E-01  0.18764438611E-02  0.43822758089E-01  0.51100000000E-03 0. -1.
         11    1    4    4    0    0  0.49819565624E-01  0.67911882921E-01  0.20110468237E-01  0.86595063454E-01  0.51100000000E-03 0.  1.
</event>
<event>
 8    1  0.1081309E+005  0.1043930E+01  0.7957747E-01            NaN
         13   -1    0    0    0    0  0.00000000000E+00  0.00000000000E+00  0.74505805969E-08  0.10566000000E+00  0.10566000000E+00 0. -1.
     999900   -1    0    0    0    0 -0.00000000000E+00 -0.00000000000E+00 -0.74505805969E-08  0.93827000000E+00  0.93827000000E+00 0. -1.
     999902    2    1    2    0    0 -0.22495108299E-01  0.31813186212E-02 -0.55934873110E-02  0.10205326116E+01  0.10202643645E+01 0.  0.
     999903    2    3    3    0    0 -0.30804808670E-01 -0.19135016783E-03  0.12535515217E+00  0.13079783524E+00  0.21099447271E-01 0.  0.
         14    1    1    2    0    0  0.22495108299E-01 -0.31813186212E-02  0.55934873110E-02  0.23397388441E-01  0.00000000000E+00 0. -1.
     999901    1    3    3    0    0  0.83097003710E-02  0.33726687890E-02 -0.13094863948E+00  0.88973477632E+00  0.88000000000E+00 0. -1.
        -11    1    4    4    0    0 -0.19680017159E-01 -0.10290028241E-01  0.70216737902E-01  0.73646718591E-01  0.51100000000E-03 0. -1.
         11    1    4    4    0    0 -0.11124791511E-01  0.10098678073E-01  0.55138414268E-01  0.57151116647E-01  0.51100000000E-03 0.  1.
</event>
<event>
 8    1  0.1081309E+005  0.1043930E+01  0.7957747E-01            NaN
         13   -1    0    0    0    0  0.00000000000E+00  0.00000000000E+00  0.74505805969E-08  0.10566000000E+00  0.10566000000E+00 0. -1.
     999900   -1    0    0    0    0 -0.00000000000E+00 -0.00000000000E+00 -0.74505805969E-08  0.93827000000E+00  0.93827000000E+00 0. -1.
     999902    2    1    2    0    0  0.76970901107E-03  0.19067489730E-01  0.14099585833E-01  0.10202032232E+01  0.10199272801E+01 0.  0.
     999903    2    3    3    0    0 -0.29415843900E-01  0.12211206729E+00  0.40019164729E-01  0.13329782963E+00  0.19751683171E-01 0.  0.
         14    1    1    2    0    0 -0.76970901107E-03 -0.19067489730E-01 -0.14099585833E-01  0.23726776798E-01  0.00000000000E+00 0.  1.
     999901    1    3    3    0    0  0.30185552911E-01 -0.10304457756E+00 -0.25919578896E-01  0.88690539357E+00  0.88000000000E+00 0.  1.
        -11    1    4    4    0    0 -0.74136137688E-02  0.46244775629E-01  0.57492635547E-02  0.47189576122E-01  0.51100000000E-03 0. -1.
         11    1    4    4    0    0 -0.22002230131E-01  0.75867291666E-01  0.34269901175E-01  0.86108253512E-01  0.51100000000E-03 0.  1.
</event>
<event>
 8    1  0.1081309E+005  0.1043930E+01  0.7957747E-01            NaN
         13   -1    0    0    0    0  0.00000000000E+00  0.00000000000E+00  0.74505805969E-08  0.10566000000E+00  0.10566000000E+00 0.  1.
     999900   -1    0    0    0    0 -0.00000000000E+00 -0.00000000000E+00 -0.74505805969E-08  0.93827000000E+00  0.93827000000E+00 0. -1.
     999902    2    1    2    0    0  0.17889783634E-01 -0.35981494395E-02  0.17169401603E-01  0.10188744739E+01  0.10185663523E+01 0.  0.
     999903    2    3    3    0    0  0.42883548744E-01  0.12083531473E+00  0.11289798265E-01  0.12974965416E+00  0.16350570981E-01 0.  0.
         14    1    1    2    0    0 -0.17889783634E-01  0.35981494395E-02 -0.17169401603E-01  0.25055526122E-01  0.00000000000E+00 0. -1.
     999901    1    3    3    0    0 -0.24993765110E-01 -0.12443346417E+00  0.58796033379E-02  0.88912481972E+00  0.88000000000E+00 0.  1.
        -11    1    4    4    0    0  0.15163432683E-01  0.37931342178E-01  0.11093061394E-01  0.42332417155E-01  0.51100000000E-03 0. -1.
         11    1    4    4    0    0  0.27720116061E-01  0.82903972553E-01  0.19673687101E-03  0.87417237006E-01  0.51100000000E-03 0.  1.
</event>
<event>
 8    1  0.1081309E+005  0.1043930E+01  0.7957747E-01            NaN
         13   -1    0    0    0    0  0.00000000000E+00  0.00000000000E+00  0.74505805969E-08  0.10566000000E+00  0.10566000000E+00 0.  1.
     999900   -1    0    0    0    0 -0.00000000000E+00 -0.00000000000E+00 -0.74505805969E-08  0.93827000000E+00  0.93827000000E+00 0.  1.
     999902    2    1    2    0    0  0.10517807680E-01 -0.22241505430E-02  0.21130383537E-01  0.10202221061E+01  0.10199466072E+01 0.  0.
     999903    2    3    3    0    0  0.90093419515E-01  0.45229563797E-01 -0.79746032960E-01  0.12962669606E+00  0.16766421134E-01 0.  0.
         14    1    1    2    0    0 -0.10517807680E-01  0.22241505430E-02 -0.21130383537E-01  0.23707893884E-01  0.00000000000E+00 0. -1.
     999901    1    3    3    0    0 -0.79575611836E-01 -0.47453714340E-01  0.10087641650E+00  0.89059541005E+00  0.88000000000E+00 0.  1.
        -11    1    4    4    0    0  0.51285446025E-01  0.30736726675E-01 -0.55743435175E-01  0.81746773800E-01  0.51100000000E-03 0. -1.
         11    1    4    4    0    0  0.38807973490E-01  0.14492837122E-01 -0.24002597786E-01  0.47879922261E-01  0.51100000000E-03 0.  1.
</event>
<event>
 8    1  0.1081309E+005  0.1043930E+01  0.7957747E-01            NaN
         13   -1    0    0    0    0  0.00000000000E+00  0.00000000000E+00  0.74505805969E-08  0.10566000000E+00  0.10566000000E+00 0.  1.
     999900   -1    0    0    0    0 -0.00000000000E+00 -0.00000000000E+00 -0.74505805969E-08  0.93827000000E+00  0.93827000000E+00 0.  1.
     999902    2    1    2    0    0 -0.32966669019E-01 -0.40980141455E-02 -0.49087226740E-02  0.10103488960E+01  0.10097906719E+01 0.  0.
     999903    2    3    3    0    0 -0.11723247916E+00 -0.34525432658E-01 -0.21139419562E-01  0.12565121315E+00  0.20146777301E-01 0.  0.
         14    1    1    2    0    0  0.32966669019E-01  0.40980141455E-02  0.49087226740E-02  0.33581103979E-01  0.00000000000E+00 0.  1.
     999901    1    3    3    0    0  0.84265810144E-01  0.30427418513E-01  0.16230696888E-01  0.88469768287E+00  0.88000000000E+00 0. -1.
        -11    1    4    4    0    0 -0.10451349757E+00 -0.33537664281E-01 -0.13050477416E-01  0.11053697201E+00  0.51100000000E-03 0. -1.
         11    1    4    4    0    0 -0.12718981592E-01 -0.98776837717E-03 -0.80889421460E-02  0.15114241137E-01  0.51100000000E-03 0.  1.
</event>
<event>
 8    1  0.1081309E+005  0.1043930E+01  0.7957747E-01            NaN
         13   -1    0    0    0    0  0.00000000000E+00  0.00000000000E+00  0.74505805969E-08  0.10566000000E+00  0.10566000000E+00 0. -1.
     999900   -1    0    0    0    0 -0.00000000000E+00 -0.00000000000E+00 -0.74505805969E-08  0.93827000000E+00  0.93827000000E+00 0.  1.
     999902    2    1    2    0    0  0.49760454259E-02 -0.22873110619E-01 -0.51981929314E-02  0.10199516467E+01  0.10196697505E+01 0.  0.
     999903    2    3    3    0    0 -0.18731660699E-01 -0.21797820789E-01  0.12518960615E+00  0.13002794787E+00  0.20219041405E-01 0.  0.
         14    1    1    2    0    0 -0.49760454259E-02  0.22873110619E-01  0.51981929314E-02  0.23978353305E-01  0.00000000000E+00 0.  1.
     999901    1    3    3    0    0  0.23707706125E-01 -0.10752898306E-02 -0.13038779908E+00  0.88992369882E+00  0.88000000000E+00 0.  1.
        -11    1    4    4    0    0 -0.61403980795E-02 -0.17519180405E-01  0.44057607560E-01  0.47811714836E-01  0.51100000000E-03 0.  1.
         11    1    4    4    0    0 -0.12591262620E-01 -0.42786403831E-02  0.81131998593E-01  0.82216233035E-01  0.51100000000E-03 0. -1.
</event>
<event>
 8    1  0.1081309E+005  0.1043930E+01  0.7957747E-01            NaN
         13   -1    0    0    0    0  0.00000000000E+00  0.00000000000E+00  0.74505805969E-08  0.10566000000E+00  0.10566000000E+00 0. -1.
     999900   -1    0    0    0    0 -0.00000000000E+00 -0.00000000000E+00 -0.74505805969E-08  0.93827000000E+00  0.93827000000E+00 0. -1.
     999902    2    1    2    0    0  0.74003253083E-02 -0.14617074261E-01 -0.17105967792E-01  0.10202437633E+01  0.10199687734E+01 0.  0.
     999903    2    3    3    0    0 -0.67637834405E-01 -0.58030349352E-01  0.91656100812E-01  0.12932029553E+00  0.19506407430E-01 0.  0.
         14    1    1    2    0    0 -0.74003253083E-02  0.14617074261E-01  0.17105967792E-01  0.23686236694E-01  0.00000000000E+00 0. -1.
     999901    1    3    3    0    0  0.75038159713E-01  0.43413275091E-01 -0.10876206860E+00  0.89092346778E+00  0.88000000000E+00 0. -1.
        -11    1    4    4    0    0 -0.23209373335E-01 -0.21477010273E-01  0.19979725561E-01  0.37408388569E-01  0.51100000000E-03 0.  1.
         11    1    4    4    0    0 -0.44428461070E-01 -0.36553339079E-01  0.71676375251E-01  0.91911906960E-01  0.51100000000E-03 0. -1.
</event>
<event>
 8    1  0.1081309E+005  0.1043930E+01  0.7957747E-01            NaN
         13   -1    0    0    0    0  0.00000000000E+00  0.00000000000E+00  0.74505805969E-08  0.10566000000E+00  0.10566000000E+00 0. -1.
     999900   -1    0    0    0    0 -0.00000000000E+00 -0.00000000000E+00 -0.74505805969E-08  0.93827000000E+00  0.93827000000E+00 0. -1.
     999902    2    1    2    0    0  0.65371153850E-02 -0.20343426116E-01  0.13053071899E-01  0.10188906001E+01  0.10185828799E+01 0.  0.
     999903    2    3    3    0    0 -0.11061045546E+00 -0.56618509217E-01  0.34292049960E-01  0.13013274259E+00  0.17839774680E-01 0.  0.
         14    1    1    2    0    0 -0.65371153850E-02  0.20343426116E-01 -0.13053071899E-01  0.25039399947E-01  0.00000000000E+00 0.  1.
     999901    1    3    3    0    0  0.11714757085E+00  0.36275083101E-01 -0.21238978061E-01  0.88875785746E+00  0.88000000000E+00 0.  1.
        -11    1    4    4    0    0 -0.96032620389E-01 -0.45560545383E-01  0.23419890369E-01  0.10884291369E+00  0.51100000000E-03 0. -1.
         11    1    4    4    0    0 -0.14577835073E-01 -0.11057963834E-01  0.10872159591E-01  0.21289828903E-01  0.51100000000E-03 0.  1.
</event>
<event>
 8    1  0.1081309E+005  0.1043930E+01  0.7957747E-01            NaN
         13   -1    0    0    0    0  0.00000000000E+00  0.00000000000E+00  0.74505805969E-08  0.10566000000E+00  0.10566000000E+00 0.  1.
     999900   -1    0    0    0    0 -0.00000000000E+00 -0.00000000000E+00 -0.74505805969E-08  0.93827000000E+00  0.93827000000E+00 0.  1.
     999902    2    1    2    0    0  0.17772218733E-01  0.15159368333E-01  0.39386948588E-02  0.10202409408E+01  0.10199658846E+01 0.  0.
     999903    2    3    3    0    0  0.90382818108E-01  0.25838332641E-01 -0.90721061115E-01  0.13212675402E+00  0.19760945200E-01 0.  0.
         14    1    1    2    0    0 -0.17772218733E-01 -0.15159368333E-01 -0.39386948588E-02  0.23689059166E-01  0.00000000000E+00 0.  1.
     999901    1    3    3    0    0 -0.72610599375E-01 -0.10678964308E-01  0.94659755973E-01  0.88811418681E+00  0.88000000000E+00 0.  1.
        -11    1    4    4    0    0  0.54249669728E-01  0.17619747847E-01 -0.41627176063E-01  0.70615615042E-01  0.51100000000E-03 0.  1.
         11    1    4    4    0    0  0.36133148380E-01  0.82185847937E-02 -0.49093885052E-01  0.61511138978E-01  0.51100000000E-03 0. -1.
</event>
<event>
 8    1  0.1081309E+005  0.1043930E+01  0.7957747E-01            NaN
         13   -1    0    0    0    0  0.00000000000E+00  0.00000000000E+00  0.74505805969E-08  0.10566000000E+00  0.10566000000E+00 0. -1.
     999900   -1    0    0    0    0 -0.00000000000E+00 -0.00000000000E+00 -0.74505805969E-08  0.93827000000E+00  0.93827000000E+00 0. -1.
     999902    2    1    2    0    0 -0.12355378849E-01  0.20906035156E-01 -0.49591152287E-02  0.10191447117E+01  0.10188432818E+01 0.  0.
     999903    2    3    3    0    0 -0.11975823407E+00 -0.46549310330E-01 -0.60640975135E-02  0.13005145566E+00  0.19176415745E-01 0.  0.
         14    1    1    2    0    0  0.12355378849E-01 -0.20906035156E-01  0.49591152287E-02  0.24785288304E-01  0.00000000000E+00 0. -1.
     999901    1    3    3    0    0  0.10740285522E+00  0.67455345485E-01  0.11049822848E-02  0.88909325604E+00  0.88000000000E+00 0.  1.
        -11    1    4    4    0    0 -0.47627731296E-01 -0.24402046031E-01 -0.10206577387E-01  0.54482070278E-01  0.51100000000E-03 0. -1.
         11    1    4    4    0    0 -0.72130502774E-01 -0.22147264298E-01  0.41424798734E-02  0.75569385381E-01  0.51100000000E-03 0.  1.
</event>
<event>
 8    1  0.1081309E+005  0.1043930E+01  0.7957747E-01            NaN
         13   -1    0    0    0    0  0.00000000000E+00  0.00000000000E+00  0.74505805969E-08  0.10566000000E+00  0.10566000000E+00 0.  1.
     999900   -1    0    0    0    0 -0.00000000000E+00 -0.00000000000E+00 -0.74505805969E-08  0.93827000000E+00  0.93827000000E+00 0.  1.
     999902    2    1    2    0    0  0.11889418965E-02 -0.10758052849E-01 -0.26158438732E-01  0.10156207577E+01  0.10152261375E+01 0.  0.
     999903    2    3    3    0    0 -0.87537577089E-02 -0.67783426551E-01 -0.10865122413E+00  0.12986920664E+00  0.19740849518E-01 0.  0.
         14    1    1    2    0    0 -0.11889418965E-02  0.10758052849E-01  0.26158438732E-01  0.28309242322E-01  0.00000000000E+00 0.  1.
     999901    1    3    3    0    0  0.99426996055E-02  0.57025373702E-01  0.82492785399E-01  0.88575155104E+00  0.88000000000E+00 0. -1.
        -11    1    4    4    0    0 -0.23119864998E-02 -0.31115019217E-01 -0.32235383940E-01  0.44865028711E-01  0.51100000000E-03 0. -1.
         11    1    4    4    0    0 -0.64417712091E-02 -0.36668407334E-01 -0.76415840191E-01  0.85004177931E-01  0.51100000000E-03 0.  1.
</event>
<event>
 8    1  0.1081309E+005  0.1043930E+01  0.7957747E-01            NaN
         13   -1    0    0    0    0  0.00000000000E+00  0.00000000000E+00  0.74505805969E-08  0.10566000000E+00  0.10566000000E+00 0. -1.
     999900   -1    0    0    0    0 -0.00000000000E+00 -0.00000000000E+00 -0.74505805969E-08  0.93827000000E+00  0.93827000000E+00 0. -1.
     999902    2    1    2    0    0  0.48086654132E-02 -0.22756146377E-01 -0.26486985792E-02  0.10205210046E+01  0.10202524883E+01 0.  0.
     999903    2    3    3    0    0  0.60312504660E-01  0.10703231152E+00 -0.33121502309E-01  0.12875068006E+00  0.19651711737E-01 0.  0.
         14    1    1    2    0    0 -0.48086654132E-02  0.22756146377E-01  0.26486985792E-02  0.23408995390E-01  0.00000000000E+00 0.  1.
     999901    1    3    3    0    0 -0.55503839247E-01 -0.12978845790E+00  0.30472803730E-01  0.89177032455E+00  0.88000000000E+00 0.  1.
        -11    1    4    4    0    0  0.45915185525E-01  0.63645244958E-01 -0.17216882102E-01  0.80346771049E-01  0.51100000000E-03 0.  1.
         11    1    4    4    0    0  0.14397319135E-01  0.43387066561E-01 -0.15904620207E-01  0.48403909015E-01  0.51100000000E-03 0. -1.
</event>
<event>
 8    1  0.1081309E+005  0.1043930E+01  0.7957747E-01            NaN
         13   -1    0    0    0    0  0.00000000000E+00  0.00000000000E+00  0.74505805969E-08  0.10566000000E+00  0.10566000000E+00 0.  1.
     999900   -1    0    0    0    0 -0.00000000000E+00 -0.00000000000E+00 -0.74505805969E-08  0.93827000000E+00  0.93827000000E+00 0. -1.
     999902    2    1    2    0    0 -0.25132271565E-02 -0.23389137130E-01  0.45242807290E-02  0.10199751015E+01  0.10196937631E+01 0.  0.
     999903    2    3    3    0    0 -0.83246378543E-01  0.95006535704E-01  0.11406227844E-01  0.12835705643E+00  0.19728926369E-01 0.  0.
         14    1    1    2    0    0  0.25132271565E-02  0.23389137130E-01 -0.45242807290E-02  0.23954898508E-01  0.00000000000E+00 0.  1.
     999901    1    3    3    0    0  0.80733151387E-01 -0.11839567283E+00 -0.68819471152E-02  0.89161804506E+00  0.88000000000E+00 0. -1.
        -11    1    4    4    0    0 -0.65265782414E-01  0.78265073082E-01  0.16571555734E-01  0.10324689632E+00  0.51100000000E-03 0.  1.
         11    1    4    4    0    0 -0.17980596129E-01  0.16741462621E-01 -0.51653278896E-02  0.25110160116E-01  0.51100000000E-03 0. -1.
</event>
<event>
 8    1  0.1081309E+005  0.1043930E+01  0.7957747E-01            NaN
         13   -1    0    0    0    0  0.00000000000E+00  0.00000000000E+00  0.74505805969E-08  0.10566000000E+00  0.10566000000E+00 0.  1.
     999900   -1    0    0    0    0 -0.00000000000E+00 -0.00000000000E+00 -0.74505805969E-08  0.93827000000E+00  0.93827000000E+00 0.  1.
     999902    2    1    2    0    0  0.15545350825E-01 -0.17242037318E-01 -0.41936485927E-02  0.10203390595E+01  0.10200663037E+01 0.  0.
     999903    2    3    3    0    0 -0.27623171593E-02  0.42881170173E-01 -0.12178974345E+00  0.13029478406E+00  0.17250043262E-01 0.  0.
         14    1    1    2    0    0 -0.15545350825E-01  0.17242037318E-01  0.41936485927E-02  0.23590940457E-01  0.00000000000E+00 0. -1.
     999901    1    3    3    0    0  0.18307667984E-01 -0.60123207491E-01  0.11759609486E+00  0.89004427548E+00  0.88000000000E+00 0. -1.
        -11    1    4    4    0    0 -0.46424107917E-02  0.26741480510E-01 -0.52261775770E-01  0.58891536620E-01  0.51100000000E-03 0. -1.
         11    1    4    4    0    0  0.18800936324E-02  0.16139689663E-01 -0.69527967683E-01  0.71403247445E-01  0.51100000000E-03 0.  1.
</event>
<event>
 8    1  0.1081309E+005  0.1043930E+01  0.7957747E-01            NaN
         13   -1    0    0    0    0  0.00000000000E+00  0.00000000000E+00  0.74505805969E-08  0.10566000000E+00  0.10566000000E+00 0.  1.
     999900   -1    0    0    0    0 -0.00000000000E+00 -0.00000000000E+00 -0.74505805969E-08  0.93827000000E+00  0.93827000000E+00 0.  1.
     999902    2    1    2    0    0 -0.56640126537E-03  0.18599128014E-01 -0.15557624108E-01  0.10196753501E+01  0.10193868410E+01 0.  0.
     999903    2    3    3    0    0 -0.21231407670E-02  0.12975292177E+00 -0.19254651796E-01  0.13267407767E+00  0.19782336460E-01 0.  0.
         14    1    1    2    0    0  0.56640126537E-03 -0.18599128014E-01  0.15557624108E-01  0.24254649887E-01  0.00000000000E+00 0.  1.
     999901    1    3    3    0    0  0.15567395017E-02 -0.11115379375E+00  0.36970276878E-02  0.88700127244E+00  0.88000000000E+00 0. -1.
        -11    1    4    4    0    0 -0.89286338159E-03  0.53495414140E-01 -0.17808798285E-01  0.56391231201E-01  0.51100000000E-03 0. -1.
         11    1    4    4    0    0 -0.12302773855E-02  0.76257507627E-01 -0.14458535113E-02  0.76282846468E-01  0.51100000000E-03 0.  1.
</event>
<event>
 8    1  0.1081309E+005  0.1043930E+01  0.7957747E-01            NaN
         13   -1    0    0    0    0  0.00000000000E+00  0.00000000000E+00  0.74505805969E-08  0.10566000000E+00  0.10566000000E+00 0.  1.
     999900   -1    0    0    0    0 -0.00000000000E+00 -0.00000000000E+00 -0.74505805969E-08  0.93827000000E+00  0.93827000000E+00 0. -1.
     999902    2    1    2    0    0  0.17319357761E-01 -0.14508181287E-01  0.11882956437E-01  0.10184025220E+01  0.10180825334E+01 0.  0.
     999903    2    3    3    0    0 -0.30932315165E-01  0.60870709496E-01  0.10678618672E+00  0.12878641144E+00  0.22816632122E-01 0.  0.
         14    1    1    2    0    0 -0.17319357761E-01  0.14508181287E-01 -0.11882956437E-01  0.25527477964E-01  0.00000000000E+00 0. -1.
     999901    1    3    3    0    0  0.48251672926E-01 -0.75378890782E-01 -0.94903230283E-01  0.88961611060E+00  0.88000000000E+00 0. -1.
        -11    1    4    4    0    0 -0.25361895921E-01  0.25094789999E-01  0.56353862770E-01  0.66700773757E-01  0.51100000000E-03 0.  1.
         11    1    4    4    0    0 -0.55704192441E-02  0.35775919497E-01  0.50432323950E-01  0.62085637682E-01  0.51100000000E-03 0. -1.
</event>
<event>
 8    1  0.1081309E+005  0.1043930E+01  0.7957747E-01            NaN
         13   -1    0    0    0    0  0.00000000000E+00  0.00000000000E+00  0.74505805969E-08  0.10566000000E+00  0.10566000000E+00 0.  1.
     999900   -1    0    0    0    0 -0.00000000000E+00 -0.00000000000E+00 -0.74505805969E-08  0.93827000000E+00  0.93827000000E+00 0. -1.
     999902    2    1    2    0    0  0.89133530825E-02  0.79777458783E-02  0.17427230519E-01  0.10227923403E+01  0.10225738950E+01 0.  0.
     999903    2    3    3    0    0 -0.42023938441E-01  0.88987865981E-01 -0.85110711919E-01  0.13168556959E+00  0.20307738959E-01 0.  0.
         14    1    1    2    0    0 -0.89133530825E-02 -0.79777458783E-02 -0.17427230519E-01  0.21137659663E-01  0.00000000000E+00 0.  1.
     999901    1    3    3    0    0  0.50937291523E-01 -0.81010120103E-01  0.10253794244E+00  0.89110677074E+00  0.88000000000E+00 0.  1.
        -11    1    4    4    0    0 -0.15586565986E-01  0.49384307901E-01 -0.53908745355E-01  0.74754029008E-01  0.51100000000E-03 0.  1.
         11    1    4    4    0    0 -0.26437372455E-01  0.39603558080E-01 -0.31201966564E-01  0.56931540585E-01  0.51100000000E-03 0. -1.
</event>
<event>
 8    1  0.1081309E+005  0.1043930E+01  0.7957747E-01            NaN
         13   -1    0    0    0    0  0.00000000000E+00  0.00000000000E+00  0.74505805969E-08  0.10566000000E+00  0.10566000000E+00 0. -1.
     999900   -1    0    0    0    0 -0.00000000000E+00 -0.00000000000E+00 -0.74505805969E-08  0.93827000000E+00  0.93827000000E+00 0. -1.
     999902    2    1    2    0    0 -0.22436086802E-01 -0.35420799502E-02  0.70830626376E-02  0.10201372680E+01  0.10198597705E+01 0.  0.
     999903    2    3    3    0    0  0.12132484858E+00 -0.63128268684E-02  0.35523165114E-01  0.12801411334E+00  0.19134975564E-01 0.  0.
         14    1    1    2    0    0  0.22436086802E-01  0.35420799502E-02 -0.70830626376E-02  0.23792732035E-01  0.00000000000E+00 0. -1.
     999901    1    3    3    0    0 -0.14376093538E+00  0.27707469182E-02 -0.28440102477E-01  0.89212315462E+00  0.88000000000E+00 0. -1.
        -11    1    4    4    0    0  0.10964684629E+00 -0.10982496578E-01  0.34069053054E-01  0.11534299991E+00  0.51100000000E-03 0.  1.
         11    1    4    4    0    0  0.11678002293E-01  0.46696697093E-02  0.14541120597E-02  0.12671113433E-01  0.51100000000E-03 0. -1.
</event>
<event>
 8    1  0.1081309E+005  0.1043930E+01  0.7957747E-01            NaN
         13   -1    0    0    0    0  0.00000000000E+00  0.00000000000E+00  0.74505805969E-08  0.10566000000E+00  0.10566000000E+00 0. -1.
     999900   -1    0    0    0    0 -0.00000000000E+00 -0.00000000000E+00 -0.74505805969E-08  0.93827000000E+00  0.93827000000E+00 0. -1.
     999902    2    1    2    0    0  0.68475026656E-02  0.10843872533E-01 -0.17599225219E-01  0.10221536231E+01  0.10219216303E+01 0.  0.
     999903    2    3    3    0    0 -0.11317840048E+00 -0.50426014175E-01 -0.39632452142E-01  0.13162250090E+00  0.20040415150E-01 0.  0.
         14    1    1    2    0    0 -0.68475026656E-02 -0.10843872533E-01  0.17599225219E-01  0.21776376939E-01  0.00000000000E+00 0. -1.
     999901    1    3    3    0    0  0.12002590315E+00  0.61269886708E-01  0.22033226923E-01  0.89053112216E+00  0.88000000000E+00 0. -1.
        -11    1    4    4    0    0 -0.50525326318E-01 -0.26029885199E-01 -0.28093215692E-01  0.63402313931E-01  0.51100000000E-03 0. -1.
         11    1    4    4    0    0 -0.62653074167E-01 -0.24396128976E-01 -0.11539236450E-01  0.68220186972E-01  0.51100000000E-03 0.  1.
</event>
<event>
 8    1  0.1081309E+005  0.1043930E+01  0.7957747E-01            NaN
         13   -1    0    0    0    0  0.00000000000E+00  0.00000000000E+00  0.74505805969E-08  0.10566000000E+00  0.10566000000E+00 0.  1.
     999900   -1    0    0    0    0 -0.00000000000E+00 -0.00000000000E+00 -0.74505805969E-08  0.93827000000E+00  0.93827000000E+00 0.  1.
     999902    2    1    2    0    0 -0.15912722157E-01  0.17078828746E-01 -0.88769826682E-02  0.10189559747E+01  0.10186498792E+01 0.  0.
     999903    2    3    3    0    0  0.73252211460E-01  0.52282732849E-02  0.10230318074E+00  0.12741133209E+00  0.19351626012E-01 0.  0.
         14    1    1    2    0    0  0.15912722157E-01 -0.17078828746E-01  0.88769826682E-02  0.24974025287E-01  0.00000000000E+00 0.  1.
     999901    1    3    3    0    0 -0.89164933616E-01  0.11850555461E-01 -0.11118016341E+00  0.89154464262E+00  0.88000000000E+00 0.  1.
        -11    1    4    4    0    0  0.24366716475E-01 -0.73498219485E-02  0.33377265581E-01  0.41976895230E-01  0.51100000000E-03 0. -1.
         11    1    4    4    0    0  0.48885494984E-01  0.12578095233E-01  0.68925915164E-01  0.85434436861E-01  0.51100000000E-03 0.  1.
</event>
<event>
 8    1  0.1081309E+005  0.1043930E+01  0.7957747E-01            NaN
         13   -1    0    0    0    0  0.00000000000E+00  0.00000000000E+00  0.74505805969E-08  0.10566000000E+00  0.10566000000E+00 0.  1.
     999900   -1    0    0    0    0 -0.00000000000E+00 -0.00000000000E+00 -0.74505805969E-08  0.93827000000E+00  0.93827000000E+00 0. -1.
     999902    2    1    2    0    0  0.22338238313E-01  0.71555887066E-02  0.16348541774E-02  0.10204167678E+01  0.10201458268E+01 0.  0.
     999903    2    3    3    0    0  0.11062748115E+00  0.26867790320E-01 -0.66965352427E-01  0.13312338360E+00  0.16648095741E-01 0.  0.
         14    1    1    2    0    0 -0.22338238313E-01 -0.71555887066E-02 -0.16348541774E-02  0.23513232208E-01  0.00000000000E+00 0. -1.
     999901    1    3    3    0    0 -0.88289242837E-01 -0.19712201613E-01  0.68600206605E-01  0.88729338420E+00  0.88000000000E+00 0. -1.
        -11    1    4    4    0    0  0.62121013601E-01  0.23508721776E-01 -0.39358830090E-01  0.77207894398E-01  0.51100000000E-03 0.  1.
         11    1    4    4    0    0  0.48506467549E-01  0.33590685444E-02 -0.27606522338E-01  0.55915489198E-01  0.51100000000E-03 0. -1.
</event>
<event>
 8    1  0.1081309E+005  0.1043930E+01  0.7957747E-01            NaN
         13   -1    0    0    0    0  0.00000000000E+00  0.00000000000E+00  0.74505805969E-08  0.10566000000E+00  0.10566000000E+00 0.  1.
     999900   -1    0    0    0    0 -0.00000000000E+00 -0.00000000000E+00 -0.74505805969E-08  0.93827000000E+00  0.93827000000E+00 0.  1.
     999902    2    1    2    0    0  0.61086231478E-02 -0.20257713651E-01 -0.94897335988E-02  0.10207406645E+01  0.10204772211E+01 0.  0.
     999903    2    3    3    0    0 -0.12634033178E-01 -0.84875352466E-01 -0.10033138378E+00  0.13350961686E+00  0.19874279145E-01 0.  0.
         14    1    1    2    0    0 -0.61086231478E-02  0.20257713651E-01  0.94897335988E-02  0.23189335543E-01  0.00000000000E+00 0. -1.
     999901    1    3    3    0    0  0.18742656326E-01  0.64617638815E-01  0.90841650185E-01  0.88723104760E+00  0.88000000000E+00 0.  1.
        -11    1    4    4    0    0 -0.89522853886E-02 -0.83682683154E-01 -0.95333888134E-01  0.12716818085E+00  0.51100000000E-03 0. -1.
         11    1    4    4    0    0 -0.36817477892E-02 -0.11926693126E-02 -0.49974956503E-02  0.63414360083E-02  0.51100000000E-03 0.  1.
</event>
<event>
 8    1  0.1081309E+005  0.1043930E+01  0.7957747E-01            NaN
         13   -1    0    0    0    0  0.00000000000E+00  0.00000000000E+00  0.74505805969E-08  0.10566000000E+00  0.10566000000E+00 0. -1.
     999900   -1    0    0    0    0 -0.00000000000E+00 -0.00000000000E+00 -0.74505805969E-08  0.93827000000E+00  0.93827000000E+00 0. -1.
     999902    2    1    2    0    0 -0.80783365905E-02 -0.43998922380E-02  0.21972555548E-01  0.10201095934E+01  0.10198314423E+01 0.  0.
     999903    2    3    3    0    0  0.73518330596E-01 -0.94722683780E-01 -0.44371063920E-01  0.12925736175E+00  0.19009010961E-01 0.  0.
         14    1    1    2    0    0  0.80783365905E-02  0.43998922380E-02 -0.21972555548E-01  0.23820406610E-01  0.00000000000E+00 0.  1.
     999901    1    3    3    0    0 -0.81596667187E-01  0.90322791542E-01  0.66343619468E-01  0.89085223164E+00  0.88000000000E+00 0.  1.
        -11    1    4    4    0    0  0.33873585375E-01 -0.51958187051E-01 -0.14340181337E-01  0.63662979113E-01  0.51100000000E-03 0. -1.
         11    1    4    4    0    0  0.39644745221E-01 -0.42764496729E-01 -0.30030882583E-01  0.65594382640E-01  0.51100000000E-03 0.  1.
</event>
<event>
 8    1  0.1081309E+005  0.1043930E+01  0.7957747E-01            NaN
         13   -1    0    0    0    0  0.00000000000E+00  0.00000000000E+00  0.74505805969E-08  0.10566000000E+00  0.10566000000E+00 0.  1.
     999900   -1    0    0    0    0 -0.00000000000E+00 -0.00000000000E+00 -0.74505805969E-08  0.93827000000E+00  0.93827000000E+00 0. -1.
     999902    2    1    2    0    0 -0.10865538947E-01  0.10292610736E-01  0.18435989773E-01  0.10201837689E+01  0.10199073678E+01 0.  0.
     999903    2    3    3    0    0 -0.59278952982E-01 -0.16843505633E-02  0.11765560197E+00  0.13320471746E+00  0.19591446438E-01 0.  0.
         14    1    1    2    0    0  0.10865538947E-01 -0.10292610736E-01 -0.18435989773E-01  0.23746231097E-01  0.00000000000E+00 0.  1.
     999901    1    3    3    0    0  0.48413414035E-01  0.11976961300E-01 -0.99219612200E-01  0.88697905145E+00  0.88000000000E+00 0. -1.
        -11    1    4    4    0    0 -0.35323921228E-01 -0.94455848226E-02  0.59647959229E-01  0.69965267417E-01  0.51100000000E-03 0. -1.
         11    1    4    4    0    0 -0.23955031755E-01  0.77612342593E-02  0.58007642744E-01  0.63239450040E-01  0.51100000000E-03 0.  1.
</event>
<event>
 8    1  0.1081309E+005  0.1043930E+01  0.7957747E-01            NaN
         13   -1    0    0    0    0  0.00000000000E+00  0.00000000000E+00  0.74505805969E-08  0.10566000000E+00  0.10566000000E+00 0.  1.
     999900   -1    0    0    0    0 -0.00000000000E+00 -0.00000000000E+00 -0.74505805969E-08  0.93827000000E+00  0.93827000000E+00 0. -1.
     999902    2    1    2    0    0 -0.17836343505E-01  0.53793699892E-02 -0.44671689740E-03  0.10252947558E+01  0.10251253894E+01 0.  0.
     999903    2    3    3    0    0 -0.36054185417E-01 -0.12804348820E+00  0.11668572700E-01  0.13496878789E+00  0.19631071289E-01 0.  0.
         14    1    1    2    0    0  0.17836343505E-01 -0.53793699892E-02  0.44671689740E-03  0.18635244219E-01  0.00000000000E+00 0. -1.
     999901    1    3    3    0    0  0.18217841912E-01  0.13342285819E+00 -0.12115289597E-01  0.89032596789E+00  0.88000000000E+00 0. -1.
        -11    1    4    4    0    0 -0.18053450911E-01 -0.32024478040E-01  0.27187761440E-02  0.36866612921E-01  0.51100000000E-03 0. -1.
         11    1    4    4    0    0 -0.18000734506E-01 -0.96019010161E-01  0.89497965556E-02  0.98102174973E-01  0.51100000000E-03 0.  1.
</event>
<event>
 8    1  0.1081309E+005  0.1043930E+01  0.7957747E-01            NaN
         13   -1    0    0    0    0  0.00000000000E+00  0.00000000000E+00  0.74505805969E-08  0.10566000000E+00  0.10566000000E+00 0.  1.
     999900   -1    0    0    0    0 -0.00000000000E+00 -0.00000000000E+00 -0.74505805969E-08  0.93827000000E+00  0.93827000000E+00 0. -1.
     999902    2    1    2    0    0 -0.10434363447E-01  0.21828829389E-01  0.39217411863E-02  0.10194197208E+01  0.10191250234E+01 0.  0.
     999903    2    3    3    0    0  0.12412363372E+00  0.15227685294E-01  0.24271300554E-01  0.12893472133E+00  0.19912495707E-01 0.  0.
         14    1    1    2    0    0  0.10434363447E-01 -0.21828829389E-01 -0.39217411863E-02  0.24510279210E-01  0.00000000000E+00 0.  1.
     999901    1    3    3    0    0 -0.13455799717E+00  0.66011440941E-02 -0.20349559367E-01  0.89048499946E+00  0.88000000000E+00 0. -1.
        -11    1    4    4    0    0  0.57365062698E-01  0.10416143827E-01  0.20823670514E-01  0.61912299628E-01  0.51100000000E-03 0. -1.
         11    1    4    4    0    0  0.66758571023E-01  0.48115414677E-02  0.34476300395E-02  0.67022421698E-01  0.51100000000E-03 0.  1.
</event>
<event>
 8    1  0.1081309E+005  0.1043930E+01  0.7957747E-01            NaN
         13   -1    0    0    0    0  0.00000000000E+00  0.00000000000E+00  0.74505805969E-08  0.10566000000E+00  0.10566000000E+00 0.  1.
     999900   -1    0    0    0    0 -0.00000000000E+00 -0.00000000000E+00 -0.74505805969E-08  0.93827000000E+00  0.93827000000E+00 0.  1.
     999902    2    1    2    0    0  0.12152423006E-01  0.20742899303E-01 -0.25944890203E-02  0.10197498298E+01  0.10194631111E+01 0.  0.
     999903    2    3    3    0    0  0.10581326456E+00  0.77710567944E-01  0.21063081646E-02  0.13293543774E+00  0.20784964456E-01 0.  0.
         14    1    1    2    0    0 -0.12152423006E-01 -0.20742899303E-01  0.25944890203E-02  0.24180170175E-01  0.00000000000E+00 0. -1.
     999901    1    3    3    0    0 -0.93660841551E-01 -0.56967668641E-01 -0.47007971849E-02  0.88681439208E+00  0.88000000000E+00 0.  1.
        -11    1    4    4    0    0  0.50195475691E-01  0.32855043450E-01 -0.88611260554E-02  0.60645035542E-01  0.51100000000E-03 0. -1.
         11    1    4    4    0    0  0.55617788865E-01  0.44855524494E-01  0.10967434220E-01  0.72290402200E-01  0.51100000000E-03 0.  1.
</event>
<event>
 7    1  0.1081309E+005  0.1043930E+01  0.7957747E-01            NaN
         13   -1    0    0    0    0  0.00000000000E+00  0.00000000000E+00  0.74505805969E-08  0.10566000000E+00  0.10566000000E+00 0.  1.
     999900   -1    0    0    0    0 -0.00000000000E+00 -0.00000000000E+00 -0.74505805969E-08  0.93827000000E+00  0.93827000000E+00 0.  1.
     999903    2    1    2    0    0  0.64881179897E-01 -0.42274145606E-01 -0.68901792188E-01  0.10563902633E+00  0.20383229045E-01 0.  0.
         14    1    1    2    0    0 -0.10286290581E-01 -0.47969582680E-04 -0.46905005254E-01  0.48019679225E-01  0.00000000000E+00 0. -1.
     999901    1    1    2    0    0 -0.54594889317E-01  0.42322115189E-01  0.11580679744E+00  0.89027129444E+00  0.88000000000E+00 0. -1.
        -11    1    3    3    0    0  0.31052715637E-01 -0.31704137151E-01 -0.42425512939E-01  0.61397139429E-01  0.51100000000E-03 0. -1.
         11    1    3    3    0    0  0.33828464261E-01 -0.10570008455E-01 -0.26476279249E-01  0.44241886904E-01  0.51100000000E-03 0.  1.
</event>
<event>
 8    1  0.1081309E+005  0.1043930E+01  0.7957747E-01            NaN
         13   -1    0    0    0    0  0.00000000000E+00  0.00000000000E+00  0.74505805969E-08  0.10566000000E+00  0.10566000000E+00 0.  1.
     999900   -1    0    0    0    0 -0.00000000000E+00 -0.00000000000E+00 -0.74505805969E-08  0.93827000000E+00  0.93827000000E+00 0.  1.
     999902    2    1    2    0    0  0.18355376273E-01  0.13944911630E-01 -0.49580381848E-03  0.10208729789E+01  0.10206125675E+01 0.  0.
     999903    2    3    3    0    0  0.37869648251E-01  0.12569508859E+00 -0.13762681196E-01  0.13349204671E+00  0.19933629505E-01 0.  0.
         14    1    1    2    0    0 -0.18355376273E-01 -0.13944911630E-01  0.49580381848E-03  0.23057021054E-01  0.00000000000E+00 0. -1.
     999901    1    3    3    0    0 -0.19514271978E-01 -0.11175017696E+00  0.13266877378E-01  0.88738093224E+00  0.88000000000E+00 0.  1.
        -11    1    4    4    0    0  0.53392448672E-02  0.40409577739E-02  0.61949756091E-03  0.67440176238E-02  0.51100000000E-03 0.  1.
         11    1    4    4    0    0  0.32530403384E-01  0.12165413082E+00 -0.14382178757E-01  0.12674802908E+00  0.51100000000E-03 0. -1.
</event>
<event>
 8    1  0.1081309E+005  0.1043930E+01  0.7957747E-01            NaN
         13   -1    0    0    0    0  0.00000000000E+00  0.00000000000E+00  0.74505805969E-08  0.10566000000E+00  0.10566000000E+00 0.  1.
     999900   -1    0    0    0    0 -0.00000000000E+00 -0.00000000000E+00 -0.74505805969E-08  0.93827000000E+00  0.93827000000E+00 0.  1.
     999902    2    1    2    0    0  0.13749094401E-01  0.69144193397E-03 -0.16668338415E-01  0.10223117393E+01  0.10220831391E+01 0.  0.
     999903    2    3    3    0    0  0.33400360161E-01  0.32700980778E-01  0.12134722233E+00  0.13076304306E+00  0.13743611595E-01 0.  0.
         14    1    1    2    0    0 -0.13749094401E-01 -0.69144193397E-03  0.16668338415E-01  0.21618260668E-01  0.00000000000E+00 0.  1.
     999901    1    3    3    0    0 -0.19651265760E-01 -0.32009538844E-01 -0.13801556074E+00  0.89154869628E+00  0.88000000000E+00 0.  1.
        -11    1    4    4    0    0  0.92795466762E-02  0.16587015793E-01  0.59177140096E-01  0.62156529105E-01  0.51100000000E-03 0.  1.
         11    1    4    4    0    0  0.24120813485E-01  0.16113964985E-01  0.62170082233E-01  0.68606513951E-01  0.51100000000E-03 0. -1.
</event>
<event>
 8    1  0.1081309E+005  0.1043930E+01  0.7957747E-01            NaN
         13   -1    0    0    0    0  0.00000000000E+00  0.00000000000E+00  0.74505805969E-08  0.10566000000E+00  0.10566000000E+00 0. -1.
     999900   -1    0    0    0    0 -0.00000000000E+00 -0.00000000000E+00 -0.74505805969E-08  0.93827000000E+00  0.93827000000E+00 0. -1.
     999902    2    1    2    0    0 -0.26011047663E-02 -0.80286136197E-02  0.25272616134E-01  0.10172854976E+01  0.10169365045E+01 0.  0.
     999903    2    3    3    0    0  0.51230788613E-01  0.29442684484E-02 -0.11215023602E+00  0.12492720789E+00  0.19896467383E-01 0.  0.
         14    1    1    2    0    0  0.26011047663E-02  0.80286136197E-02 -0.25272616134E-01  0.26644502415E-01  0.00000000000E+00 0.  1.
     999901    1    3    3    0    0 -0.53831893379E-01 -0.10972882068E-01  0.13742285215E+00  0.89235828969E+00  0.88000000000E+00 0.  1.
        -11    1    4    4    0    0  0.18528983463E-01  0.10667569793E-01 -0.41153803973E-01  0.46379057514E-01  0.51100000000E-03 0. -1.
         11    1    4    4    0    0  0.32701805150E-01 -0.77233013445E-02 -0.70996432048E-01  0.78548150381E-01  0.51100000000E-03 0.  1.
</event>
<event>
 8    1  0.1081309E+005  0.1043930E+01  0.7957747E-01            NaN
         13   -1    0    0    0    0  0.00000000000E+00  0.00000000000E+00  0.74505805969E-08  0.10566000000E+00  0.10566000000E+00 0.  1.
     999900   -1    0    0    0    0 -0.00000000000E+00 -0.00000000000E+00 -0.74505805969E-08  0.93827000000E+00  0.93827000000E+00 0.  1.
     999902    2    1    2    0    0 -0.12173497628E-01  0.13293375872E-01  0.20554110363E-01  0.10165917605E+01  0.10162241033E+01 0.  0.
     999903    2    3    3    0    0 -0.10262413846E+00  0.14724920347E-01 -0.71080708273E-01  0.12722102355E+00  0.19600629319E-01 0.  0.
         14    1    1    2    0    0  0.12173497628E-01 -0.13293375872E-01 -0.20554110363E-01  0.27338239508E-01  0.00000000000E+00 0.  1.
     999901    1    3    3    0    0  0.90450640834E-01 -0.14315444751E-02  0.91634818636E-01  0.88937073694E+00  0.88000000000E+00 0. -1.
        -11    1    4    4    0    0 -0.26626160546E-01  0.96447723388E-02 -0.27438796080E-01  0.39435044189E-01  0.51100000000E-03 0.  1.
         11    1    4    4    0    0 -0.75997977916E-01  0.50801480085E-02 -0.43641912193E-01  0.87785979359E-01  0.51100000000E-03 0. -1.
</event>
<event>
 8    1  0.1081309E+005  0.1043930E+01  0.7957747E-01            NaN
         13   -1    0    0    0    0  0.00000000000E+00  0.00000000000E+00  0.74505805969E-08  0.10566000000E+00  0.10566000000E+00 0. -1.
     999900   -1    0    0    0    0 -0.00000000000E+00 -0.00000000000E+00 -0.74505805969E-08  0.93827000000E+00  0.93827000000E+00 0. -1.
     999902    2    1    2    0    0 -0.12176548026E-01  0.15111591485E-01 -0.14268649180E-01  0.10198421842E+01  0.10195576776E+01 0.  0.
     999903    2    3    3    0    0 -0.90919167290E-01 -0.23637930564E-01 -0.90935237076E-01  0.13215998251E+00  0.19287221003E-01 0.  0.
         14    1    1    2    0    0  0.12176548026E-01 -0.15111591485E-01  0.14268649180E-01  0.24087815768E-01  0.00000000000E+00 0. -1.
     999901    1    3    3    0    0  0.78742619263E-01  0.38749522050E-01  0.76666587895E-01  0.88768220172E+00  0.88000000000E+00 0.  1.
        -11    1    4    4    0    0 -0.29934032354E-01  0.92736829836E-03 -0.32485796919E-01  0.44187039134E-01  0.51100000000E-03 0. -1.
         11    1    4    4    0    0 -0.60985134935E-01 -0.24565298863E-01 -0.58449440157E-01  0.87972943380E-01  0.51100000000E-03 0.  1.
</event>
<event>
 8    1  0.1081309E+005  0.1043930E+01  0.7957747E-01            NaN
         13   -1    0    0    0    0  0.00000000000E+00  0.00000000000E+00  0.74505805969E-08  0.10566000000E+00  0.10566000000E+00 0.  1.
     999900   -1    0    0    0    0 -0.00000000000E+00 -0.00000000000E+00 -0.74505805969E-08  0.93827000000E+00  0.93827000000E+00 0. -1.
     999902    2    1    2    0    0 -0.20120826829E-01 -0.83024179004E-02  0.11694825124E-01  0.10192207558E+01  0.10189211953E+01 0.  0.
     999903    2    3    3    0    0 -0.30726488874E-01  0.11866556961E+00 -0.34135680727E-01  0.12886476788E+00  0.20377663601E-01 0.  0.
         14    1    1    2    0    0  0.20120826829E-01  0.83024179004E-02 -0.11694825124E-01  0.24709244220E-01  0.00000000000E+00 0. -1.
     999901    1    3    3    0    0  0.10605662046E-01 -0.12696798751E+00  0.45830505851E-01  0.89035598790E+00  0.88000000000E+00 0.  1.
        -11    1    4    4    0    0  0.13370744401E-02  0.28569611009E-01 -0.89113723901E-02  0.29961377140E-01  0.51100000000E-03 0. -1.
         11    1    4    4    0    0 -0.32063563314E-01  0.90095958598E-01 -0.25224308337E-01  0.98903390742E-01  0.51100000000E-03 0.  1.
</event>
<event>
 8    1  0.1081309E+005  0.1043930E+01  0.7957747E-01            NaN
         13   -1    0    0    0    0  0.00000000000E+00  0.00000000000E+00  0.74505805969E-08  0.10566000000E+00  0.10566000000E+00 0.  1.
     999900   -1    0    0    0    0 -0.00000000000E+00 -0.00000000000E+00 -0.74505805969E-08  0.93827000000E+00  0.93827000000E+00 0. -1.
     999902    2    1    2    0    0  0.12292268584E-01 -0.16751459131E-01 -0.11286582106E-01  0.10202847429E+01  0.10200107148E+01 0.  0.
     999903    2    3    3    0    0  0.11513114972E-01  0.12583648810E+00  0.13561277963E-01  0.12846113589E+00  0.18734503514E-01 0.  0.
         14    1    1    2    0    0 -0.12292268584E-01  0.16751459131E-01  0.11286582106E-01  0.23645257148E-01  0.00000000000E+00 0.  1.
     999901    1    3    3    0    0  0.77915361219E-03 -0.14258794723E+00 -0.24847860069E-01  0.89182360696E+00  0.88000000000E+00 0.  1.
        -11    1    4    4    0    0  0.17329315546E-02  0.44474013581E-01  0.13494526701E-01  0.46511335260E-01  0.51100000000E-03 0.  1.
         11    1    4    4    0    0  0.97801834175E-02  0.81362474518E-01  0.66751262057E-04  0.81949800635E-01  0.51100000000E-03 0. -1.
</event>
<event>
 7    1  0.1081309E+005  0.1043930E+01  0.7957747E-01            NaN
         13   -1    0    0    0    0  0.00000000000E+00  0.00000000000E+00  0.74505805969E-08  0.10566000000E+00  0.10566000000E+00 0.  1.
     999900   -1    0    0    0    0 -0.00000000000E+00 -0.00000000000E+00 -0.74505805969E-08  0.93827000000E+00  0.93827000000E+00 0.  1.
     999902    2    1    2    0    0  0.41110999169E-02  0.17549241982E-03  0.23033503737E-01  0.10205318327E+01  0.10202635675E+01 0.  0.
         14    1    1    2    0    0 -0.41110999169E-02 -0.17549241982E-03 -0.23033503737E-01  0.23398167333E-01  0.00000000000E+00 0. -1.
     999901    1    3    3    0    0 -0.93778952327E-01 -0.12046492233E-01  0.87562430379E-01  0.88938562451E+00  0.88000000000E+00 0. -1.
        -11    1    3    3    0    0  0.42448365544E-01 -0.23158363371E-01 -0.29148042869E-01  0.56462758129E-01  0.51100000000E-03 0. -1.
         11    1    3    3    0    0  0.55441686699E-01  0.35380348024E-01 -0.35380883772E-01  0.74683450026E-01  0.51100000000E-03 0.  1.
</event>
<event>
 8    1  0.1081309E+005  0.1043930E+01  0.7957747E-01            NaN
         13   -1    0    0    0    0  0.00000000000E+00  0.00000000000E+00  0.74505805969E-08  0.10566000000E+00  0.10566000000E+00 0. -1.
     999900   -1    0    0    0    0 -0.00000000000E+00 -0.00000000000E+00 -0.74505805969E-08  0.93827000000E+00  0.93827000000E+00 0.  1.
     999902    2    1    2    0    0 -0.82028554710E-02 -0.21734892247E-01  0.10286041319E-02  0.10206759594E+01  0.10204110268E+01 0.  0.
     999903    2    3    3    0    0 -0.86705474818E-01  0.21016661097E-01 -0.94038892550E-01  0.13105346332E+00  0.19291384865E-01 0.  0.
         14    1    1    2    0    0  0.82028554710E-02  0.21734892247E-01 -0.10286041319E-02  0.23254040624E-01  0.00000000000E+00 0.  1.
     999901    1    3    3    0    0  0.78502619347E-01 -0.42751553344E-01  0.95067496682E-01  0.88962249605E+00  0.88000000000E+00 0. -1.
        -11    1    4    4    0    0 -0.29886595020E-01  0.12499965220E-01 -0.45395519979E-01  0.55771606105E-01  0.51100000000E-03 0.  1.
         11    1    4    4    0    0 -0.56818879798E-01  0.85166958772E-02 -0.48643372571E-01  0.75281857218E-01  0.51100000000E-03 0. -1.
</event>
<event>
 8    1  0.1081309E+005  0.1043930E+01  0.7957747E-01            NaN
         13   -1    0    0    0    0  0.00000000000E+00  0.00000000000E+00  0.74505805969E-08  0.10566000000E+00  0.10566000000E+00 0.  1.
     999900   -1    0    0    0    0 -0.00000000000E+00 -0.00000000000E+00 -0.74505805969E-08  0.93827000000E+00  0.93827000000E+00 0.  1.
     999902    2    1    2    0    0  0.12874758450E-01 -0.18248744702E-01 -0.86558617833E-02  0.10199779639E+01  0.10196966936E+01 0.  0.
     999903    2    3    3    0    0 -0.68129003262E-01  0.44887247131E-01 -0.98589687203E-01  0.12945235744E+00  0.19533570666E-01 0.  0.
         14    1    1    2    0    0 -0.12874758450E-01  0.18248744702E-01  0.86558617833E-02  0.23952036063E-01  0.00000000000E+00 0.  1.
     999901    1    3    3    0    0  0.81003761712E-01 -0.63135991833E-01  0.89933825420E-01  0.89052560650E+00  0.88000000000E+00 0. -1.
        -11    1    4    4    0    0 -0.33795792585E-01  0.19480674291E-01 -0.61775943135E-01  0.73062853342E-01  0.51100000000E-03 0. -1.
         11    1    4    4    0    0 -0.34333210677E-01  0.25406572840E-01 -0.36813744068E-01  0.56389504096E-01  0.51100000000E-03 0.  1.
</event>
<event>
 8    1  0.1081309E+005  0.1043930E+01  0.7957747E-01            NaN
         13   -1    0    0    0    0  0.00000000000E+00  0.00000000000E+00  0.74505805969E-08  0.10566000000E+00  0.10566000000E+00 0.  1.
     999900   -1    0    0    0    0 -0.00000000000E+00 -0.00000000000E+00 -0.74505805969E-08  0.93827000000E+00  0.93827000000E+00 0.  1.
     999902    2    1    2    0    0 -0.19051799513E-01 -0.48915823403E-02  0.11854372358E-02  0.10242245717E+01  0.10240349942E+01 0.  0.
     999903    2    3    3    0    0 -0.24366176362E-01  0.40815084088E-01  0.12424060330E+00  0.13447184435E+00  0.19681660909E-01 0.  0.
         14    1    1    2    0    0  0.19051799513E-01  0.48915823403E-02 -0.11854372358E-02  0.19705428286E-01  0.00000000000E+00 0.  1.
     999901    1    3    3    0    0  0.53143768485E-02 -0.45706666429E-01 -0.12305516606E+00  0.88975272736E+00  0.88000000000E+00 0.  1.
        -11    1    4    4    0    0  0.31440491020E-02  0.73412290557E-02  0.22826230858E-01  0.24188357220E-01  0.51100000000E-03 0. -1.
         11    1    4    4    0    0 -0.27510225464E-01  0.33473855033E-01  0.10141437244E+00  0.11028348713E+00  0.51100000000E-03 0.  1.
</event>
<event>
 8    1  0.1081309E+005  0.1043930E+01  0.7957747E-01            NaN
         13   -1    0    0    0    0  0.00000000000E+00  0.00000000000E+00  0.74505805969E-08  0.10566000000E+00  0.10566000000E+00 0. -1.
     999900   -1    0    0    0    0 -0.00000000000E+00 -0.00000000000E+00 -0.74505805969E-08  0.93827000000E+00  0.93827000000E+00 0.  1.
     999902    2    1    2    0    0 -0.77666011237E-02  0.13436453324E-01  0.18883813171E-01  0.10194870711E+01  0.10191940107E+01 0.  0.
     999903    2    3    3    0    0 -0.70299088582E-02  0.10622506537E+00 -0.72152111110E-01  0.12993785455E+00  0.18567034640E-01 0.  0.
         14    1    1    2    0    0  0.77666011237E-02 -0.13436453324E-01 -0.18883813171E-01  0.24442928851E-01  0.00000000000E+00 0.  1.
     999901    1    3    3    0    0 -0.73669226552E-03 -0.92788612051E-01  0.91035924281E-01  0.88954921660E+00  0.88000000000E+00 0. -1.
        -11    1    4    4    0    0 -0.78635961279E-02  0.63569444478E-01 -0.53131597392E-01  0.83223423251E-01  0.51100000000E-03 0. -1.
         11    1    4    4    0    0  0.83368726966E-03  0.42655620896E-01 -0.19020513718E-01  0.46714431299E-01  0.51100000000E-03 0.  1.
</event>
<event>
 8    1  0.1081309E+005  0.1043930E+01  0.7957747E-01            NaN
         13   -1    0    0    0    0  0.00000000000E+00  0.00000000000E+00  0.74505805969E-08  0.10566000000E+00  0.10566000000E+00 0. -1.
     999900   -1    0    0    0    0 -0.00000000000E+00 -0.00000000000E+00 -0.74505805969E-08  0.93827000000E+00  0.93827000000E+00 0.  1.
     999902    2    1    2    0    0 -0.11813188943E-01 -0.10575188817E-01  0.17331072096E-01  0.10204405958E+01  0.10201702100E+01 0.  0.
     999903    2    3    3    0    0  0.11111096811E+00  0.22197761514E-01  0.60995875017E-01  0.13022094327E+00  0.19965205936E-01 0.  0.
         14    1    1    2    0    0  0.11813188943E-01  0.10575188817E-01 -0.17331072096E-01  0.23489404239E-01  0.00000000000E+00 0.  1.
     999901    1    3    3    0    0 -0.12292415705E+00 -0.32772950331E-01 -0.43664802921E-01  0.89021965249E+00  0.88000000000E+00 0. -1.
        -11    1    4    4    0    0  0.40165692501E-01 -0.96507949760E-03  0.17381335619E-01  0.43778832573E-01  0.51100000000E-03 0. -1.
         11    1    4    4    0    0  0.70945275606E-01  0.23162841011E-01  0.43614539399E-01  0.86442110701E-01  0.51100000000E-03 0.  1.
</event>
<event>
 8    1  0.1081309E+005  0.1043930E+01  0.7957747E-01            NaN
         13   -1    0    0    0    0  0.00000000000E+00  0.00000000000E+00  0.74505805969E-08  0.10566000000E+00  0.10566000000E+00 0. -1.
     999900   -1    0    0    0    0 -0.00000000000E+00 -0.00000000000E+00 -0.74505805969E-08  0.93827000000E+00  0.93827000000E+00 0.  1.
     999902    2    1    2    0    0  0.16072492495E-01 -0.83434793831E-02  0.14427772284E-01  0.10207761823E+01  0.10205135545E+01 0.  0.
     999903    2    3    3    0    0 -0.88106253542E-01  0.79620050018E-01 -0.44410934757E-01  0.12833414656E+00  0.19881090721E-01 0.  0.
         14    1    1    2    0    0 -0.16072492495E-01  0.83434793831E-02 -0.14427772284E-01  0.23153817747E-01  0.00000000000E+00 0. -1.
     999901    1    3    3    0    0  0.10417874604E+00 -0.87963529401E-01  0.58838707041E-01  0.89244203570E+00  0.88000000000E+00 0.  1.
        -11    1    4    4    0    0 -0.63223118575E-01  0.45657300033E-01 -0.33210548006E-01  0.84764104363E-01  0.51100000000E-03 0. -1.
         11    1    4    4    0    0 -0.24883134967E-01  0.33962749985E-01 -0.11200386751E-01  0.43570042193E-01  0.51100000000E-03 0.  1.
</event>
<event>
 8    1  0.1081309E+005  0.1043930E+01  0.7957747E-01            NaN
         13   -1    0    0    0    0  0.00000000000E+00  0.00000000000E+00  0.74505805969E-08  0.10566000000E+00  0.10566000000E+00 0.  1.
     999900   -1    0    0    0    0 -0.00000000000E+00 -0.00000000000E+00 -0.74505805969E-08  0.93827000000E+00  0.93827000000E+00 0. -1.
     999902    2    1    2    0    0 -0.98430966598E-02 -0.12554390174E-01  0.17029147235E-01  0.10205956665E+01  0.10203288800E+01 0.  0.
     999903    2    3    3    0    0 -0.44424107890E-01 -0.44288506488E-01 -0.11093804495E+00  0.13010226239E+00  0.26160575188E-01 0.  0.
         14    1    1    2    0    0  0.98430966598E-02  0.12554390174E-01 -0.17029147235E-01  0.23334333504E-01  0.00000000000E+00 0. -1.
     999901    1    3    3    0    0  0.34581011230E-01  0.31734116314E-01  0.12796719218E+00  0.89049340410E+00  0.88000000000E+00 0.  1.
        -11    1    4    4    0    0 -0.43786617290E-01 -0.31243662525E-01 -0.78823099958E-01  0.95429432093E-01  0.51100000000E-03 0. -1.
         11    1    4    4    0    0 -0.63749060001E-03 -0.13044843963E-01 -0.32114944990E-01  0.34672830300E-01  0.51100000000E-03 0.  1.
</event>
<event>
 8    1  0.1081309E+005  0.1043930E+01  0.7957747E-01            NaN
         13   -1    0    0    0    0  0.00000000000E+00  0.00000000000E+00  0.74505805969E-08  0.10566000000E+00  0.10566000000E+00 0. -1.
     999900   -1    0    0    0    0 -0.00000000000E+00 -0.00000000000E+00 -0.74505805969E-08  0.93827000000E+00  0.93827000000E+00 0.  1.
     999902    2    1    2    0    0 -0.22167960133E-01  0.24804490707E-02 -0.80244386831E-02  0.10202242475E+01  0.10199487990E+01 0.  0.
     999903    2    3    3    0    0  0.57771356149E-01  0.86912374232E-01  0.73085293166E-01  0.12887816835E+00  0.19412156320E-01 0.  0.
         14    1    1    2    0    0  0.22167960133E-01 -0.24804490707E-02  0.80244386831E-02  0.23705752472E-01  0.00000000000E+00 0. -1.
     999901    1    3    3    0    0 -0.79939316282E-01 -0.84431925162E-01 -0.81109731849E-01  0.89134607918E+00  0.88000000000E+00 0.  1.
        -11    1    4    4    0    0  0.18901223028E-01  0.45887649613E-01  0.33628410874E-01  0.59950510906E-01  0.51100000000E-03 0.  1.
         11    1    4    4    0    0  0.38870133121E-01  0.41024724619E-01  0.39456882292E-01  0.68927657440E-01  0.51100000000E-03 0. -1.
</event>
<event>
 8    1  0.1081309E+005  0.1043930E+01  0.7957747E-01            NaN
         13   -1    0    0    0    0  0.00000000000E+00  0.00000000000E+00  0.74505805969E-08  0.10566000000E+00  0.10566000000E+00 0.  1.
     999900   -1    0    0    0    0 -0.00000000000E+00 -0.00000000000E+00 -0.74505805969E-08  0.93827000000E+00  0.93827000000E+00 0.  1.
     999902    2    1    2    0    0 -0.16147419248E-01 -0.50180599567E-02  0.17908280756E-01  0.10193002092E+01  0.10190025956E+01 0.  0.
     999903    2    3    3    0    0 -0.96290839740E-01 -0.87012417256E-01  0.14734942935E-01  0.13185662648E+00  0.18054496088E-01 0.  0.
         14    1    1    2    0    0  0.16147419248E-01  0.50180599567E-02 -0.17908280756E-01  0.24629790778E-01  0.00000000000E+00 0.  1.
     999901    1    3    3    0    0  0.80143420491E-01  0.81994357299E-01  0.31733378207E-02  0.88744358274E+00  0.88000000000E+00 0. -1.
        -11    1    4    4    0    0 -0.70567807026E-01 -0.52375664286E-01  0.95610381378E-02  0.88400792808E-01  0.51100000000E-03 0. -1.
         11    1    4    4    0    0 -0.25723032714E-01 -0.34636752969E-01  0.51739047977E-02  0.43455833672E-01  0.51100000000E-03 0.  1.
</event>
<event>
 8    1  0.1081309E+005  0.1043930E+01  0.7957747E-01            NaN
         13   -1    0    0    0    0  0.00000000000E+00  0.00000000000E+00  0.74505805969E-08  0.10566000000E+00  0.10566000000E+00 0. -1.
     999900   -1    0    0    0    0 -0.00000000000E+00 -0.00000000000E+00 -0.74505805969E-08  0.93827000000E+00  0.93827000000E+00 0.  1.
     999902    2    1    2    0    0 -0.60521202524E-02  0.91338745772E-02 -0.21270710879E-01  0.10200030494E+01  0.10197223749E+01 0.  0.
     999903    2    3    3    0    0 -0.46608541755E-01 -0.99318694500E-01  0.63606745544E-01  0.12836917516E+00  0.19906476589E-01 0.  0.
         14    1    1    2    0    0  0.60521202524E-02 -0.91338745772E-02  0.21270710879E-01  0.23926950613E-01  0.00000000000E+00 0. -1.
     999901    1    3    3    0    0  0.40556421502E-01  0.10845256908E+00 -0.84877456423E-01  0.89163387423E+00  0.88000000000E+00 0.  1.
        -11    1    4    4    0    0 -0.39248243646E-01 -0.63975355765E-01  0.47575971204E-01  0.88865094000E-01  0.51100000000E-03 0.  1.
         11    1    4    4    0    0 -0.73602981087E-02 -0.35343338735E-01  0.16030774340E-01  0.39504081157E-01  0.51100000000E-03 0. -1.
</event>
<event>
 8    1  0.1081309E+005  0.1043930E+01  0.7957747E-01            NaN
         13   -1    0    0    0    0  0.00000000000E+00  0.00000000000E+00  0.74505805969E-08  0.10566000000E+00  0.10566000000E+00 0. -1.
     999900   -1    0    0    0    0 -0.00000000000E+00 -0.00000000000E+00 -0.74505805969E-08  0.93827000000E+00  0.93827000000E+00 0. -1.
     999902    2    1    2    0    0 -0.23250270662E-01 -0.45170267113E-02  0.33918974209E-02  0.10200033708E+01  0.10197227039E+01 0.  0.
     999903    2    3    3    0    0 -0.11660627907E+00 -0.20299294238E-02  0.61112767647E-01  0.13318138822E+00  0.20034142503E-01 0.  0.
         14    1    1    2    0    0  0.23250270662E-01  0.45170267113E-02 -0.33918974209E-02  0.23926629187E-01  0.00000000000E+00 0. -1.
     999901    1    3    3    0    0  0.93356008407E-01 -0.24870972875E-02 -0.57720870226E-01  0.88682198260E+00  0.88000000000E+00 0. -1.
        -11    1    4    4    0    0 -0.10176794893E+00 -0.79910285077E-02  0.49766178408E-01  0.11356718541E+00  0.51100000000E-03 0.  1.
         11    1    4    4    0    0 -0.14838330136E-01  0.59610990839E-02  0.11346589239E-01  0.19614202810E-01  0.51100000000E-03 0. -1.
</event>
<event>
 8    1  0.1081309E+005  0.1043930E+01  0.7957747E-01            NaN
         13   -1    0    0    0    0  0.00000000000E+00  0.00000000000E+00  0.74505805969E-08  0.10566000000E+00  0.10566000000E+00 0. -1.
     999900   -1    0    0    0    0 -0.00000000000E+00 -0.00000000000E+00 -0.74505805969E-08  0.93827000000E+00  0.93827000000E+00 0. -1.
     999902    2    1    2    0    0 -0.77423392764E-02 -0.22817641285E-01  0.40020213714E-02  0.10195045062E+01  0.10192118688E+01 0.  0.
     999903    2    3    3    0    0  0.52189946754E-01 -0.11902873835E+00  0.13222952969E-01  0.13218636728E+00  0.20168245192E-01 0.  0.
         14    1    1    2    0    0  0.77423392764E-02  0.22817641285E-01 -0.40020213714E-02  0.24425493779E-01  0.00000000000E+00 0. -1.
     999901    1    3    3    0    0 -0.59932286031E-01  0.96211097068E-01 -0.92209315978E-02  0.88731813894E+00  0.88000000000E+00 0.  1.
        -11    1    4    4    0    0  0.27694475786E-01 -0.83722304093E-01  0.42690853015E-02  0.88288699175E-01  0.51100000000E-03 0.  1.
         11    1    4    4    0    0  0.24495470968E-01 -0.35306434261E-01  0.89538676677E-02  0.43897668109E-01  0.51100000000E-03 0. -1.
</event>
<event>
 8    1  0.1081309E+005  0.1043930E+01  0.7957747E-01            NaN
         13   -1    0    0    0    0  0.00000000000E+00  0.00000000000E+00  0.74505805969E-08  0.10566000000E+00  0.10566000000E+00 0.  1.
     999900   -1    0    0    0    0 -0.00000000000E+00 -0.00000000000E+00 -0.74505805969E-08  0.93827000000E+00  0.93827000000E+00 0.  1.
     999902    2    1    2    0    0 -0.14768391866E-01  0.17704513907E-01  0.11854722931E-02  0.10208440615E+01  0.10205829890E+01 0.  0.
     999903    2    3    3    0    0 -0.58490701665E-01 -0.43680707970E-01 -0.10697480856E+00  0.13102473593E+00  0.19867192293E-01 0.  0.
         14    1    1    2    0    0  0.14768391866E-01 -0.17704513907E-01 -0.11854722931E-02  0.23085938481E-01  0.00000000000E+00 0. -1.
     999901    1    3    3    0    0  0.43722309799E-01  0.61385221877E-01  0.10816028085E+00  0.88981932559E+00  0.88000000000E+00 0. -1.
        -11    1    4    4    0    0 -0.36084466425E-04 -0.22194839066E-02 -0.11060249336E-01  0.11292371198E-01  0.51100000000E-03 0.  1.
         11    1    4    4    0    0 -0.58454617198E-01 -0.41461224063E-01 -0.95914559220E-01  0.11973236473E+00  0.51100000000E-03 0. -1.
</event>
<event>
 8    1  0.1081309E+005  0.1043930E+01  0.7957747E-01            NaN
         13   -1    0    0    0    0  0.00000000000E+00  0.00000000000E+00  0.74505805969E-08  0.10566000000E+00  0.10566000000E+00 0. -1.
     999900   -1    0    0    0    0 -0.00000000000E+00 -0.00000000000E+00 -0.74505805969E-08  0.93827000000E+00  0.93827000000E+00 0.  1.
     999902    2    1    2    0    0  0.17175352875E-01  0.19940618011E-02  0.15302945832E-01  0.10208399766E+01  0.10205788106E+01 0.  0.
     999903    2    3    3    0    0  0.59289504239E-01 -0.13573903397E-01 -0.11320923137E+00  0.13037305248E+00  0.21938700484E-01 0.  0.
         14    1    1    2    0    0 -0.17175352875E-01 -0.19940618011E-02 -0.15302945832E-01  0.23090023386E-01  0.00000000000E+00 0.  1.
     999901    1    3    3    0    0 -0.42114151363E-01  0.15567965198E-01  0.12851217720E+00  0.89046692413E+00  0.88000000000E+00 0.  1.
        -11    1    4    4    0    0  0.45913123551E-01 -0.18862682459E-01 -0.79571539437E-01  0.93785429109E-01  0.51100000000E-03 0. -1.
         11    1    4    4    0    0  0.13376380687E-01  0.52887790615E-02 -0.33637691936E-01  0.36587623372E-01  0.51100000000E-03 0.  1.
</event>
<event>
 8    1  0.1081309E+005  0.1043930E+01  0.7957747E-01            NaN
         13   -1    0    0    0    0  0.00000000000E+00  0.00000000000E+00  0.74505805969E-08  0.10566000000E+00  0.10566000000E+00 0.  1.
     999900   -1    0    0    0    0 -0.00000000000E+00 -0.00000000000E+00 -0.74505805969E-08  0.93827000000E+00  0.93827000000E+00 0. -1.
     999902    2    1    2    0    0 -0.17563405639E-01 -0.54092934287E-02 -0.11473511198E-01  0.10222649329E+01  0.10220353310E+01 0.  0.
     999903    2    3    3    0    0 -0.57346114020E-01 -0.81879659313E-01  0.86849827569E-01  0.13260327829E+00  0.69196432178E-02 0.  0.
         14    1    1    2    0    0  0.17563405639E-01  0.54092934287E-02  0.11473511198E-01  0.21665067095E-01  0.00000000000E+00 0.  1.
     999901    1    3    3    0    0  0.39782708381E-01  0.76470365884E-01 -0.98323338767E-01  0.88966165461E+00  0.88000000000E+00 0. -1.
        -11    1    4    4    0    0 -0.48828468160E-01 -0.68347149087E-01  0.69709075081E-01  0.10915662307E+00  0.51100000000E-03 0.  1.
         11    1    4    4    0    0 -0.85176458600E-02 -0.13532510225E-01  0.17140752488E-01  0.23446655217E-01  0.51100000000E-03 0. -1.
</event>
<event>
 8    1  0.1081309E+005  0.1043930E+01  0.7957747E-01            NaN
         13   -1    0    0    0    0  0.00000000000E+00  0.00000000000E+00  0.74505805969E-08  0.10566000000E+00  0.10566000000E+00 0. -1.
     999900   -1    0    0    0    0 -0.00000000000E+00 -0.00000000000E+00 -0.74505805969E-08  0.93827000000E+00  0.93827000000E+00 0.  1.
     999902    2    1    2    0    0  0.14848475061E-01 -0.75417582167E-02  0.16934128876E-01  0.10201787885E+01  0.10199022700E+01 0.  0.
     999903    2    3    3    0    0  0.11276184431E+00 -0.65028837170E-02  0.67716850135E-01  0.13329266730E+00  0.20587431454E-01 0.  0.
         14    1    1    2    0    0 -0.14848475061E-01  0.75417582167E-02 -0.16934128876E-01  0.23751211536E-01  0.00000000000E+00 0.  1.
     999901    1    3    3    0    0 -0.97913369251E-01 -0.10388744997E-02 -0.50782721260E-01  0.88688612117E+00  0.88000000000E+00 0. -1.
        -11    1    4    4    0    0  0.19155471489E-01  0.29412613715E-03  0.21081856715E-01  0.28490777486E-01  0.51100000000E-03 0.  1.
         11    1    4    4    0    0  0.93606372823E-01 -0.67970098541E-02  0.46634993420E-01  0.10480188981E+00  0.51100000000E-03 0. -1.
</event>
<event>
 8    1  0.1081309E+005  0.1043930E+01  0.7957747E-01            NaN
         13   -1    0    0    0    0  0.00000000000E+00  0.00000000000E+00  0.74505805969E-08  0.10566000000E+00  0.10566000000E+00 0. -1.
     999900   -1    0    0    0    0 -0.00000000000E+00 -0.00000000000E+00 -0.74505805969E-08  0.93827000000E+00  0.93827000000E+00 0. -1.
     999902    2    1    2    0    0  0.22312732593E-01  0.29462342337E-02  0.61422911491E-02  0.10206004892E+01  0.10203338143E+01 0.  0.
     999903    2    3    3    0    0 -0.73328575920E-01 -0.41025056706E-01  0.96763799782E-01  0.12970599933E+00  0.20006948529E-01 0.  0.
         14    1    1    2    0    0 -0.22312732593E-01 -0.29462342337E-02 -0.61422911491E-02  0.23329510764E-01  0.00000000000E+00 0.  1.
     999901    1    3    3    0    0  0.95641308512E-01  0.43971290940E-01 -0.90621508633E-01  0.89089448991E+00  0.88000000000E+00 0.  1.
        -11    1    4    4    0    0 -0.22991452631E-01 -0.20194212158E-01  0.24480546538E-01  0.39191470738E-01  0.51100000000E-03 0.  1.
         11    1    4    4    0    0 -0.50337123288E-01 -0.20830844548E-01  0.72283253244E-01  0.90514528591E-01  0.51100000000E-03 0. -1.
</event>
<event>
 8    1  0.1081309E+005  0.1043930E+01  0.7957747E-01            NaN
         13   -1    0    0    0    0  0.00000000000E+00  0.00000000000E+00  0.74505805969E-08  0.10566000000E+00  0.10566000000E+00 0.  1.
     999900   -1    0    0    0    0 -0.00000000000E+00 -0.00000000000E+00 -0.74505805969E-08  0.93827000000E+00  0.93827000000E+00 0.  1.
     999902    2    1    2    0    0 -0.11795084418E-01 -0.15121388287E-01 -0.74230982543E-02  0.10233658859E+01  0.10231592514E+01 0.  0.
     999903    2    3    3    0    0  0.12354068542E+00 -0.28586148772E-01 -0.32866035781E-01  0.13255478729E+00  0.20276253837E-01 0.  0.
         14    1    1    2    0    0  0.11795084418E-01  0.15121388287E-01  0.74230982543E-02  0.20564114079E-01  0.00000000000E+00 0.  1.
     999901    1    3    3    0    0 -0.13533576984E+00  0.13464760485E-01  0.25442937527E-01  0.89081109863E+00  0.88000000000E+00 0.  1.
        -11    1    4    4    0    0  0.68152894786E-01 -0.12801360247E-01 -0.27889705313E-01  0.74744823736E-01  0.51100000000E-03 0. -1.
         11    1    4    4    0    0  0.55387790635E-01 -0.15784788526E-01 -0.49763304686E-02  0.57809963554E-01  0.51100000000E-03 0.  1.
</event>
<event>
 8    1  0.1081309E+005  0.1043930E+01  0.7957747E-01            NaN
         13   -1    0    0    0    0  0.00000000000E+00  0.00000000000E+00  0.74505805969E-08  0.10566000000E+00  0.10566000000E+00 0.  1.
     999900   -1    0    0    0    0 -0.00000000000E+00 -0.00000000000E+00 -0.74505805969E-08  0.93827000000E+00  0.93827000000E+00 0.  1.
     999902    2    1    2    0    0 -0.16611454575E-01  0.14211058257E-01 -0.83799470986E-02  0.10205180775E+01  0.10202494932E+01 0.  0.
     999903    2    3    3    0    0 -0.84368892361E-02 -0.52077587064E-01  0.11619912027E+00  0.12923756499E+00  0.20417063443E-01 0.  0.
         14    1    1    2    0    0  0.16611454575E-01 -0.14211058257E-01  0.83799470986E-02  0.23411922460E-01  0.00000000000E+00 0. -1.
     999901    1    3    3    0    0 -0.81745653394E-02  0.66288645322E-01 -0.12457906737E+00  0.89128051255E+00  0.88000000000E+00 0.  1.
        -11    1    4    4    0    0  0.50504682176E-02 -0.94668894570E-02  0.34202863771E-01  0.35850052111E-01  0.51100000000E-03 0. -1.
         11    1    4    4    0    0 -0.13487357454E-01 -0.42610697608E-01  0.81996256499E-01  0.93387512884E-01  0.51100000000E-03 0.  1.
</event>
<event>
 8    1  0.1081309E+005  0.1043930E+01  0.7957747E-01            NaN
         13   -1    0    0    0    0  0.00000000000E+00  0.00000000000E+00  0.74505805969E-08  0.10566000000E+00  0.10566000000E+00 0. -1.
     999900   -1    0    0    0    0 -0.00000000000E+00 -0.00000000000E+00 -0.74505805969E-08  0.93827000000E+00  0.93827000000E+00 0. -1.
     999902    2    1    2    0    0  0.28545671063E-02 -0.26358033153E-02 -0.22072002045E-01  0.10215186349E+01  0.10212727609E+01 0.  0.
     999903    2    3    3    0    0 -0.12684432618E+00  0.22762342835E-01 -0.16901844975E-01  0.13163459790E+00  0.20841968817E-01 0.  0.
         14    1    1    2    0    0 -0.28545671063E-02  0.26358033153E-02  0.22072002045E-01  0.22411365125E-01  0.00000000000E+00 0. -1.
     999901    1    3    3    0    0  0.12969889329E+00 -0.25398146150E-01 -0.51701570697E-02  0.88988403698E+00  0.88000000000E+00 0. -1.
        -11    1    4    4    0    0 -0.11936129970E+00  0.20544030138E-01 -0.20807960577E-01  0.12289186053E+00  0.51100000000E-03 0.  1.
         11    1    4    4    0    0 -0.74830264758E-02  0.22183126970E-02  0.39061156019E-02  0.87427373605E-02  0.51100000000E-03 0. -1.
</event>
<event>
 8    1  0.1081309E+005  0.1043930E+01  0.7957747E-01            NaN
         13   -1    0    0    0    0  0.00000000000E+00  0.00000000000E+00  0.74505805969E-08  0.10566000000E+00  0.10566000000E+00 0.  1.
     999900   -1    0    0    0    0 -0.00000000000E+00 -0.00000000000E+00 -0.74505805969E-08  0.93827000000E+00  0.93827000000E+00 0. -1.
     999902    2    1    2    0    0 -0.17157184005E-01 -0.12296636066E-01  0.15269911405E-01  0.10178772378E+01  0.10175437705E+01 0.  0.
     999903    2    3    3    0    0  0.41425374918E-01  0.90808645331E-01  0.77118743027E-01  0.12777168611E+00  0.20396850024E-01 0.  0.
         14    1    1    2    0    0  0.17157184005E-01  0.12296636066E-01 -0.15269911405E-01  0.26052762154E-01  0.00000000000E+00 0.  1.
     999901    1    3    3    0    0 -0.58582558923E-01 -0.10310528140E+00 -0.61848831622E-01  0.89010555174E+00  0.88000000000E+00 0.  1.
        -11    1    4    4    0    0  0.80324125373E-02  0.10683616979E-01  0.31917659672E-02  0.13751647680E-01  0.51100000000E-03 0.  1.
         11    1    4    4    0    0  0.33392962381E-01  0.80125028351E-01  0.73926977060E-01  0.11402003843E+00  0.51100000000E-03 0. -1.
</event>
<event>
 8    1  0.1081309E+005  0.1043930E+01  0.7957747E-01            NaN
         13   -1    0    0    0    0  0.00000000000E+00  0.00000000000E+00  0.74505805969E-08  0.10566000000E+00  0.10566000000E+00 0.  1.
     999900   -1    0    0    0    0 -0.00000000000E+00 -0.00000000000E+00 -0.74505805969E-08  0.93827000000E+00  0.93827000000E+00 0. -1.
     999902    2    1    2    0    0 -0.16243218914E-01 -0.11519241111E-01  0.19949855067E-01  0.10157425596E+01  0.10153513755E+01 0.  0.
     999903    2    3    3    0    0  0.77224819059E-01  0.81108501601E-01 -0.46764384729E-01  0.12346067446E+00  0.22657642159E-01 0.  0.
         14    1    1    2    0    0  0.16243218914E-01  0.11519241111E-01 -0.19949855067E-01  0.28187440353E-01  0.00000000000E+00 0. -1.
     999901    1    3    3    0    0 -0.93468037973E-01 -0.92627742712E-01  0.66714239796E-01  0.89228188519E+00  0.88000000000E+00 0.  1.
        -11    1    4    4    0    0  0.52049643998E-01  0.68686853497E-01 -0.35575553259E-01  0.93235885764E-01  0.51100000000E-03 0.  1.
         11    1    4    4    0    0  0.25175175061E-01  0.12421648104E-01 -0.11188831470E-01  0.30224788695E-01  0.51100000000E-03 0. -1.
</event>
<event>
 8    1  0.1081309E+005  0.1043930E+01  0.7957747E-01            NaN
         13   -1    0    0    0    0  0.00000000000E+00  0.00000000000E+00  0.74505805969E-08  0.10566000000E+00  0.10566000000E+00 0.  1.
     999900   -1    0    0    0    0 -0.00000000000E+00 -0.00000000000E+00 -0.74505805969E-08  0.93827000000E+00  0.93827000000E+00 0.  1.
     999902    2    1    2    0    0 -0.32195246142E-02  0.20398669711E-01  0.12719880392E-01  0.10196757958E+01  0.10193872974E+01 0.  0.
     999903    2    3    3    0    0  0.32582772763E-01  0.11809766737E+00 -0.44050947505E-01  0.13172882353E+00  0.20082351824E-01 0.  0.
         14    1    1    2    0    0  0.32195246142E-02 -0.20398669711E-01 -0.12719880392E-01  0.24254204211E-01  0.00000000000E+00 0. -1.
     999901    1    3    3    0    0 -0.35802297377E-01 -0.97698997656E-01  0.56770827898E-01  0.88794697226E+00  0.88000000000E+00 0.  1.
        -11    1    4    4    0    0  0.14025316519E-01  0.21934902691E-01 -0.12063877328E-01  0.28699263348E-01  0.51100000000E-03 0. -1.
         11    1    4    4    0    0  0.18557456244E-01  0.96162764676E-01 -0.31987070177E-01  0.10302956018E+00  0.51100000000E-03 0.  1.
</event>
<event>
 8    1  0.1081309E+005  0.1043930E+01  0.7957747E-01            NaN
         13   -1    0    0    0    0  0.00000000000E+00  0.00000000000E+00  0.74505805969E-08  0.10566000000E+00  0.10566000000E+00 0. -1.
     999900   -1    0    0    0    0 -0.00000000000E+00 -0.00000000000E+00 -0.74505805969E-08  0.93827000000E+00  0.93827000000E+00 0. -1.
     999902    2    1    2    0    0  0.19067150246E-01 -0.11575489427E-01 -0.87412239569E-02  0.10199725968E+01  0.10196911988E+01 0.  0.
     999903    2    3    3    0    0 -0.12662412638E+00 -0.77501172940E-02 -0.11868630841E-01  0.12798024128E+00  0.12014327304E-01 0.  0.
         14    1    1    2    0    0 -0.19067150246E-01  0.11575489427E-01  0.87412239569E-02  0.23957403245E-01  0.00000000000E+00 0. -1.
     999901    1    3    3    0    0  0.14569127662E+00 -0.38253721326E-02  0.31274068839E-02  0.89199235548E+00  0.88000000000E+00 0.  1.
        -11    1    4    4    0    0 -0.98686005505E-01 -0.48040723734E-02 -0.43775256593E-02  0.98901115494E-01  0.51100000000E-03 0. -1.
         11    1    4    4    0    0 -0.27938120872E-01 -0.29460449206E-02 -0.74911051815E-02  0.29079125784E-01  0.51100000000E-03 0.  1.
</event>
<event>
 8    1  0.1081309E+005  0.1043930E+01  0.7957747E-01            NaN
         13   -1    0    0    0    0  0.00000000000E+00  0.00000000000E+00  0.74505805969E-08  0.10566000000E+00  0.10566000000E+00 0. -1.
     999900   -1    0    0    0    0 -0.00000000000E+00 -0.00000000000E+00 -0.74505805969E-08  0.93827000000E+00  0.93827000000E+00 0. -1.
     999902    2    1    2    0    0  0.15114201643E-01  0.18694449721E-01  0.27973211677E-02  0.10197277987E+01  0.10194405509E+01 0.  0.
     999903    2    3    3    0    0 -0.90415999085E-01 -0.84894941548E-01 -0.19467206321E-01  0.12711192700E+00  0.19906427895E-01 0.  0.
         14    1    1    2    0    0 -0.15114201643E-01 -0.18694449721E-01 -0.27973211677E-02  0.24202201292E-01  0.00000000000E+00 0.  1.
     999901    1    3    3    0    0  0.10553020073E+00  0.10358939127E+00  0.22264527489E-01  0.89261587171E+00  0.88000000000E+00 0.  1.
        -11    1    4    4    0    0 -0.40368151618E-02 -0.11164408569E-01 -0.37528752309E-02  0.12461343782E-01  0.51100000000E-03 0.  1.
         11    1    4    4    0    0 -0.86379183924E-01 -0.73730532978E-01 -0.15714331090E-01  0.11465058321E+00  0.51100000000E-03 0. -1.
</event>
<event>
 8    1  0.1081309E+005  0.1043930E+01  0.7957747E-01            NaN
         13   -1    0    0    0    0  0.00000000000E+00  0.00000000000E+00  0.74505805969E-08  0.10566000000E+00  0.10566000000E+00 0. -1.
     999900   -1    0    0    0    0 -0.00000000000E+00 -0.00000000000E+00 -0.74505805969E-08  0.93827000000E+00  0.93827000000E+00 0.  1.
     999902    2    1    2    0    0  0.11574442808E-01  0.10450770505E-02  0.16378676081E-01  0.10238471480E+01  0.10236501656E+01 0.  0.
     999903    2    3    3    0    0 -0.11929431710E+00 -0.42897891660E-01 -0.30360480529E-01  0.13185938716E+00  0.19843790009E-01 0.  0.
         14    1    1    2    0    0 -0.11574442808E-01 -0.10450770505E-02 -0.16378676081E-01  0.20082851952E-01  0.00000000000E+00 0.  1.
     999901    1    3    3    0    0  0.13086875991E+00  0.43942968710E-01  0.46739156610E-01  0.89198776089E+00  0.88000000000E+00 0.  1.
        -11    1    4    4    0    0 -0.68075230995E-01 -0.17487361886E-01 -0.91799111997E-02  0.70884249248E-01  0.51100000000E-03 0. -1.
         11    1    4    4    0    0 -0.51219086106E-01 -0.25410529774E-01 -0.21180569329E-01  0.60975137909E-01  0.51100000000E-03 0.  1.
</event>
<event>
 8    1  0.1081309E+005  0.1043930E+01  0.7957747E-01            NaN
         13   -1    0    0    0    0  0.00000000000E+00  0.00000000000E+00  0.74505805969E-08  0.10566000000E+00  0.10566000000E+00 0.  1.
     999900   -1    0    0    0    0 -0.00000000000E+00 -0.00000000000E+00 -0.74505805969E-08  0.93827000000E+00  0.93827000000E+00 0.  1.
     999902    2    1    2    0    0  0.71456693622E-02  0.22645115475E-01 -0.24639485755E-02  0.10200567328E+01  0.10197773312E+01 0.  0.
     999903    2    3    3    0    0  0.44112616178E-02  0.98911026721E-01  0.85533456564E-01  0.13238139262E+00  0.20149701836E-01 0.  0.
         14    1    1    2    0    0 -0.71456693622E-02 -0.22645115475E-01  0.24639485755E-02  0.23873267227E-01  0.00000000000E+00 0.  1.
     999901    1    3    3    0    0  0.27344077445E-02 -0.76265911246E-01 -0.87997405140E-01  0.88767534015E+00  0.88000000000E+00 0.  1.
        -11    1    4    4    0    0  0.86618999014E-02  0.53281603189E-01  0.56420727088E-01  0.78086601375E-01  0.51100000000E-03 0. -1.
         11    1    4    4    0    0 -0.42506382836E-02  0.45629423532E-01  0.29112729476E-01  0.54294791244E-01  0.51100000000E-03 0.  1.
</event>
<event>
 8    1  0.1081309E+005  0.1043930E+01  0.7957747E-01            NaN
         13   -1    0    0    0    0  0.00000000000E+00  0.00000000000E+00  0.74505805969E-08  0.10566000000E+00  0.10566000000E+00 0.  1.
     999900   -1    0    0    0    0 -0.00000000000E+00 -0.00000000000E+00 -0.74505805969E-08  0.93827000000E+00  0.93827000000E+00 0. -1.
     999902    2    1    2    0    0 -0.22232439535E-01  0.32133265813E-02  0.79545389707E-02  0.10200997351E+01  0.10198213510E+01 0.  0.
     999903    2    3    3    0    0 -0.88469820392E-01  0.47682069203E-01 -0.82884074210E-01  0.13183372013E+00  0.20245275039E-01 0.  0.
         14    1    1    2    0    0  0.22232439535E-01 -0.32133265813E-02 -0.79545389707E-02  0.23830264909E-01  0.00000000000E+00 0. -1.
     999901    1    3    3    0    0  0.66237380857E-01 -0.44468742622E-01  0.90838613180E-01  0.88826601496E+00  0.88000000000E+00 0.  1.
        -11    1    4    4    0    0 -0.76936640858E-01  0.33162602990E-01 -0.64673086737E-01  0.10583890690E+00  0.51100000000E-03 0. -1.
         11    1    4    4    0    0 -0.11533179534E-01  0.14519466214E-01 -0.18210987472E-01  0.25994813233E-01  0.51100000000E-03 0.  1.
</event>
<event>
 8    1  0.1081309E+005  0.1043930E+01  0.7957747E-01            NaN
         13   -1    0    0    0    0  0.00000000000E+00  0.00000000000E+00  0.74505805969E-08  0.10566000000E+00  0.10566000000E+00 0. -1.
     999900   -1    0    0    0    0 -0.00000000000E+00 -0.00000000000E+00 -0.74505805969E-08  0.93827000000E+00  0.93827000000E+00 0.  1.
     999902    2    1    2    0    0 -0.60732194862E-02 -0.24604083854E-01  0.35906503789E-04  0.10185874227E+01  0.10182721107E+01 0.  0.
     999903    2    3    3    0    0 -0.56323848420E-02 -0.57545510068E-01 -0.11509318711E+00  0.13047704658E+00  0.20847265482E-01 0.  0.
         14    1    1    2    0    0  0.60732194862E-02  0.24604083854E-01 -0.35906503789E-04  0.25342577345E-01  0.00000000000E+00 0.  1.
     999901    1    3    3    0    0 -0.44083464417E-03  0.32941426215E-01  0.11512909361E+00  0.88811037607E+00  0.88000000000E+00 0. -1.
        -11    1    4    4    0    0 -0.13126970045E-01 -0.44491153608E-01 -0.85743165435E-01  0.97488110208E-01  0.51100000000E-03 0. -1.
         11    1    4    4    0    0  0.74945852027E-02 -0.13054356460E-01 -0.29350021671E-01  0.32988936373E-01  0.51100000000E-03 0.  1.
</event>
<event>
 8    1  0.1081309E+005  0.1043930E+01  0.7957747E-01            NaN
         13   -1    0    0    0    0  0.00000000000E+00  0.00000000000E+00  0.74505805969E-08  0.10566000000E+00  0.10566000000E+00 0.  1.
     999900   -1    0    0    0    0 -0.00000000000E+00 -0.00000000000E+00 -0.74505805969E-08  0.93827000000E+00  0.93827000000E+00 0.  1.
     999902    2    1    2    0    0  0.44846212337E-02  0.22805781761E-01  0.54547744696E-02  0.10200559540E+01  0.10197765339E+01 0.  0.
     999903    2    3    3    0    0 -0.56400294384E-02 -0.11680258216E+00 -0.47121066737E-01  0.12744337121E+00  0.18621621952E-01 0.  0.
         14    1    1    2    0    0 -0.44846212337E-02 -0.22805781761E-01 -0.54547744696E-02  0.23874046031E-01  0.00000000000E+00 0.  1.
     999901    1    3    3    0    0  0.10124650672E-01  0.13960836392E+00  0.52575841206E-01  0.89261258276E+00  0.88000000000E+00 0. -1.
        -11    1    4    4    0    0 -0.66748422431E-02 -0.21468160070E-01 -0.14114620044E-01  0.26550311406E-01  0.51100000000E-03 0.  1.
         11    1    4    4    0    0  0.10348128047E-02 -0.95334422085E-01 -0.33006446693E-01  0.10089305980E+00  0.51100000000E-03 0. -1.
</event>
<event>
 8    1  0.1081309E+005  0.1043930E+01  0.7957747E-01            NaN
         13   -1    0    0    0    0  0.00000000000E+00  0.00000000000E+00  0.74505805969E-08  0.10566000000E+00  0.10566000000E+00 0. -1.
     999900   -1    0    0    0    0 -0.00000000000E+00 -0.00000000000E+00 -0.74505805969E-08  0.93827000000E+00  0.93827000000E+00 0. -1.
     999902    2    1    2    0    0  0.14981509468E-01  0.14724585713E-01 -0.11800476490E-01  0.10198362187E+01  0.10195515694E+01 0.  0.
     999903    2    3    3    0    0 -0.98318802458E-01 -0.78250187569E-01 -0.14954076697E-01  0.12770886552E+00  0.17211947942E-01 0.  0.
         14    1    1    2    0    0 -0.14981509468E-01 -0.14724585713E-01  0.11800476490E-01  0.24093781267E-01  0.00000000000E+00 0.  1.
     999901    1    3    3    0    0  0.11330031193E+00  0.92974773282E-01  0.31536002069E-02  0.89212735321E+00  0.88000000000E+00 0.  1.
        -11    1    4    4    0    0 -0.40711932970E-01 -0.38714448155E-01 -0.13690255581E-01  0.57826933180E-01  0.51100000000E-03 0. -1.
         11    1    4    4    0    0 -0.57606869488E-01 -0.39535739414E-01 -0.12638211156E-02  0.69881932344E-01  0.51100000000E-03 0.  1.
</event>
<event>
 8    1  0.1081309E+005  0.1043930E+01  0.7957747E-01            NaN
         13   -1    0    0    0    0  0.00000000000E+00  0.00000000000E+00  0.74505805969E-08  0.10566000000E+00  0.10566000000E+00 0.  1.
     999900   -1    0    0    0    0 -0.00000000000E+00 -0.00000000000E+00 -0.74505805969E-08  0.93827000000E+00  0.93827000000E+00 0.  1.
     999902    2    1    2    0    0 -0.22256973858E-01  0.71245165566E-02 -0.15471925813E-02  0.10205093803E+01  0.10202405941E+01 0.  0.
     999903    2    3    3    0    0  0.20570912204E-01  0.12778023089E+00 -0.88969941149E-02  0.13121412630E+00  0.19673347483E-01 0.  0.
         14    1    1    2    0    0  0.22256973858E-01 -0.71245165566E-02  0.15471925813E-02  0.23420619683E-01  0.00000000000E+00 0.  1.
     999901    1    3    3    0    0 -0.42827886061E-01 -0.12065571434E+00  0.73498015337E-02  0.88929525401E+00  0.88000000000E+00 0.  1.
        -11    1    4    4    0    0  0.20414966480E-02  0.72959115198E-01 -0.31161015970E-02  0.73055947117E-01  0.51100000000E-03 0.  1.
         11    1    4    4    0    0  0.18529415556E-01  0.54821115696E-01 -0.57808925180E-02  0.58158179187E-01  0.51100000000E-03 0. -1.
</event>
<event>
 8    1  0.1081309E+005  0.1043930E+01  0.7957747E-01            NaN
         13   -1    0    0    0    0  0.00000000000E+00  0.00000000000E+00  0.74505805969E-08  0.10566000000E+00  0.10566000000E+00 0. -1.
     999900   -1    0    0    0    0 -0.00000000000E+00 -0.00000000000E+00 -0.74505805969E-08  0.93827000000E+00  0.93827000000E+00 0.  1.
     999902    2    1    2    0    0  0.18477512866E-01 -0.11539437844E-03 -0.14536818757E-01  0.10204193450E+01  0.10201484641E+01 0.  0.
     999903    2    3    3    0    0 -0.25930272491E-01  0.11924035508E+00  0.39290216891E-01  0.12962464584E+00  0.19188182697E-01 0.  0.
         14    1    1    2    0    0 -0.18477512866E-01  0.11539437844E-03  0.14536818757E-01  0.23510654970E-01  0.00000000000E+00 0. -1.
     999901    1    3    3    0    0  0.44407785357E-01 -0.11935574946E+00 -0.53827035648E-01  0.89079469919E+00  0.88000000000E+00 0.  1.
        -11    1    4    4    0    0 -0.12088924102E-01  0.44694888902E-01  0.55504025228E-02  0.46635214903E-01  0.51100000000E-03 0. -1.
         11    1    4    4    0    0 -0.13841348389E-01  0.74545466181E-01  0.33739814368E-01  0.82989430941E-01  0.51100000000E-03 0.  1.
</event>
