<event>
 8    1  0.1115874E+005  0.1043930E+01  0.7957747E-01            NaN
         13   -1    0    0    0    0  0.00000000000E+00  0.00000000000E+00  0.74505805969E-08  0.10566000000E+00  0.10566000000E+00 0.  1.
     999900   -1    0    0    0    0 -0.00000000000E+00 -0.00000000000E+00 -0.74505805969E-08  0.93827000000E+00  0.93827000000E+00 0. -1.
     999902    2    1    2    0    0  0.23664475237E-01  0.15890383839E-02  0.18472375502E-02  0.10201404074E+01  0.10198629839E+01 0.  0.
     999903    2    3    3    0    0  0.12209447787E-01 -0.11710445452E+00 -0.52352297943E-01  0.13044554250E+00  0.20316313055E-01 0.  0.
         14    1    1    2    0    0 -0.23664475237E-01 -0.15890383839E-02 -0.18472375502E-02  0.23789592636E-01  0.00000000000E+00 0.  1.
     999901    1    3    3    0    0  0.11455027450E-01  0.11869349290E+00  0.54199535494E-01  0.88969486486E+00  0.88000000000E+00 0. -1.
        -11    1    4    4    0    0 -0.10612081176E-02 -0.64925749855E-01 -0.21570582250E-01  0.68425362962E-01  0.51100000000E-03 0. -1.
         11    1    4    4    0    0  0.13270655904E-01 -0.52178704662E-01 -0.30781715693E-01  0.62020179542E-01  0.51100000000E-03 0.  1.
</event>
<event>
 8    1  0.1115874E+005  0.1043930E+01  0.7957747E-01            NaN
         13   -1    0    0    0    0  0.00000000000E+00  0.00000000000E+00  0.74505805969E-08  0.10566000000E+00  0.10566000000E+00 0.  1.
     999900   -1    0    0    0    0 -0.00000000000E+00 -0.00000000000E+00 -0.74505805969E-08  0.93827000000E+00  0.93827000000E+00 0.  1.
     999902    2    1    2    0    0 -0.13453701511E-01 -0.85043996739E-02  0.17300249085E-01  0.10204220116E+01  0.10201511929E+01 0.  0.
     999903    2    3    3    0    0 -0.11290501688E+00 -0.62085598443E-01 -0.22291631211E-01  0.13231783646E+00  0.20221984383E-01 0.  0.
         14    1    1    2    0    0  0.13453701511E-01  0.85043996739E-02 -0.17300249085E-01  0.23507988356E-01  0.00000000000E+00 0. -1.
     999901    1    3    3    0    0  0.99451315372E-01  0.53581198769E-01  0.39591880296E-01  0.88810417518E+00  0.88000000000E+00 0. -1.
        -11    1    4    4    0    0 -0.10658999305E+00 -0.52319386618E-01 -0.19291408781E-01  0.12029615293E+00  0.51100000000E-03 0.  1.
         11    1    4    4    0    0 -0.63150238292E-02 -0.97662118245E-02 -0.30002224300E-02  0.12021683534E-01  0.51100000000E-03 0. -1.
</event>
<event>
 8    1  0.1115874E+005  0.1043930E+01  0.7957747E-01            NaN
         13   -1    0    0    0    0  0.00000000000E+00  0.00000000000E+00  0.74505805969E-08  0.10566000000E+00  0.10566000000E+00 0. -1.
     999900   -1    0    0    0    0 -0.00000000000E+00 -0.00000000000E+00 -0.74505805969E-08  0.93827000000E+00  0.93827000000E+00 0.  1.
     999902    2    1    2    0    0 -0.17022034694E-01 -0.11722622610E-01  0.11743884068E-01  0.10201584128E+01  0.10198814141E+01 0.  0.
     999903    2    3    3    0    0 -0.99143137186E-01  0.25006150595E-01 -0.79254581816E-01  0.13090389407E+00  0.19996787857E-01 0.  0.
         14    1    1    2    0    0  0.17022034694E-01  0.11722622610E-01 -0.11743884068E-01  0.23771587221E-01  0.00000000000E+00 0.  1.
     999901    1    3    3    0    0  0.82121102492E-01 -0.36728773205E-01  0.90998465884E-01  0.88925451871E+00  0.88000000000E+00 0. -1.
        -11    1    4    4    0    0 -0.62828343980E-01  0.24867910135E-01 -0.56166643950E-01  0.87867893882E-01  0.51100000000E-03 0. -1.
         11    1    4    4    0    0 -0.36314793206E-01  0.13824045942E-03 -0.23087937866E-01  0.43036000186E-01  0.51100000000E-03 0.  1.
</event>
<event>
 8    1  0.1115874E+005  0.1043930E+01  0.7957747E-01            NaN
         13   -1    0    0    0    0  0.00000000000E+00  0.00000000000E+00  0.74505805969E-08  0.10566000000E+00  0.10566000000E+00 0.  1.
     999900   -1    0    0    0    0 -0.00000000000E+00 -0.00000000000E+00 -0.74505805969E-08  0.93827000000E+00  0.93827000000E+00 0.  1.
     999902    2    1    2    0    0  0.14810013518E-01 -0.13527634001E-01 -0.13185689878E-01  0.10199259212E+01  0.10196434126E+01 0.  0.
     999903    2    3    3    0    0 -0.12122612611E+00 -0.39244714592E-01 -0.14436964758E-02  0.12902465060E+00  0.20232521539E-01 0.  0.
         14    1    1    2    0    0 -0.14810013518E-01  0.13527634001E-01  0.13185689878E-01  0.24004078812E-01  0.00000000000E+00 0.  1.
     999901    1    3    3    0    0  0.13603613963E+00  0.25717080591E-01 -0.11741993402E-01  0.89090127058E+00  0.88000000000E+00 0.  1.
        -11    1    4    4    0    0 -0.86609223616E-01 -0.18311750849E-01  0.38518810904E-03  0.88526195701E-01  0.51100000000E-03 0.  1.
         11    1    4    4    0    0 -0.34616902499E-01 -0.20932963743E-01 -0.18288845849E-02  0.40498454902E-01  0.51100000000E-03 0. -1.
</event>
<event>
 8    1  0.1115874E+005  0.1043930E+01  0.7957747E-01            NaN
         13   -1    0    0    0    0  0.00000000000E+00  0.00000000000E+00  0.74505805969E-08  0.10566000000E+00  0.10566000000E+00 0. -1.
     999900   -1    0    0    0    0 -0.00000000000E+00 -0.00000000000E+00 -0.74505805969E-08  0.93827000000E+00  0.93827000000E+00 0. -1.
     999902    2    1    2    0    0  0.15606117415E-01 -0.12259893433E-01  0.13265378554E-01  0.10200589683E+01  0.10197796196E+01 0.  0.
     999903    2    3    3    0    0 -0.12096265596E-01  0.12020585932E+00  0.41438664483E-01  0.12926812204E+00  0.19932792263E-01 0.  0.
         14    1    1    2    0    0 -0.15606117415E-01  0.12259893433E-01 -0.13265378554E-01  0.23871031732E-01  0.00000000000E+00 0. -1.
     999901    1    3    3    0    0  0.27702383010E-01 -0.13246575275E+00 -0.28173285929E-01  0.89079084622E+00  0.88000000000E+00 0. -1.
        -11    1    4    4    0    0  0.40349484945E-02  0.45517236113E-01  0.20162728335E-01  0.49948937202E-01  0.51100000000E-03 0. -1.
         11    1    4    4    0    0 -0.16131214090E-01  0.74688623204E-01  0.21275936148E-01  0.79319184842E-01  0.51100000000E-03 0.  1.
</event>
<event>
 8    1  0.1115874E+005  0.1043930E+01  0.7957747E-01            NaN
         13   -1    0    0    0    0  0.00000000000E+00  0.00000000000E+00  0.74505805969E-08  0.10566000000E+00  0.10566000000E+00 0. -1.
     999900   -1    0    0    0    0 -0.00000000000E+00 -0.00000000000E+00 -0.74505805969E-08  0.93827000000E+00  0.93827000000E+00 0.  1.
     999902    2    1    2    0    0 -0.11950053649E-01 -0.37261837893E-02 -0.19969130081E-01  0.10203619202E+01  0.10200896989E+01 0.  0.
     999903    2    3    3    0    0 -0.55037159037E-01 -0.11760593599E+00 -0.39896277105E-02  0.13183480128E+00  0.22455570479E-01 0.  0.
         14    1    1    2    0    0  0.11950053649E-01  0.37261837893E-02  0.19969130081E-01  0.23568079770E-01  0.00000000000E+00 0. -1.
     999901    1    3    3    0    0  0.43087105388E-01  0.11387975220E+00 -0.15979502371E-01  0.88852711895E+00  0.88000000000E+00 0.  1.
        -11    1    4    4    0    0 -0.15110845857E-01 -0.44266695798E-01  0.80550762892E-02  0.47466023579E-01  0.51100000000E-03 0. -1.
         11    1    4    4    0    0 -0.39926313180E-01 -0.73339240188E-01 -0.12044704000E-01  0.84368777702E-01  0.51100000000E-03 0.  1.
</event>
<event>
 8    1  0.1115874E+005  0.1043930E+01  0.7957747E-01            NaN
         13   -1    0    0    0    0  0.00000000000E+00  0.00000000000E+00  0.74505805969E-08  0.10566000000E+00  0.10566000000E+00 0. -1.
     999900   -1    0    0    0    0 -0.00000000000E+00 -0.00000000000E+00 -0.74505805969E-08  0.93827000000E+00  0.93827000000E+00 0.  1.
     999902    2    1    2    0    0 -0.95152208464E-03  0.14251346380E-01  0.20440281539E-01  0.10189938540E+01  0.10186886978E+01 0.  0.
     999903    2    3    3    0    0  0.12017832755E+00  0.29923075433E-01  0.35435984630E-01  0.13043158006E+00  0.20456471183E-01 0.  0.
         14    1    1    2    0    0  0.95152208464E-03 -0.14251346380E-01 -0.20440281539E-01  0.24936145999E-01  0.00000000000E+00 0.  1.
     999901    1    3    3    0    0 -0.12112984964E+00 -0.15671729053E-01 -0.14995703091E-01  0.88856227394E+00  0.88000000000E+00 0.  1.
        -11    1    4    4    0    0  0.51468674984E-01  0.17718824545E-01  0.62717292533E-02  0.54795774990E-01  0.51100000000E-03 0.  1.
         11    1    4    4    0    0  0.68709652567E-01  0.12204250888E-01  0.29164255376E-01  0.75635805068E-01  0.51100000000E-03 0. -1.
</event>
<event>
 8    1  0.1115874E+005  0.1043930E+01  0.7957747E-01            NaN
         13   -1    0    0    0    0  0.00000000000E+00  0.00000000000E+00  0.74505805969E-08  0.10566000000E+00  0.10566000000E+00 0.  1.
     999900   -1    0    0    0    0 -0.00000000000E+00 -0.00000000000E+00 -0.74505805969E-08  0.93827000000E+00  0.93827000000E+00 0.  1.
     999902    2    1    2    0    0 -0.16618348220E-01  0.18317033368E-01  0.34913168172E-02  0.10189525601E+01  0.10186463799E+01 0.  0.
     999903    2    3    3    0    0  0.87528432654E-01 -0.14771958920E-01  0.90007859395E-01  0.12798311873E+00  0.19970644324E-01 0.  0.
         14    1    1    2    0    0  0.16618348220E-01 -0.18317033368E-01 -0.34913168172E-02  0.24977439862E-01  0.00000000000E+00 0.  1.
     999901    1    3    3    0    0 -0.10414678087E+00  0.33088992288E-01 -0.86516542578E-01  0.89096944140E+00  0.88000000000E+00 0.  1.
        -11    1    4    4    0    0  0.47637089860E-01 -0.90989448084E-02  0.62857304975E-01  0.79393860194E-01  0.51100000000E-03 0.  1.
         11    1    4    4    0    0  0.39891342794E-01 -0.56730141117E-02  0.27150554420E-01  0.48589258539E-01  0.51100000000E-03 0. -1.
</event>
<event>
 8    1  0.1115874E+005  0.1043930E+01  0.7957747E-01            NaN
         13   -1    0    0    0    0  0.00000000000E+00  0.00000000000E+00  0.74505805969E-08  0.10566000000E+00  0.10566000000E+00 0.  1.
     999900   -1    0    0    0    0 -0.00000000000E+00 -0.00000000000E+00 -0.74505805969E-08  0.93827000000E+00  0.93827000000E+00 0.  1.
     999902    2    1    2    0    0 -0.21145398447E-01 -0.54487409554E-02  0.11849482366E-01  0.10190859487E+01  0.10187830701E+01 0.  0.
     999903    2    3    3    0    0 -0.69927616296E-01 -0.82084410511E-01 -0.70860012181E-01  0.13055142987E+00  0.19869890444E-01 0.  0.
         14    1    1    2    0    0  0.21145398447E-01  0.54487409554E-02 -0.11849482366E-01  0.24844051317E-01  0.00000000000E+00 0. -1.
     999901    1    3    3    0    0  0.48782217849E-01  0.76635669556E-01  0.82709494546E-01  0.88853451881E+00  0.88000000000E+00 0. -1.
        -11    1    4    4    0    0 -0.36804595790E-01 -0.41891817859E-01 -0.48362936517E-01  0.73815563564E-01  0.51100000000E-03 0.  1.
         11    1    4    4    0    0 -0.33123020506E-01 -0.40192592652E-01 -0.22497075664E-01  0.56735866310E-01  0.51100000000E-03 0. -1.
</event>
<event>
 8    1  0.1115874E+005  0.1043930E+01  0.7957747E-01            NaN
         13   -1    0    0    0    0  0.00000000000E+00  0.00000000000E+00  0.74505805969E-08  0.10566000000E+00  0.10566000000E+00 0.  1.
     999900   -1    0    0    0    0 -0.00000000000E+00 -0.00000000000E+00 -0.74505805969E-08  0.93827000000E+00  0.93827000000E+00 0. -1.
     999902    2    1    2    0    0  0.12435317157E-01  0.67827135755E-02 -0.19017571817E-01  0.10202169160E+01  0.10199412950E+01 0.  0.
     999903    2    3    3    0    0  0.55548477707E-01  0.12477257578E-01  0.11419519862E+00  0.12912948219E+00  0.19813239264E-01 0.  0.
         14    1    1    2    0    0 -0.12435317157E-01 -0.67827135755E-02  0.19017571817E-01  0.23713084026E-01  0.00000000000E+00 0.  1.
     999901    1    3    3    0    0 -0.43113160551E-01 -0.56945440025E-02 -0.13321277044E+00  0.89108743379E+00  0.88000000000E+00 0. -1.
        -11    1    4    4    0    0  0.26720919572E-01  0.92658266184E-02  0.76509136798E-01  0.81570657838E-01  0.51100000000E-03 0.  1.
         11    1    4    4    0    0  0.28827558136E-01  0.32114309596E-02  0.37686061822E-01  0.47558824349E-01  0.51100000000E-03 0. -1.
</event>
<event>
 8    1  0.1115874E+005  0.1043930E+01  0.7957747E-01            NaN
         13   -1    0    0    0    0  0.00000000000E+00  0.00000000000E+00  0.74505805969E-08  0.10566000000E+00  0.10566000000E+00 0. -1.
     999900   -1    0    0    0    0 -0.00000000000E+00 -0.00000000000E+00 -0.74505805969E-08  0.93827000000E+00  0.93827000000E+00 0. -1.
     999902    2    1    2    0    0 -0.16498371874E-01  0.15324022932E-01  0.81580043469E-02  0.10199805744E+01  0.10196993660E+01 0.  0.
     999903    2    3    3    0    0  0.49674581416E-01  0.34030194547E-01 -0.11217945416E+00  0.12913272848E+00  0.21573443111E-01 0.  0.
         14    1    1    2    0    0  0.16498371874E-01 -0.15324022932E-01 -0.81580043469E-02  0.23949425635E-01  0.00000000000E+00 0.  1.
     999901    1    3    3    0    0 -0.66172953290E-01 -0.18706171615E-01  0.12033745851E+00  0.89084784589E+00  0.88000000000E+00 0.  1.
        -11    1    4    4    0    0  0.18216077943E-01  0.34993091476E-02 -0.21423826900E-01  0.28342761690E-01  0.51100000000E-03 0. -1.
         11    1    4    4    0    0  0.31458503473E-01  0.30530885399E-01 -0.90755627263E-01  0.10078996679E+00  0.51100000000E-03 0.  1.
</event>
<event>
 8    1  0.1115874E+005  0.1043930E+01  0.7957747E-01            NaN
         13   -1    0    0    0    0  0.00000000000E+00  0.00000000000E+00  0.74505805969E-08  0.10566000000E+00  0.10566000000E+00 0. -1.
     999900   -1    0    0    0    0 -0.00000000000E+00 -0.00000000000E+00 -0.74505805969E-08  0.93827000000E+00  0.93827000000E+00 0.  1.
     999902    2    1    2    0    0 -0.22376547862E-01  0.69741599246E-02  0.41297506892E-02  0.10201307638E+01  0.10198531128E+01 0.  0.
     999903    2    3    3    0    0  0.95324007938E-01 -0.80865329083E-01 -0.15992386837E-01  0.12773281613E+00  0.20833817289E-01 0.  0.
         14    1    1    2    0    0  0.22376547862E-01 -0.69741599246E-02 -0.41297506892E-02  0.23799236156E-01  0.00000000000E+00 0. -1.
     999901    1    3    3    0    0 -0.11770055580E+00  0.87839489007E-01  0.20122137526E-01  0.89239794771E+00  0.88000000000E+00 0. -1.
        -11    1    4    4    0    0  0.53746265444E-01 -0.39047885168E-01 -0.17642292831E-01  0.68737980787E-01  0.51100000000E-03 0. -1.
         11    1    4    4    0    0  0.41577742494E-01 -0.41817443915E-01  0.16499059942E-02  0.58994835344E-01  0.51100000000E-03 0.  1.
</event>
<event>
 8    1  0.1115874E+005  0.1043930E+01  0.7957747E-01            NaN
         13   -1    0    0    0    0  0.00000000000E+00  0.00000000000E+00  0.74505805969E-08  0.10566000000E+00  0.10566000000E+00 0. -1.
     999900   -1    0    0    0    0 -0.00000000000E+00 -0.00000000000E+00 -0.74505805969E-08  0.93827000000E+00  0.93827000000E+00 0. -1.
     999902    2    1    2    0    0  0.78933767403E-02  0.20682616963E-01 -0.53718738776E-02  0.10211498975E+01  0.10208957734E+01 0.  0.
     999903    2    3    3    0    0  0.12307856992E+00 -0.43475176635E-01  0.11297918584E-01  0.13117139597E+00  0.63140160612E-02 0.  0.
         14    1    1    2    0    0 -0.78933767403E-02 -0.20682616963E-01  0.53718738776E-02  0.22780102497E-01  0.00000000000E+00 0. -1.
     999901    1    3    3    0    0 -0.11518519318E+00  0.64157793598E-01 -0.16669792462E-01  0.88997850153E+00  0.88000000000E+00 0.  1.
        -11    1    4    4    0    0  0.88180159900E-01 -0.32445669659E-01  0.10642882311E-01  0.94562117915E-01  0.51100000000E-03 0.  1.
         11    1    4    4    0    0  0.34898410023E-01 -0.11029506976E-01  0.65503627327E-03  0.36609278057E-01  0.51100000000E-03 0. -1.
</event>
<event>
 8    1  0.1115874E+005  0.1043930E+01  0.7957747E-01            NaN
         13   -1    0    0    0    0  0.00000000000E+00  0.00000000000E+00  0.74505805969E-08  0.10566000000E+00  0.10566000000E+00 0. -1.
     999900   -1    0    0    0    0 -0.00000000000E+00 -0.00000000000E+00 -0.74505805969E-08  0.93827000000E+00  0.93827000000E+00 0. -1.
     999902    2    1    2    0    0 -0.90379432237E-02  0.80544865142E-02 -0.19771601258E-01  0.10207464846E+01  0.10204831750E+01 0.  0.
     999903    2    3    3    0    0 -0.99854020017E-01 -0.12448015623E-01  0.80186138523E-01  0.13020762404E+00  0.19960714922E-01 0.  0.
         14    1    1    2    0    0  0.90379432237E-02 -0.80544865142E-02  0.19771601258E-01  0.23183515416E-01  0.00000000000E+00 0. -1.
     999901    1    3    3    0    0  0.90816076793E-01  0.20502502138E-01 -0.99957739782E-01  0.89053886054E+00  0.88000000000E+00 0. -1.
        -11    1    4    4    0    0 -0.61496193171E-01 -0.31079089286E-02  0.59534463474E-01  0.85650769609E-01  0.51100000000E-03 0. -1.
         11    1    4    4    0    0 -0.38357826845E-01 -0.93401066948E-02  0.20651675049E-01  0.44556854430E-01  0.51100000000E-03 0.  1.
</event>
<event>
 8    1  0.1115874E+005  0.1043930E+01  0.7957747E-01            NaN
         13   -1    0    0    0    0  0.00000000000E+00  0.00000000000E+00  0.74505805969E-08  0.10566000000E+00  0.10566000000E+00 0. -1.
     999900   -1    0    0    0    0 -0.00000000000E+00 -0.00000000000E+00 -0.74505805969E-08  0.93827000000E+00  0.93827000000E+00 0. -1.
     999902    2    1    2    0    0  0.15325721856E-02  0.17502759945E-02  0.20480112444E-01  0.10233181770E+01  0.10231105727E+01 0.  0.
     999903    2    3    3    0    0 -0.10380932995E-01  0.12951126900E+00  0.24662700704E-01  0.13400254289E+00  0.21621751301E-01 0.  0.
         14    1    1    2    0    0 -0.15325721856E-02 -0.17502759945E-02 -0.20480112444E-01  0.20611823046E-01  0.00000000000E+00 0.  1.
     999901    1    3    3    0    0  0.11913505181E-01 -0.12776099300E+00 -0.41825882603E-02  0.88931563406E+00  0.88000000000E+00 0.  1.
        -11    1    4    4    0    0 -0.15666127692E-01  0.74671652102E-01  0.97169618989E-02  0.76915301820E-01  0.51100000000E-03 0. -1.
         11    1    4    4    0    0  0.52851946967E-02  0.54839616894E-01  0.14945738805E-01  0.57087241074E-01  0.51100000000E-03 0.  1.
</event>
<event>
 8    1  0.1115874E+005  0.1043930E+01  0.7957747E-01            NaN
         13   -1    0    0    0    0  0.00000000000E+00  0.00000000000E+00  0.74505805969E-08  0.10566000000E+00  0.10566000000E+00 0.  1.
     999900   -1    0    0    0    0 -0.00000000000E+00 -0.00000000000E+00 -0.74505805969E-08  0.93827000000E+00  0.93827000000E+00 0. -1.
     999902    2    1    2    0    0 -0.21374591142E-01 -0.62972590002E-02  0.82338668720E-02  0.10201744705E+01  0.10198978503E+01 0.  0.
     999903    2    3    3    0    0  0.92453626639E-01 -0.85899797191E-01 -0.19380290103E-01  0.12885187520E+00  0.17342487218E-01 0.  0.
         14    1    1    2    0    0  0.21374591142E-01  0.62972590002E-02 -0.82338668720E-02  0.23755529484E-01  0.00000000000E+00 0. -1.
     999901    1    3    3    0    0 -0.11382821778E+00  0.79602538191E-01  0.27614156975E-01  0.89132259531E+00  0.88000000000E+00 0.  1.
        -11    1    4    4    0    0  0.63141731791E-01 -0.61521716122E-01 -0.56977618887E-02  0.88343225319E-01  0.51100000000E-03 0.  1.
         11    1    4    4    0    0  0.29311894848E-01 -0.24378081069E-01 -0.13682528214E-01  0.40508649885E-01  0.51100000000E-03 0. -1.
</event>
<event>
 8    1  0.1115874E+005  0.1043930E+01  0.7957747E-01            NaN
         13   -1    0    0    0    0  0.00000000000E+00  0.00000000000E+00  0.74505805969E-08  0.10566000000E+00  0.10566000000E+00 0.  1.
     999900   -1    0    0    0    0 -0.00000000000E+00 -0.00000000000E+00 -0.74505805969E-08  0.93827000000E+00  0.93827000000E+00 0. -1.
     999902    2    1    2    0    0  0.21636560967E-01 -0.72612884061E-02  0.40555246843E-02  0.10207499577E+01  0.10204867279E+01 0.  0.
     999903    2    3    3    0    0 -0.75081939962E-02 -0.49426038029E-01  0.12004609264E+00  0.13165992026E+00  0.20590386913E-01 0.  0.
         14    1    1    2    0    0 -0.21636560967E-01  0.72612884061E-02 -0.40555246843E-02  0.23180042283E-01  0.00000000000E+00 0. -1.
     999901    1    3    3    0    0  0.29144754963E-01  0.42164749623E-01 -0.11599056795E+00  0.88909003746E+00  0.88000000000E+00 0. -1.
        -11    1    4    4    0    0 -0.90670661835E-03 -0.20540488518E-01  0.74774381147E-01  0.77551292590E-01  0.51100000000E-03 0. -1.
         11    1    4    4    0    0 -0.66014873778E-02 -0.28885549510E-01  0.45271711489E-01  0.54108627669E-01  0.51100000000E-03 0.  1.
</event>
<event>
 8    1  0.1115874E+005  0.1043930E+01  0.7957747E-01            NaN
         13   -1    0    0    0    0  0.00000000000E+00  0.00000000000E+00  0.74505805969E-08  0.10566000000E+00  0.10566000000E+00 0. -1.
     999900   -1    0    0    0    0 -0.00000000000E+00 -0.00000000000E+00 -0.74505805969E-08  0.93827000000E+00  0.93827000000E+00 0.  1.
     999902    2    1    2    0    0 -0.53962759484E-02 -0.13665301169E-01 -0.18849062048E-01  0.10200313099E+01  0.10197513058E+01 0.  0.
     999903    2    3    3    0    0  0.10962255051E+00 -0.38208009412E-01 -0.57926736973E-01  0.13134759805E+00  0.20487291035E-01 0.  0.
         14    1    1    2    0    0  0.53962759484E-02  0.13665301169E-01  0.18849062048E-01  0.23898690137E-01  0.00000000000E+00 0. -1.
     999901    1    3    3    0    0 -0.11501882646E+00  0.24542708243E-01  0.39077674925E-01  0.88868371181E+00  0.88000000000E+00 0. -1.
        -11    1    4    4    0    0  0.61184900159E-01 -0.10508395998E-01 -0.30316002731E-01  0.69089359069E-01  0.51100000000E-03 0.  1.
         11    1    4    4    0    0  0.48437650348E-01 -0.27699613414E-01 -0.27610734242E-01  0.62258238980E-01  0.51100000000E-03 0. -1.
</event>
<event>
 8    1  0.1115874E+005  0.1043930E+01  0.7957747E-01            NaN
         13   -1    0    0    0    0  0.00000000000E+00  0.00000000000E+00  0.74505805969E-08  0.10566000000E+00  0.10566000000E+00 0. -1.
     999900   -1    0    0    0    0 -0.00000000000E+00 -0.00000000000E+00 -0.74505805969E-08  0.93827000000E+00  0.93827000000E+00 0.  1.
     999902    2    1    2    0    0  0.82989919775E-02  0.21571352130E-01 -0.60863767877E-02  0.10200293623E+01  0.10197493121E+01 0.  0.
     999903    2    3    3    0    0  0.26648917209E-01  0.84947203445E-01 -0.96625085441E-01  0.13292707053E+00  0.20174409054E-01 0.  0.
         14    1    1    2    0    0 -0.82989919775E-02 -0.21571352130E-01  0.60863767877E-02  0.23900637710E-01  0.00000000000E+00 0. -1.
     999901    1    3    3    0    0 -0.18349925232E-01 -0.63375851315E-01  0.90538708654E-01  0.88710229176E+00  0.88000000000E+00 0. -1.
        -11    1    4    4    0    0  0.82377499599E-02  0.52288166438E-01 -0.65358606373E-01  0.84106607480E-01  0.51100000000E-03 0.  1.
         11    1    4    4    0    0  0.18411167250E-01  0.32659037007E-01 -0.31266479068E-01  0.48820463046E-01  0.51100000000E-03 0. -1.
</event>
<event>
 8    1  0.1115874E+005  0.1043930E+01  0.7957747E-01            NaN
         13   -1    0    0    0    0  0.00000000000E+00  0.00000000000E+00  0.74505805969E-08  0.10566000000E+00  0.10566000000E+00 0. -1.
     999900   -1    0    0    0    0 -0.00000000000E+00 -0.00000000000E+00 -0.74505805969E-08  0.93827000000E+00  0.93827000000E+00 0. -1.
     999902    2    1    2    0    0 -0.82365324623E-02  0.21569336127E-01  0.19644014824E-02  0.10207581291E+01  0.10204950870E+01 0.  0.
     999903    2    3    3    0    0  0.59505696462E-02 -0.11098012679E+00  0.61933156128E-01  0.12870045970E+00  0.19393160592E-01 0.  0.
         14    1    1    2    0    0  0.82365324623E-02 -0.21569336127E-01 -0.19644014824E-02  0.23171870903E-01  0.00000000000E+00 0.  1.
     999901    1    3    3    0    0 -0.14187102109E-01  0.13254946292E+00 -0.59968754646E-01  0.89205766939E+00  0.88000000000E+00 0. -1.
        -11    1    4    4    0    0  0.10353887037E-01 -0.38177483731E-01  0.17193956325E-01  0.43134864042E-01  0.51100000000E-03 0.  1.
         11    1    4    4    0    0 -0.44033173911E-02 -0.72802643063E-01  0.44739199804E-01  0.85565595663E-01  0.51100000000E-03 0. -1.
</event>
<event>
 8    1  0.1115874E+005  0.1043930E+01  0.7957747E-01            NaN
         13   -1    0    0    0    0  0.00000000000E+00  0.00000000000E+00  0.74505805969E-08  0.10566000000E+00  0.10566000000E+00 0.  1.
     999900   -1    0    0    0    0 -0.00000000000E+00 -0.00000000000E+00 -0.74505805969E-08  0.93827000000E+00  0.93827000000E+00 0. -1.
     999902    2    1    2    0    0  0.21608158295E-01 -0.48695520884E-02 -0.82149655031E-02  0.10203056333E+01  0.10200320949E+01 0.  0.
     999903    2    3    3    0    0  0.10208329045E+00 -0.52720418218E-01 -0.65230878540E-01  0.13350420876E+00  0.19179821555E-01 0.  0.
         14    1    1    2    0    0 -0.21608158295E-01  0.48695520884E-02  0.82149655031E-02  0.23624366673E-01  0.00000000000E+00 0. -1.
     999901    1    3    3    0    0 -0.80475132151E-01  0.47850866129E-01  0.57015913037E-01  0.88680142457E+00  0.88000000000E+00 0.  1.
        -11    1    4    4    0    0  0.42001471452E-01 -0.32236821954E-01 -0.27636135229E-01  0.59727325281E-01  0.51100000000E-03 0. -1.
         11    1    4    4    0    0  0.60081818994E-01 -0.20483596264E-01 -0.37594743311E-01  0.73776883474E-01  0.51100000000E-03 0.  1.
</event>
<event>
 8    1  0.1115874E+005  0.1043930E+01  0.7957747E-01            NaN
         13   -1    0    0    0    0  0.00000000000E+00  0.00000000000E+00  0.74505805969E-08  0.10566000000E+00  0.10566000000E+00 0.  1.
     999900   -1    0    0    0    0 -0.00000000000E+00 -0.00000000000E+00 -0.74505805969E-08  0.93827000000E+00  0.93827000000E+00 0.  1.
     999902    2    1    2    0    0 -0.15420815423E-01  0.89606501989E-02 -0.15043106607E-01  0.10205978364E+01  0.10203311001E+01 0.  0.
     999903    2    3    3    0    0 -0.43690408128E-01  0.11344456076E+00  0.47202482736E-01  0.13178369904E+00  0.18982856160E-01 0.  0.
         14    1    1    2    0    0  0.15420815423E-01 -0.89606501989E-02  0.15043106607E-01  0.23332163566E-01  0.00000000000E+00 0.  1.
     999901    1    3    3    0    0  0.28269592705E-01 -0.10448391056E+00 -0.62245589343E-01  0.88881413739E+00  0.88000000000E+00 0.  1.
        -11    1    4    4    0    0 -0.10501345943E-01  0.20479461962E-01  0.16864008186E-02  0.23082281031E-01  0.51100000000E-03 0.  1.
         11    1    4    4    0    0 -0.33189062185E-01  0.92965098798E-01  0.45516081918E-01  0.10870141801E+00  0.51100000000E-03 0. -1.
</event>
<event>
 8    1  0.1115874E+005  0.1043930E+01  0.7957747E-01            NaN
         13   -1    0    0    0    0  0.00000000000E+00  0.00000000000E+00  0.74505805969E-08  0.10566000000E+00  0.10566000000E+00 0. -1.
     999900   -1    0    0    0    0 -0.00000000000E+00 -0.00000000000E+00 -0.74505805969E-08  0.93827000000E+00  0.93827000000E+00 0. -1.
     999902    2    1    2    0    0 -0.20907839819E-01  0.76120601565E-02 -0.91253093743E-02  0.10198810396E+01  0.10195974610E+01 0.  0.
     999903    2    3    3    0    0 -0.12806208593E+00 -0.14767525873E-01  0.23157152992E-01  0.13251131072E+00  0.20125010879E-01 0.  0.
         14    1    1    2    0    0  0.20907839819E-01 -0.76120601565E-02  0.91253093743E-02  0.24048960412E-01  0.00000000000E+00 0.  1.
     999901    1    3    3    0    0  0.10715424611E+00  0.22379586029E-01 -0.32282462366E-01  0.88736972886E+00  0.88000000000E+00 0. -1.
        -11    1    4    4    0    0 -0.38340906369E-01 -0.10072656991E-01 -0.33028121479E-03  0.39646610533E-01  0.51100000000E-03 0.  1.
         11    1    4    4    0    0 -0.89721179556E-01 -0.46948688815E-02  0.23487434206E-01  0.92864700190E-01  0.51100000000E-03 0. -1.
</event>
<event>
 8    1  0.1115874E+005  0.1043930E+01  0.7957747E-01            NaN
         13   -1    0    0    0    0  0.00000000000E+00  0.00000000000E+00  0.74505805969E-08  0.10566000000E+00  0.10566000000E+00 0.  1.
     999900   -1    0    0    0    0 -0.00000000000E+00 -0.00000000000E+00 -0.74505805969E-08  0.93827000000E+00  0.93827000000E+00 0. -1.
     999902    2    1    2    0    0  0.13235835144E-01 -0.84914000242E-03  0.19131587251E-01  0.10206506959E+01  0.10203851807E+01 0.  0.
     999903    2    3    3    0    0 -0.98872248579E-01  0.67058936007E-01 -0.44348103924E-01  0.12868130153E+00  0.17874579826E-01 0.  0.
         14    1    1    2    0    0 -0.13235835144E-01  0.84914000242E-03 -0.19131587251E-01  0.23279304145E-01  0.00000000000E+00 0. -1.
     999901    1    3    3    0    0  0.11210808372E+00 -0.67908076010E-01  0.63479691175E-01  0.89196939433E+00  0.88000000000E+00 0. -1.
        -11    1    4    4    0    0 -0.65927750900E-01  0.34914211922E-01 -0.30655249219E-01  0.80656530787E-01  0.51100000000E-03 0. -1.
         11    1    4    4    0    0 -0.32944497679E-01  0.32144724085E-01 -0.13692854704E-01  0.48024770742E-01  0.51100000000E-03 0.  1.
</event>
<event>
 8    1  0.1115874E+005  0.1043930E+01  0.7957747E-01            NaN
         13   -1    0    0    0    0  0.00000000000E+00  0.00000000000E+00  0.74505805969E-08  0.10566000000E+00  0.10566000000E+00 0.  1.
     999900   -1    0    0    0    0 -0.00000000000E+00 -0.00000000000E+00 -0.74505805969E-08  0.93827000000E+00  0.93827000000E+00 0.  1.
     999902    2    1    2    0    0 -0.37126498901E-02  0.10185452402E-01  0.20703312412E-01  0.10205600545E+01  0.10202924436E+01 0.  0.
     999903    2    3    3    0    0 -0.49051025025E-01  0.23001616215E-01 -0.11516930904E+00  0.12888680064E+00  0.20316501417E-01 0.  0.
         14    1    1    2    0    0  0.37126498901E-02 -0.10185452402E-01 -0.20703312412E-01  0.23369945543E-01  0.00000000000E+00 0. -1.
     999901    1    3    3    0    0  0.45338375135E-01 -0.12816163813E-01  0.13587262145E+00  0.89167325382E+00  0.88000000000E+00 0. -1.
        -11    1    4    4    0    0 -0.37689554418E-01  0.71750636676E-02 -0.75924300645E-01  0.85069057831E-01  0.51100000000E-03 0.  1.
         11    1    4    4    0    0 -0.11361470607E-01  0.15826552548E-01 -0.39245008394E-01  0.43817742807E-01  0.51100000000E-03 0. -1.
</event>
<event>
 8    1  0.1115874E+005  0.1043930E+01  0.7957747E-01            NaN
         13   -1    0    0    0    0  0.00000000000E+00  0.00000000000E+00  0.74505805969E-08  0.10566000000E+00  0.10566000000E+00 0. -1.
     999900   -1    0    0    0    0 -0.00000000000E+00 -0.00000000000E+00 -0.74505805969E-08  0.93827000000E+00  0.93827000000E+00 0. -1.
     999902    2    1    2    0    0  0.71998493094E-02 -0.17460208951E-01 -0.15182812271E-01  0.10196974905E+01  0.10194095142E+01 0.  0.
     999903    2    3    3    0    0  0.13005333264E-01  0.11344551263E+00  0.51580732432E-01  0.12749382405E+00  0.23560139706E-01 0.  0.
         14    1    1    2    0    0 -0.71998493094E-02  0.17460208951E-01  0.15182812271E-01  0.24232509469E-01  0.00000000000E+00 0. -1.
     999901    1    3    3    0    0 -0.58054839550E-02 -0.13090572158E+00 -0.66763544703E-01  0.89220366648E+00  0.88000000000E+00 0.  1.
        -11    1    4    4    0    0 -0.23751684755E-02  0.35177992806E-01  0.25702409731E-01  0.43634935431E-01  0.51100000000E-03 0.  1.
         11    1    4    4    0    0  0.15380501740E-01  0.78267519823E-01  0.25878322701E-01  0.83858888616E-01  0.51100000000E-03 0. -1.
</event>
<event>
 8    1  0.1115874E+005  0.1043930E+01  0.7957747E-01            NaN
         13   -1    0    0    0    0  0.00000000000E+00  0.00000000000E+00  0.74505805969E-08  0.10566000000E+00  0.10566000000E+00 0.  1.
     999900   -1    0    0    0    0 -0.00000000000E+00 -0.00000000000E+00 -0.74505805969E-08  0.93827000000E+00  0.93827000000E+00 0. -1.
     999902    2    1    2    0    0 -0.91968298011E-02  0.17103736156E-01 -0.13757424130E-01  0.10201311305E+01  0.10198534882E+01 0.  0.
     999903    2    3    3    0    0 -0.48627736982E-01  0.58184818934E-01  0.10399569882E+00  0.13046363660E+00  0.21343035034E-01 0.  0.
         14    1    1    2    0    0  0.91968298011E-02 -0.17103736156E-01  0.13757424130E-01  0.23798869460E-01  0.00000000000E+00 0.  1.
     999901    1    3    3    0    0  0.39430907181E-01 -0.41081082778E-01 -0.11775312295E+00  0.88966749394E+00  0.88000000000E+00 0. -1.
        -11    1    4    4    0    0 -0.41002228638E-01  0.44836004616E-01  0.67273503681E-01  0.90650071603E-01  0.51100000000E-03 0. -1.
         11    1    4    4    0    0 -0.76255083439E-02  0.13348814318E-01  0.36722195138E-01  0.39813565000E-01  0.51100000000E-03 0.  1.
</event>
<event>
 8    1  0.1115874E+005  0.1043930E+01  0.7957747E-01            NaN
         13   -1    0    0    0    0  0.00000000000E+00  0.00000000000E+00  0.74505805969E-08  0.10566000000E+00  0.10566000000E+00 0. -1.
     999900   -1    0    0    0    0 -0.00000000000E+00 -0.00000000000E+00 -0.74505805969E-08  0.93827000000E+00  0.93827000000E+00 0.  1.
     999902    2    1    2    0    0 -0.17689403351E-01  0.57768876060E-02 -0.10834457639E-01  0.10223969349E+01  0.10221701520E+01 0.  0.
     999903    2    3    3    0    0  0.69410579471E-01  0.81552981634E-02  0.10912727315E+00  0.12999406582E+00  0.10264403225E-01 0.  0.
         14    1    1    2    0    0  0.17689403351E-01 -0.57768876060E-02  0.10834457639E-01  0.21533065124E-01  0.00000000000E+00 0. -1.
     999901    1    3    3    0    0 -0.87099982822E-01 -0.23784105573E-02 -0.11996173079E+00  0.89240286905E+00  0.88000000000E+00 0.  1.
        -11    1    4    4    0    0  0.40651975068E-01  0.44297093962E-02  0.54413194456E-01  0.68068070739E-01  0.51100000000E-03 0. -1.
         11    1    4    4    0    0  0.28758604403E-01  0.37255887672E-02  0.54714078691E-01  0.61925995081E-01  0.51100000000E-03 0.  1.
</event>
<event>
 8    1  0.1115874E+005  0.1043930E+01  0.7957747E-01            NaN
         13   -1    0    0    0    0  0.00000000000E+00  0.00000000000E+00  0.74505805969E-08  0.10566000000E+00  0.10566000000E+00 0.  1.
     999900   -1    0    0    0    0 -0.00000000000E+00 -0.00000000000E+00 -0.74505805969E-08  0.93827000000E+00  0.93827000000E+00 0. -1.
     999902    2    1    2    0    0  0.57811157516E-02 -0.73149800185E-02 -0.25143416532E-01  0.10171135568E+01  0.10167599843E+01 0.  0.
     999903    2    3    3    0    0 -0.70483421316E-01 -0.10345396207E-01 -0.10687144128E+00  0.13003693491E+00  0.20326327213E-01 0.  0.
         14    1    1    2    0    0 -0.57811157516E-02  0.73149800185E-02  0.25143416532E-01  0.26816443219E-01  0.00000000000E+00 0.  1.
     999901    1    3    3    0    0  0.76264537068E-01  0.30304161881E-02  0.81728024745E-01  0.88707662187E+00  0.88000000000E+00 0.  1.
        -11    1    4    4    0    0 -0.64025439517E-01 -0.14934158977E-01 -0.99112614419E-01  0.11893635890E+00  0.51100000000E-03 0.  1.
         11    1    4    4    0    0 -0.64579817986E-02  0.45887627708E-02 -0.77588268575E-02  0.11100576016E-01  0.51100000000E-03 0. -1.
</event>
<event>
 8    1  0.1115874E+005  0.1043930E+01  0.7957747E-01            NaN
         13   -1    0    0    0    0  0.00000000000E+00  0.00000000000E+00  0.74505805969E-08  0.10566000000E+00  0.10566000000E+00 0.  1.
     999900   -1    0    0    0    0 -0.00000000000E+00 -0.00000000000E+00 -0.74505805969E-08  0.93827000000E+00  0.93827000000E+00 0. -1.
     999902    2    1    2    0    0 -0.50858127427E-02 -0.18770570209E-02 -0.23097252849E-01  0.10202050780E+01  0.10199291786E+01 0.  0.
     999903    2    3    3    0    0  0.42590553700E-01 -0.80280315854E-01  0.88520380282E-01  0.12842113392E+00  0.19931019379E-01 0.  0.
         14    1    1    2    0    0  0.50858127427E-02  0.18770570209E-02  0.23097252849E-01  0.23724921991E-01  0.00000000000E+00 0.  1.
     999901    1    3    3    0    0 -0.47676366443E-01  0.78403258833E-01 -0.11161763313E+00  0.89178394409E+00  0.88000000000E+00 0. -1.
        -11    1    4    4    0    0  0.27194488050E-01 -0.30270435774E-01  0.37603843498E-01  0.55408930950E-01  0.51100000000E-03 0. -1.
         11    1    4    4    0    0  0.15396065650E-01 -0.50009880080E-01  0.50916536784E-01  0.73012202968E-01  0.51100000000E-03 0.  1.
</event>
<event>
 8    1  0.1115874E+005  0.1043930E+01  0.7957747E-01            NaN
         13   -1    0    0    0    0  0.00000000000E+00  0.00000000000E+00  0.74505805969E-08  0.10566000000E+00  0.10566000000E+00 0.  1.
     999900   -1    0    0    0    0 -0.00000000000E+00 -0.00000000000E+00 -0.74505805969E-08  0.93827000000E+00  0.93827000000E+00 0.  1.
     999902    2    1    2    0    0  0.13523567997E-01  0.12154121752E-01  0.14309649929E-01  0.10207918141E+01  0.10205295449E+01 0.  0.
     999903    2    3    3    0    0 -0.88446444141E-01 -0.32271238225E-01 -0.84801249660E-01  0.12827040458E+00  0.19945888032E-01 0.  0.
         14    1    1    2    0    0 -0.13523567997E-01 -0.12154121752E-01 -0.14309649929E-01  0.23138185928E-01  0.00000000000E+00 0. -1.
     999901    1    3    3    0    0  0.10197001214E+00  0.44425359978E-01  0.99110899589E-01  0.89252140949E+00  0.88000000000E+00 0. -1.
        -11    1    4    4    0    0 -0.35298061379E-01 -0.48966283525E-02 -0.39908206616E-01  0.53505664959E-01  0.51100000000E-03 0.  1.
         11    1    4    4    0    0 -0.53148382762E-01 -0.27374609873E-01 -0.44893043044E-01  0.74764739621E-01  0.51100000000E-03 0. -1.
</event>
<event>
 8    1  0.1115874E+005  0.1043930E+01  0.7957747E-01            NaN
         13   -1    0    0    0    0  0.00000000000E+00  0.00000000000E+00  0.74505805969E-08  0.10566000000E+00  0.10566000000E+00 0. -1.
     999900   -1    0    0    0    0 -0.00000000000E+00 -0.00000000000E+00 -0.74505805969E-08  0.93827000000E+00  0.93827000000E+00 0. -1.
     999902    2    1    2    0    0  0.29686119323E-02 -0.20734073373E-01  0.94180242013E-02  0.10209645121E+01  0.10207061875E+01 0.  0.
     999903    2    3    3    0    0 -0.61823450562E-01  0.10754683221E+00  0.29655897044E-01  0.12907686580E+00  0.19821828806E-01 0.  0.
         14    1    1    2    0    0 -0.29686119323E-02  0.20734073373E-01 -0.94180242013E-02  0.22965487918E-01  0.00000000000E+00 0. -1.
     999901    1    3    3    0    0  0.64792062494E-01 -0.12828090558E+00 -0.20237872843E-01  0.89188764629E+00  0.88000000000E+00 0. -1.
        -11    1    4    4    0    0 -0.21500740938E-01  0.55991440718E-01  0.17734150283E-01  0.62546658598E-01  0.51100000000E-03 0.  1.
         11    1    4    4    0    0 -0.40322709624E-01  0.51555391490E-01  0.11921746761E-01  0.66530207199E-01  0.51100000000E-03 0. -1.
</event>
<event>
 8    1  0.1115874E+005  0.1043930E+01  0.7957747E-01            NaN
         13   -1    0    0    0    0  0.00000000000E+00  0.00000000000E+00  0.74505805969E-08  0.10566000000E+00  0.10566000000E+00 0.  1.
     999900   -1    0    0    0    0 -0.00000000000E+00 -0.00000000000E+00 -0.74505805969E-08  0.93827000000E+00  0.93827000000E+00 0. -1.
     999902    2    1    2    0    0  0.70152452163E-02 -0.67326149805E-03 -0.21082804192E-01  0.10217004796E+01  0.10214586229E+01 0.  0.
     999903    2    3    3    0    0  0.11317936773E+00 -0.66486387750E-01 -0.65024810829E-02  0.13276022604E+00  0.18787930238E-01 0.  0.
         14    1    1    2    0    0 -0.70152452163E-02  0.67326149805E-03  0.21082804192E-01  0.22229520443E-01  0.00000000000E+00 0.  1.
     999901    1    3    3    0    0 -0.10616412251E+00  0.65813126252E-01 -0.14580323109E-01  0.88894025351E+00  0.88000000000E+00 0. -1.
        -11    1    4    4    0    0  0.10259719106E+00 -0.53100938243E-01 -0.52995591795E-02  0.11564704797E+00  0.51100000000E-03 0. -1.
         11    1    4    4    0    0  0.10582176668E-01 -0.13385449508E-01 -0.12029219034E-02  0.17113178070E-01  0.51100000000E-03 0.  1.
</event>
<event>
 8    1  0.1115874E+005  0.1043930E+01  0.7957747E-01            NaN
         13   -1    0    0    0    0  0.00000000000E+00  0.00000000000E+00  0.74505805969E-08  0.10566000000E+00  0.10566000000E+00 0. -1.
     999900   -1    0    0    0    0 -0.00000000000E+00 -0.00000000000E+00 -0.74505805969E-08  0.93827000000E+00  0.93827000000E+00 0.  1.
     999902    2    1    2    0    0  0.49069681788E-02  0.21387214968E-01 -0.10218464405E-01  0.10197244569E+01  0.10194371289E+01 0.  0.
     999903    2    3    3    0    0  0.27495282215E-01 -0.86202153848E-01 -0.90166958680E-01  0.12928778543E+00  0.19961191107E-01 0.  0.
         14    1    1    2    0    0 -0.49069681788E-02 -0.21387214968E-01  0.10218464405E-01  0.24205543076E-01  0.00000000000E+00 0. -1.
     999901    1    3    3    0    0 -0.22588314037E-01  0.10758936882E+00  0.79948494274E-01  0.89043667150E+00  0.88000000000E+00 0. -1.
        -11    1    4    4    0    0  0.16995790805E-01 -0.64604923180E-01 -0.54144014220E-01  0.85991211185E-01  0.51100000000E-03 0.  1.
         11    1    4    4    0    0  0.10499491411E-01 -0.21597230669E-01 -0.36022944459E-01  0.43296574241E-01  0.51100000000E-03 0. -1.
</event>
<event>
 8    1  0.1115874E+005  0.1043930E+01  0.7957747E-01            NaN
         13   -1    0    0    0    0  0.00000000000E+00  0.00000000000E+00  0.74505805969E-08  0.10566000000E+00  0.10566000000E+00 0. -1.
     999900   -1    0    0    0    0 -0.00000000000E+00 -0.00000000000E+00 -0.74505805969E-08  0.93827000000E+00  0.93827000000E+00 0.  1.
     999902    2    1    2    0    0  0.79731740568E-02  0.25417300329E-01 -0.90857740787E-02  0.10157846282E+01  0.10153946272E+01 0.  0.
     999903    2    3    3    0    0  0.32078810510E-01  0.79315529138E-01 -0.94960172284E-01  0.12963536709E+00  0.21630784419E-01 0.  0.
         14    1    1    2    0    0 -0.79731740568E-02 -0.25417300329E-01  0.90857740787E-02  0.28145371754E-01  0.00000000000E+00 0. -1.
     999901    1    3    3    0    0 -0.24105636453E-01 -0.53898228809E-01  0.85874398205E-01  0.88614926115E+00  0.88000000000E+00 0. -1.
        -11    1    4    4    0    0  0.65215444743E-02  0.35838298593E-01 -0.28775983620E-01  0.46424482148E-01  0.51100000000E-03 0.  1.
         11    1    4    4    0    0  0.25557266036E-01  0.43477230546E-01 -0.66184188663E-01  0.83210884944E-01  0.51100000000E-03 0. -1.
</event>
<event>
 8    1  0.1115874E+005  0.1043930E+01  0.7957747E-01            NaN
         13   -1    0    0    0    0  0.00000000000E+00  0.00000000000E+00  0.74505805969E-08  0.10566000000E+00  0.10566000000E+00 0. -1.
     999900   -1    0    0    0    0 -0.00000000000E+00 -0.00000000000E+00 -0.74505805969E-08  0.93827000000E+00  0.93827000000E+00 0.  1.
     999902    2    1    2    0    0  0.57839217183E-02  0.17108650766E-01 -0.22029847605E-01  0.10154436196E+01  0.10150439748E+01 0.  0.
     999903    2    3    3    0    0  0.59989912933E-01 -0.10742789071E+00  0.31162402853E-02  0.12466869554E+00  0.19825017945E-01 0.  0.
         14    1    1    2    0    0 -0.57839217183E-02 -0.17108650766E-01  0.22029847605E-01  0.28486380377E-01  0.00000000000E+00 0. -1.
     999901    1    3    3    0    0 -0.54205991215E-01  0.12453654148E+00 -0.25146087891E-01  0.89077492409E+00  0.88000000000E+00 0. -1.
        -11    1    4    4    0    0  0.50807447697E-01 -0.75586059142E-01 -0.21930449015E-02  0.91102797130E-01  0.51100000000E-03 0. -1.
         11    1    4    4    0    0  0.91824652363E-02 -0.31841831570E-01  0.53092851868E-02  0.33565898405E-01  0.51100000000E-03 0.  1.
</event>
<event>
 8    1  0.1115874E+005  0.1043930E+01  0.7957747E-01            NaN
         13   -1    0    0    0    0  0.00000000000E+00  0.00000000000E+00  0.74505805969E-08  0.10566000000E+00  0.10566000000E+00 0.  1.
     999900   -1    0    0    0    0 -0.00000000000E+00 -0.00000000000E+00 -0.74505805969E-08  0.93827000000E+00  0.93827000000E+00 0. -1.
     999902    2    1    2    0    0 -0.23852501147E-01  0.84340610310E-02  0.32229609284E-02  0.10184258303E+01  0.10181064331E+01 0.  0.
     999903    2    3    3    0    0  0.11607023387E+00  0.16646390345E-01 -0.41981758824E-01  0.12618747601E+00  0.20283232597E-01 0.  0.
         14    1    1    2    0    0  0.23852501147E-01 -0.84340610310E-02 -0.32229609284E-02  0.25504169729E-01  0.00000000000E+00 0.  1.
     999901    1    3    3    0    0 -0.13992273502E+00 -0.82123293138E-02  0.45204719752E-01  0.89223835426E+00  0.88000000000E+00 0.  1.
        -11    1    4    4    0    0  0.75333004235E-01  0.12391400396E-01 -0.17027226897E-01  0.78222732678E-01  0.51100000000E-03 0. -1.
         11    1    4    4    0    0  0.40737229639E-01  0.42549899490E-02 -0.24954531927E-01  0.47964743331E-01  0.51100000000E-03 0.  1.
</event>
<event>
 8    1  0.1115874E+005  0.1043930E+01  0.7957747E-01            NaN
         13   -1    0    0    0    0  0.00000000000E+00  0.00000000000E+00  0.74505805969E-08  0.10566000000E+00  0.10566000000E+00 0.  1.
     999900   -1    0    0    0    0 -0.00000000000E+00 -0.00000000000E+00 -0.74505805969E-08  0.93827000000E+00  0.93827000000E+00 0. -1.
     999902    2    1    2    0    0  0.14707057783E-01 -0.17520399823E-01  0.97506454133E-02  0.10190636162E+01  0.10187601861E+01 0.  0.
     999903    2    3    3    0    0  0.12258357351E+00 -0.43720491674E-01  0.11369969279E-01  0.13208762458E+00  0.19484621580E-01 0.  0.
         14    1    1    2    0    0 -0.14707057783E-01  0.17520399823E-01 -0.97506454133E-02  0.24866383826E-01  0.00000000000E+00 0. -1.
     999901    1    3    3    0    0 -0.10787651573E+00  0.26200091850E-01 -0.16193238656E-02  0.88697599160E+00  0.88000000000E+00 0.  1.
        -11    1    4    4    0    0  0.54617834148E-01 -0.11152066540E-01  0.10427494917E-01  0.56713932736E-01  0.51100000000E-03 0.  1.
         11    1    4    4    0    0  0.67965739363E-01 -0.32568425133E-01  0.94247436158E-03  0.75373691841E-01  0.51100000000E-03 0. -1.
</event>
<event>
 8    1  0.1115874E+005  0.1043930E+01  0.7957747E-01            NaN
         13   -1    0    0    0    0  0.00000000000E+00  0.00000000000E+00  0.74505805969E-08  0.10566000000E+00  0.10566000000E+00 0. -1.
     999900   -1    0    0    0    0 -0.00000000000E+00 -0.00000000000E+00 -0.74505805969E-08  0.93827000000E+00  0.93827000000E+00 0.  1.
     999902    2    1    2    0    0  0.53175972780E-02  0.21583559031E-01 -0.64006672224E-02  0.10207978708E+01  0.10205357405E+01 0.  0.
     999903    2    3    3    0    0 -0.10269382609E+00 -0.66929388893E-01 -0.35794842581E-01  0.12930192179E+00  0.20301507499E-01 0.  0.
         14    1    1    2    0    0 -0.53175972780E-02 -0.21583559031E-01  0.64006672224E-02  0.23132129218E-01  0.00000000000E+00 0. -1.
     999901    1    3    3    0    0  0.10801142337E+00  0.88512947925E-01  0.29394175359E-01  0.89149594899E+00  0.88000000000E+00 0. -1.
        -11    1    4    4    0    0 -0.66607982445E-01 -0.48553641019E-01 -0.15017195574E-01  0.83784584892E-01  0.51100000000E-03 0.  1.
         11    1    4    4    0    0 -0.36085843650E-01 -0.18375747875E-01 -0.20777647007E-01  0.45517336895E-01  0.51100000000E-03 0. -1.
</event>
<event>
 8    1  0.1115874E+005  0.1043930E+01  0.7957747E-01            NaN
         13   -1    0    0    0    0  0.00000000000E+00  0.00000000000E+00  0.74505805969E-08  0.10566000000E+00  0.10566000000E+00 0. -1.
     999900   -1    0    0    0    0 -0.00000000000E+00 -0.00000000000E+00 -0.74505805969E-08  0.93827000000E+00  0.93827000000E+00 0.  1.
     999902    2    1    2    0    0 -0.14390978592E-01  0.16720924833E-01  0.79764651945E-02  0.10204712364E+01  0.10202015638E+01 0.  0.
     999903    2    3    3    0    0  0.30549835728E-01  0.12453544048E+00 -0.24831042020E-01  0.13214698305E+00  0.20096668469E-01 0.  0.
         14    1    1    2    0    0  0.14390978592E-01 -0.16720924833E-01 -0.79764651945E-02  0.23458763588E-01  0.00000000000E+00 0.  1.
     999901    1    3    3    0    0 -0.44940814319E-01 -0.10781451565E+00  0.32807507215E-01  0.88832425336E+00  0.88000000000E+00 0.  1.
        -11    1    4    4    0    0  0.31914859524E-01  0.96744376703E-01 -0.17473871566E-01  0.10336164661E+00  0.51100000000E-03 0.  1.
         11    1    4    4    0    0 -0.13650237968E-02  0.27791063777E-01 -0.73571704549E-02  0.28785336439E-01  0.51100000000E-03 0. -1.
</event>
<event>
 8    1  0.1115874E+005  0.1043930E+01  0.7957747E-01            NaN
         13   -1    0    0    0    0  0.00000000000E+00  0.00000000000E+00  0.74505805969E-08  0.10566000000E+00  0.10566000000E+00 0. -1.
     999900   -1    0    0    0    0 -0.00000000000E+00 -0.00000000000E+00 -0.74505805969E-08  0.93827000000E+00  0.93827000000E+00 0.  1.
     999902    2    1    2    0    0 -0.64275643921E-02 -0.20001144493E-02 -0.22385452634E-01  0.10205543175E+01  0.10202865737E+01 0.  0.
     999903    2    3    3    0    0  0.71602682617E-01  0.10557033066E+00  0.13405722619E-01  0.12985732733E+00  0.20277405870E-01 0.  0.
         14    1    1    2    0    0  0.64275643921E-02  0.20001144493E-02  0.22385452634E-01  0.23375682481E-01  0.00000000000E+00 0. -1.
     999901    1    3    3    0    0 -0.78030247009E-01 -0.10757044511E+00 -0.35791175252E-01  0.89069699019E+00  0.88000000000E+00 0.  1.
        -11    1    4    4    0    0  0.46189658289E-01  0.52784424817E-01  0.20022536887E-02  0.70170864160E-01  0.51100000000E-03 0. -1.
         11    1    4    4    0    0  0.25413024327E-01  0.52785905841E-01  0.11403468930E-01  0.59686463168E-01  0.51100000000E-03 0.  1.
</event>
<event>
 8    1  0.1115874E+005  0.1043930E+01  0.7957747E-01            NaN
         13   -1    0    0    0    0  0.00000000000E+00  0.00000000000E+00  0.74505805969E-08  0.10566000000E+00  0.10566000000E+00 0.  1.
     999900   -1    0    0    0    0 -0.00000000000E+00 -0.00000000000E+00 -0.74505805969E-08  0.93827000000E+00  0.93827000000E+00 0.  1.
     999902    2    1    2    0    0 -0.71181072000E-02  0.24424133854E-01  0.20551658096E-01  0.10112256209E+01  0.10106966310E+01 0.  0.
     999903    2    3    3    0    0 -0.51292657061E-01  0.41887870758E-01  0.10522752359E+00  0.12588592607E+00  0.19720656139E-01 0.  0.
         14    1    1    2    0    0  0.71181072000E-02 -0.24424133854E-01 -0.20551658096E-01  0.32704379143E-01  0.00000000000E+00 0. -1.
     999901    1    3    3    0    0  0.44174549861E-01 -0.17463736904E-01 -0.84675865489E-01  0.88533969478E+00  0.88000000000E+00 0.  1.
        -11    1    4    4    0    0 -0.48276372326E-01  0.38218718467E-01  0.84142469896E-01  0.10426646118E+00  0.51100000000E-03 0. -1.
         11    1    4    4    0    0 -0.30162847356E-02  0.36691522912E-02  0.21085053689E-01  0.21619464892E-01  0.51100000000E-03 0.  1.
</event>
<event>
 8    1  0.1115874E+005  0.1043930E+01  0.7957747E-01            NaN
         13   -1    0    0    0    0  0.00000000000E+00  0.00000000000E+00  0.74505805969E-08  0.10566000000E+00  0.10566000000E+00 0.  1.
     999900   -1    0    0    0    0 -0.00000000000E+00 -0.00000000000E+00 -0.74505805969E-08  0.93827000000E+00  0.93827000000E+00 0.  1.
     999902    2    1    2    0    0  0.75150197973E-02 -0.25723457342E-01 -0.92644898974E-03  0.10171152636E+01  0.10167617368E+01 0.  0.
     999903    2    3    3    0    0 -0.88265545257E-01  0.81058587662E-01  0.29209475581E-01  0.12499167591E+00  0.20209514322E-01 0.  0.
         14    1    1    2    0    0 -0.75150197973E-02  0.25723457342E-01  0.92644898974E-03  0.26814736395E-01  0.00000000000E+00 0. -1.
     999901    1    3    3    0    0  0.95780565054E-01 -0.10678204500E+00 -0.30135924570E-01  0.89212358770E+00  0.88000000000E+00 0.  1.
        -11    1    4    4    0    0 -0.38702573173E-01  0.24739595963E-01  0.52555199228E-02  0.46236548198E-01  0.51100000000E-03 0.  1.
         11    1    4    4    0    0 -0.49562972083E-01  0.56318991699E-01  0.23953955658E-01  0.78755127709E-01  0.51100000000E-03 0. -1.
</event>
<event>
 8    1  0.1115874E+005  0.1043930E+01  0.7957747E-01            NaN
         13   -1    0    0    0    0  0.00000000000E+00  0.00000000000E+00  0.74505805969E-08  0.10566000000E+00  0.10566000000E+00 0. -1.
     999900   -1    0    0    0    0 -0.00000000000E+00 -0.00000000000E+00 -0.74505805969E-08  0.93827000000E+00  0.93827000000E+00 0. -1.
     999902    2    1    2    0    0  0.15470868716E-01 -0.13073261439E-02  0.18489428823E-01  0.10197863495E+01  0.10195005065E+01 0.  0.
     999903    2    3    3    0    0  0.65240636524E-01 -0.86558816938E-02 -0.10931022764E+00  0.12913277868E+00  0.19881743375E-01 0.  0.
         14    1    1    2    0    0 -0.15470868716E-01  0.13073261439E-02 -0.18489428823E-01  0.24143650483E-01  0.00000000000E+00 0.  1.
     999901    1    3    3    0    0 -0.49769767808E-01  0.73485555499E-02  0.12779965647E+00  0.89065357084E+00  0.88000000000E+00 0.  1.
        -11    1    4    4    0    0  0.30776454802E-01 -0.56217546506E-02 -0.33728194124E-01  0.46007026587E-01  0.51100000000E-03 0. -1.
         11    1    4    4    0    0  0.34464181721E-01 -0.30341270432E-02 -0.75582033519E-01  0.83125752090E-01  0.51100000000E-03 0.  1.
</event>
<event>
 8    1  0.1115874E+005  0.1043930E+01  0.7957747E-01            NaN
         13   -1    0    0    0    0  0.00000000000E+00  0.00000000000E+00  0.74505805969E-08  0.10566000000E+00  0.10566000000E+00 0. -1.
     999900   -1    0    0    0    0 -0.00000000000E+00 -0.00000000000E+00 -0.74505805969E-08  0.93827000000E+00  0.93827000000E+00 0.  1.
     999902    2    1    2    0    0  0.13093829499E-01  0.18337493815E-01 -0.54196485269E-02  0.10207549134E+01  0.10204917974E+01 0.  0.
     999903    2    3    3    0    0  0.12666167030E+00  0.24654155081E-01 -0.26485601111E-01  0.13318444910E+00  0.19636810633E-01 0.  0.
         14    1    1    2    0    0 -0.13093829499E-01 -0.18337493815E-01  0.54196485269E-02  0.23175086634E-01  0.00000000000E+00 0. -1.
     999901    1    3    3    0    0 -0.11356784080E+00 -0.63166612655E-02  0.21065952584E-01  0.88757046426E+00  0.88000000000E+00 0.  1.
        -11    1    4    4    0    0  0.10813589380E+00  0.13745980419E-01 -0.21439855141E-01  0.11109568856E+00  0.51100000000E-03 0. -1.
         11    1    4    4    0    0  0.18525776491E-01  0.10908174661E-01 -0.50457459698E-02  0.22088760545E-01  0.51100000000E-03 0.  1.
</event>
<event>
 8    1  0.1115874E+005  0.1043930E+01  0.7957747E-01            NaN
         13   -1    0    0    0    0  0.00000000000E+00  0.00000000000E+00  0.74505805969E-08  0.10566000000E+00  0.10566000000E+00 0.  1.
     999900   -1    0    0    0    0 -0.00000000000E+00 -0.00000000000E+00 -0.74505805969E-08  0.93827000000E+00  0.93827000000E+00 0.  1.
     999902    2    1    2    0    0  0.18768803630E-01  0.67070993519E-02  0.12716225282E-01  0.10202877591E+01  0.10200138017E+01 0.  0.
     999903    2    3    3    0    0 -0.75746086248E-01  0.38463665339E-01  0.97198312124E-01  0.13063683488E+00  0.20038652999E-01 0.  0.
         14    1    1    2    0    0 -0.18768803630E-01 -0.67070993519E-02 -0.12716225282E-01  0.23642240944E-01  0.00000000000E+00 0. -1.
     999901    1    3    3    0    0  0.94514889879E-01 -0.31756565987E-01 -0.84482086842E-01  0.88965092418E+00  0.88000000000E+00 0.  1.
        -11    1    4    4    0    0 -0.60358750287E-01  0.38976490926E-01  0.78751705434E-01  0.10660411723E+00  0.51100000000E-03 0. -1.
         11    1    4    4    0    0 -0.15387335962E-01 -0.51282558741E-03  0.18446606690E-01  0.24032717646E-01  0.51100000000E-03 0.  1.
</event>
<event>
 8    1  0.1115874E+005  0.1043930E+01  0.7957747E-01            NaN
         13   -1    0    0    0    0  0.00000000000E+00  0.00000000000E+00  0.74505805969E-08  0.10566000000E+00  0.10566000000E+00 0.  1.
     999900   -1    0    0    0    0 -0.00000000000E+00 -0.00000000000E+00 -0.74505805969E-08  0.93827000000E+00  0.93827000000E+00 0.  1.
     999902    2    1    2    0    0  0.43506176163E-03 -0.47481254169E-02 -0.20298294071E-01  0.10230792275E+01  0.10228667318E+01 0.  0.
     999903    2    3    3    0    0  0.33234554617E-02  0.48600440166E-01 -0.12460094271E+00  0.13531042039E+00  0.20259980320E-01 0.  0.
         14    1    1    2    0    0 -0.43506176163E-03  0.47481254169E-02  0.20298294071E-01  0.20850772550E-01  0.00000000000E+00 0.  1.
     999901    1    3    3    0    0 -0.28883937000E-02 -0.53348565583E-01  0.10430264864E+00  0.88776880706E+00  0.88000000000E+00 0. -1.
        -11    1    4    4    0    0 -0.18265361255E-02  0.15188236678E-01 -0.18825762122E-01  0.24262918375E-01  0.51100000000E-03 0. -1.
         11    1    4    4    0    0  0.51499915872E-02  0.33412203488E-01 -0.10577518059E+00  0.11104750202E+00  0.51100000000E-03 0.  1.
</event>
<event>
 8    1  0.1115874E+005  0.1043930E+01  0.7957747E-01            NaN
         13   -1    0    0    0    0  0.00000000000E+00  0.00000000000E+00  0.74505805969E-08  0.10566000000E+00  0.10566000000E+00 0. -1.
     999900   -1    0    0    0    0 -0.00000000000E+00 -0.00000000000E+00 -0.74505805969E-08  0.93827000000E+00  0.93827000000E+00 0. -1.
     999902    2    1    2    0    0 -0.20029206698E-01 -0.50581245251E-02  0.65872015582E-02  0.10222471734E+01  0.10220171909E+01 0.  0.
     999903    2    3    3    0    0  0.12767555002E+00 -0.85345379594E-02  0.10638150078E-01  0.12992145328E+00  0.19812354092E-01 0.  0.
         14    1    1    2    0    0  0.20029206698E-01  0.50581245251E-02 -0.65872015582E-02  0.21682826592E-01  0.00000000000E+00 0.  1.
     999901    1    3    3    0    0 -0.14770475672E+00  0.34764134343E-02 -0.40509485201E-02  0.89232572012E+00  0.88000000000E+00 0. -1.
        -11    1    4    4    0    0  0.52236090485E-01 -0.11566092740E-01 -0.10849170298E-02  0.53514687857E-01  0.51100000000E-03 0. -1.
         11    1    4    4    0    0  0.75439459538E-01  0.30315547803E-02  0.11723067108E-01  0.76406765428E-01  0.51100000000E-03 0.  1.
</event>
<event>
 8    1  0.1115874E+005  0.1043930E+01  0.7957747E-01            NaN
         13   -1    0    0    0    0  0.00000000000E+00  0.00000000000E+00  0.74505805969E-08  0.10566000000E+00  0.10566000000E+00 0. -1.
     999900   -1    0    0    0    0 -0.00000000000E+00 -0.00000000000E+00 -0.74505805969E-08  0.93827000000E+00  0.93827000000E+00 0. -1.
     999902    2    1    2    0    0  0.59636974868E-03 -0.25610335256E-01 -0.18615891938E-02  0.10182451710E+01  0.10179211746E+01 0.  0.
     999903    2    3    3    0    0  0.70651079333E-01 -0.43423055592E-01 -0.98183163461E-01  0.13004316633E+00  0.19853331085E-01 0.  0.
         14    1    1    2    0    0 -0.59636974868E-03  0.25610335256E-01  0.18615891938E-02  0.25684829046E-01  0.00000000000E+00 0. -1.
     999901    1    3    3    0    0 -0.70054709584E-01  0.17812720336E-01  0.96321574267E-01  0.88820200462E+00  0.88000000000E+00 0.  1.
        -11    1    4    4    0    0  0.38287392689E-02 -0.52598425616E-02 -0.16873580198E-01  0.18091545481E-01  0.51100000000E-03 0. -1.
         11    1    4    4    0    0  0.66822340064E-01 -0.38163213031E-01 -0.81309583263E-01  0.11195162085E+00  0.51100000000E-03 0.  1.
</event>
<event>
 8    1  0.1115874E+005  0.1043930E+01  0.7957747E-01            NaN
         13   -1    0    0    0    0  0.00000000000E+00  0.00000000000E+00  0.74505805969E-08  0.10566000000E+00  0.10566000000E+00 0. -1.
     999900   -1    0    0    0    0 -0.00000000000E+00 -0.00000000000E+00 -0.74505805969E-08  0.93827000000E+00  0.93827000000E+00 0. -1.
     999902    2    1    2    0    0 -0.16830896908E-01 -0.23199343740E-02 -0.15378191862E-01  0.10210138491E+01  0.10207566459E+01 0.  0.
     999903    2    3    3    0    0  0.81160068526E-02 -0.81257522888E-01 -0.10278350985E+00  0.13281726024E+00  0.20182173488E-01 0.  0.
         14    1    1    2    0    0  0.16830896908E-01  0.23199343740E-02  0.15378191862E-01  0.22916150881E-01  0.00000000000E+00 0.  1.
     999901    1    3    3    0    0 -0.24946903761E-01  0.78937588514E-01  0.87405317989E-01  0.88819658888E+00  0.88000000000E+00 0.  1.
        -11    1    4    4    0    0  0.14686960831E-01 -0.55019133808E-01 -0.72907512742E-01  0.92512585299E-01  0.51100000000E-03 0.  1.
         11    1    4    4    0    0 -0.65709539783E-02 -0.26238389080E-01 -0.29875997109E-01  0.40304674939E-01  0.51100000000E-03 0. -1.
</event>
<event>
 8    1  0.1115874E+005  0.1043930E+01  0.7957747E-01            NaN
         13   -1    0    0    0    0  0.00000000000E+00  0.00000000000E+00  0.74505805969E-08  0.10566000000E+00  0.10566000000E+00 0. -1.
     999900   -1    0    0    0    0 -0.00000000000E+00 -0.00000000000E+00 -0.74505805969E-08  0.93827000000E+00  0.93827000000E+00 0.  1.
     999902    2    1    2    0    0  0.14439510871E-01 -0.16652901500E-01 -0.13079658091E-01  0.10183000164E+01  0.10179774199E+01 0.  0.
     999903    2    3    3    0    0  0.10097560782E+00 -0.51952977949E-01  0.60648552685E-01  0.13028512885E+00  0.20019554572E-01 0.  0.
         14    1    1    2    0    0 -0.14439510871E-01  0.16652901500E-01  0.13079658091E-01  0.25629983581E-01  0.00000000000E+00 0. -1.
     999901    1    3    3    0    0 -0.86536096950E-01  0.35300076449E-01 -0.73728210775E-01  0.88801488756E+00  0.88000000000E+00 0.  1.
        -11    1    4    4    0    0  0.69107078148E-01 -0.37875388341E-01  0.31545188831E-01  0.84886355509E-01  0.51100000000E-03 0.  1.
         11    1    4    4    0    0  0.31868529673E-01 -0.14077589607E-01  0.29103363854E-01  0.45398773346E-01  0.51100000000E-03 0. -1.
</event>
<event>
 8    1  0.1115874E+005  0.1043930E+01  0.7957747E-01            NaN
         13   -1    0    0    0    0  0.00000000000E+00  0.00000000000E+00  0.74505805969E-08  0.10566000000E+00  0.10566000000E+00 0. -1.
     999900   -1    0    0    0    0 -0.00000000000E+00 -0.00000000000E+00 -0.74505805969E-08  0.93827000000E+00  0.93827000000E+00 0.  1.
     999902    2    1    2    0    0 -0.75845459275E-02 -0.59902948475E-02 -0.18930053925E-01  0.10226754496E+01  0.10224545561E+01 0.  0.
     999903    2    3    3    0    0 -0.66021446628E-01  0.10552138291E+00 -0.43413790811E-01  0.13337843570E+00  0.20284383421E-01 0.  0.
         14    1    1    2    0    0  0.75845459275E-02  0.59902948475E-02  0.18930053925E-01  0.21254550358E-01  0.00000000000E+00 0. -1.
     999901    1    3    3    0    0  0.58436900700E-01 -0.11151167776E+00  0.24483736885E-01  0.88929701394E+00  0.88000000000E+00 0. -1.
        -11    1    4    4    0    0 -0.45111681947E-01  0.70246574981E-01 -0.18892928466E-01  0.85597015203E-01  0.51100000000E-03 0. -1.
         11    1    4    4    0    0 -0.20909764681E-01  0.35274807928E-01 -0.24520862345E-01  0.47781420494E-01  0.51100000000E-03 0.  1.
</event>
<event>
 8    1  0.1115874E+005  0.1043930E+01  0.7957747E-01            NaN
         13   -1    0    0    0    0  0.00000000000E+00  0.00000000000E+00  0.74505805969E-08  0.10566000000E+00  0.10566000000E+00 0. -1.
     999900   -1    0    0    0    0 -0.00000000000E+00 -0.00000000000E+00 -0.74505805969E-08  0.93827000000E+00  0.93827000000E+00 0. -1.
     999902    2    1    2    0    0  0.23561701004E-01  0.56110624683E-03  0.49560147697E-02  0.10198461740E+01  0.10195617627E+01 0.  0.
     999903    2    3    3    0    0  0.29427985150E-01 -0.12387776013E+00  0.21750794012E-01  0.13091338158E+00  0.21295790026E-01 0.  0.
         14    1    1    2    0    0 -0.23561701004E-01 -0.56110624683E-03 -0.49560147697E-02  0.24083826042E-01  0.00000000000E+00 0.  1.
     999901    1    3    3    0    0 -0.58662841463E-02  0.12443886637E+00 -0.16794779242E-01  0.88893279238E+00  0.88000000000E+00 0. -1.
        -11    1    4    4    0    0  0.19256736052E-01 -0.94317183098E-01  0.75086225865E-02  0.96556685139E-01  0.51100000000E-03 0. -1.
         11    1    4    4    0    0  0.10171249098E-01 -0.29560577029E-01  0.14242171426E-01  0.34356696442E-01  0.51100000000E-03 0.  1.
</event>
<event>
 8    1  0.1115874E+005  0.1043930E+01  0.7957747E-01            NaN
         13   -1    0    0    0    0  0.00000000000E+00  0.00000000000E+00  0.74505805969E-08  0.10566000000E+00  0.10566000000E+00 0. -1.
     999900   -1    0    0    0    0 -0.00000000000E+00 -0.00000000000E+00 -0.74505805969E-08  0.93827000000E+00  0.93827000000E+00 0.  1.
     999902    2    1    2    0    0 -0.42161845677E-02 -0.14387531869E-01 -0.18709443474E-01  0.10199545842E+01  0.10196727580E+01 0.  0.
     999903    2    3    3    0    0  0.60933410719E-01 -0.14587309560E-01  0.11015802085E+00  0.12818592981E+00  0.19265848048E-01 0.  0.
         14    1    1    2    0    0  0.42161845677E-02  0.14387531869E-01  0.18709443474E-01  0.23975415757E-01  0.00000000000E+00 0. -1.
     999901    1    3    3    0    0 -0.65149595287E-01  0.19977769051E-03 -0.12886746432E+00  0.89176865444E+00  0.88000000000E+00 0.  1.
        -11    1    4    4    0    0  0.36638586468E-01 -0.73470411005E-03  0.72927931698E-01  0.81619055074E-01  0.51100000000E-03 0. -1.
         11    1    4    4    0    0  0.24294824251E-01 -0.13852605450E-01  0.37230089149E-01  0.46566874731E-01  0.51100000000E-03 0.  1.
</event>
<event>
 8    1  0.1115874E+005  0.1043930E+01  0.7957747E-01            NaN
         13   -1    0    0    0    0  0.00000000000E+00  0.00000000000E+00  0.74505805969E-08  0.10566000000E+00  0.10566000000E+00 0. -1.
     999900   -1    0    0    0    0 -0.00000000000E+00 -0.00000000000E+00 -0.74505805969E-08  0.93827000000E+00  0.93827000000E+00 0. -1.
     999902    2    1    2    0    0 -0.21911421572E-01 -0.60935913374E-02 -0.43845589194E-02  0.10207682512E+01  0.10205054415E+01 0.  0.
     999903    2    3    3    0    0 -0.19549092589E-02  0.50633293300E-01  0.11826798223E+00  0.13022917419E+00  0.20118899820E-01 0.  0.
         14    1    1    2    0    0  0.21911421572E-01  0.60935913374E-02  0.43845589194E-02  0.23161748803E-01  0.00000000000E+00 0.  1.
     999901    1    3    3    0    0 -0.19956512313E-01 -0.56726884637E-01 -0.12265254115E+00  0.89053907701E+00  0.88000000000E+00 0. -1.
        -11    1    4    4    0    0  0.83851270053E-02  0.30390778281E-01  0.62453487501E-01  0.69961482127E-01  0.51100000000E-03 0. -1.
         11    1    4    4    0    0 -0.10340036264E-01  0.20242515019E-01  0.55814494726E-01  0.60267692064E-01  0.51100000000E-03 0.  1.
</event>
<event>
 8    1  0.1115874E+005  0.1043930E+01  0.7957747E-01            NaN
         13   -1    0    0    0    0  0.00000000000E+00  0.00000000000E+00  0.74505805969E-08  0.10566000000E+00  0.10566000000E+00 0.  1.
     999900   -1    0    0    0    0 -0.00000000000E+00 -0.00000000000E+00 -0.74505805969E-08  0.93827000000E+00  0.93827000000E+00 0. -1.
     999902    2    1    2    0    0 -0.12652035961E-01 -0.24601839602E-02  0.35742232959E-01  0.10059348196E+01  0.10052170052E+01 0.  0.
     999903    2    3    3    0    0 -0.63306764770E-01  0.75774024240E-01  0.66729145670E-01  0.12047071434E+00  0.17634197387E-01 0.  0.
         14    1    1    2    0    0  0.12652035961E-01  0.24601839602E-02 -0.35742232959E-01  0.37995180431E-01  0.00000000000E+00 0. -1.
     999901    1    3    3    0    0  0.50654728809E-01 -0.78234208200E-01 -0.30986912711E-01  0.88546410523E+00  0.88000000000E+00 0. -1.
        -11    1    4    4    0    0 -0.60233886358E-01  0.70974803941E-01  0.67075755171E-01  0.11473866791E+00  0.51100000000E-03 0.  1.
         11    1    4    4    0    0 -0.30728784114E-02  0.47992202995E-02 -0.34660950044E-03  0.57320464374E-02  0.51100000000E-03 0. -1.
</event>
<event>
 8    1  0.1115874E+005  0.1043930E+01  0.7957747E-01            NaN
         13   -1    0    0    0    0  0.00000000000E+00  0.00000000000E+00  0.74505805969E-08  0.10566000000E+00  0.10566000000E+00 0.  1.
     999900   -1    0    0    0    0 -0.00000000000E+00 -0.00000000000E+00 -0.74505805969E-08  0.93827000000E+00  0.93827000000E+00 0. -1.
     999902    2    1    2    0    0 -0.10209718868E-01 -0.18193416206E-01  0.13431825407E-01  0.10191176505E+01  0.10188155539E+01 0.  0.
     999903    2    3    3    0    0  0.11817848950E+00  0.16515466001E-01  0.44627788875E-01  0.12857768697E+00  0.17368536198E-01 0.  0.
         14    1    1    2    0    0  0.10209718868E-01  0.18193416206E-01 -0.13431825407E-01  0.24812349473E-01  0.00000000000E+00 0.  1.
     999901    1    3    3    0    0 -0.12838820837E+00 -0.34708882207E-01 -0.31195963468E-01  0.89053996356E+00  0.88000000000E+00 0. -1.
        -11    1    4    4    0    0  0.55266707302E-01  0.16448839620E-01  0.21961480399E-01  0.61705275327E-01  0.51100000000E-03 0.  1.
         11    1    4    4    0    0  0.62911782197E-01  0.66626381084E-04  0.22666308475E-01  0.66872411645E-01  0.51100000000E-03 0. -1.
</event>
<event>
 8    1  0.1115874E+005  0.1043930E+01  0.7957747E-01            NaN
         13   -1    0    0    0    0  0.00000000000E+00  0.00000000000E+00  0.74505805969E-08  0.10566000000E+00  0.10566000000E+00 0. -1.
     999900   -1    0    0    0    0 -0.00000000000E+00 -0.00000000000E+00 -0.74505805969E-08  0.93827000000E+00  0.93827000000E+00 0. -1.
     999902    2    1    2    0    0 -0.68304011343E-02 -0.48028619571E-02  0.22561375940E-01  0.10198730354E+01  0.10195892657E+01 0.  0.
     999903    2    3    3    0    0 -0.13242580839E-01 -0.12753222997E+00  0.21162367087E-01  0.13133177519E+00  0.18982986239E-01 0.  0.
         14    1    1    2    0    0  0.68304011343E-02  0.48028619571E-02 -0.22561375940E-01  0.24056964624E-01  0.00000000000E+00 0.  1.
     999901    1    3    3    0    0  0.64121797046E-02  0.12272936801E+00  0.13990088534E-02  0.88854126018E+00  0.88000000000E+00 0.  1.
        -11    1    4    4    0    0 -0.86457327996E-02 -0.10414262229E+00  0.24281745348E-01  0.10728606038E+00  0.51100000000E-03 0. -1.
         11    1    4    4    0    0 -0.45968480393E-02 -0.23389607679E-01 -0.31193782618E-02  0.24045714816E-01  0.51100000000E-03 0.  1.
</event>
<event>
 8    1  0.1115874E+005  0.1043930E+01  0.7957747E-01            NaN
         13   -1    0    0    0    0  0.00000000000E+00  0.00000000000E+00  0.74505805969E-08  0.10566000000E+00  0.10566000000E+00 0. -1.
     999900   -1    0    0    0    0 -0.00000000000E+00 -0.00000000000E+00 -0.74505805969E-08  0.93827000000E+00  0.93827000000E+00 0.  1.
     999902    2    1    2    0    0  0.45805940652E-02  0.15524411344E-01 -0.16566457703E-01  0.10207688966E+01  0.10205061017E+01 0.  0.
     999903    2    3    3    0    0  0.68782717379E-01 -0.10257871462E+00 -0.36782006674E-01  0.13033140334E+00  0.19491120452E-01 0.  0.
         14    1    1    2    0    0 -0.45805940652E-02 -0.15524411344E-01  0.16566457703E-01  0.23161103394E-01  0.00000000000E+00 0. -1.
     999901    1    3    3    0    0 -0.64202123314E-01  0.11810312597E+00  0.20215548971E-01  0.89043749327E+00  0.88000000000E+00 0. -1.
        -11    1    4    4    0    0  0.29357821126E-01 -0.31593832521E-01 -0.19391778602E-01  0.47290105867E-01  0.51100000000E-03 0.  1.
         11    1    4    4    0    0  0.39424896254E-01 -0.70984882104E-01 -0.17390228072E-01  0.83041297469E-01  0.51100000000E-03 0. -1.
</event>
<event>
 8    1  0.1115874E+005  0.1043930E+01  0.7957747E-01            NaN
         13   -1    0    0    0    0  0.00000000000E+00  0.00000000000E+00  0.74505805969E-08  0.10566000000E+00  0.10566000000E+00 0. -1.
     999900   -1    0    0    0    0 -0.00000000000E+00 -0.00000000000E+00 -0.74505805969E-08  0.93827000000E+00  0.93827000000E+00 0.  1.
     999902    2    1    2    0    0 -0.12930822482E-01  0.10830199155E-01 -0.16701457520E-01  0.10201931496E+01  0.10199169694E+01 0.  0.
     999903    2    3    3    0    0 -0.81702192479E-01  0.50581695127E-01  0.86395575568E-01  0.13062095972E+00  0.19075730747E-01 0.  0.
         14    1    1    2    0    0  0.12930822482E-01 -0.10830199155E-01  0.16701457520E-01  0.23736850404E-01  0.00000000000E+00 0.  1.
     999901    1    3    3    0    0  0.68771369998E-01 -0.39751495971E-01 -0.10309703309E+00  0.88957218987E+00  0.88000000000E+00 0.  1.
        -11    1    4    4    0    0 -0.50644213697E-01  0.20452558081E-01  0.45690603172E-01  0.71211205946E-01  0.51100000000E-03 0. -1.
         11    1    4    4    0    0 -0.31057978782E-01  0.30129137046E-01  0.40704972396E-01  0.59409753778E-01  0.51100000000E-03 0.  1.
</event>
<event>
 8    1  0.1115874E+005  0.1043930E+01  0.7957747E-01            NaN
         13   -1    0    0    0    0  0.00000000000E+00  0.00000000000E+00  0.74505805969E-08  0.10566000000E+00  0.10566000000E+00 0. -1.
     999900   -1    0    0    0    0 -0.00000000000E+00 -0.00000000000E+00 -0.74505805969E-08  0.93827000000E+00  0.93827000000E+00 0.  1.
     999902    2    1    2    0    0  0.10710347511E-01  0.84893646142E-02  0.19389152438E-01  0.10202082781E+01  0.10199324540E+01 0.  0.
     999903    2    3    3    0    0  0.84426151925E-01  0.92965598923E-01  0.38602370972E-01  0.13288680216E+00  0.19959494775E-01 0.  0.
         14    1    1    2    0    0 -0.10710347511E-01 -0.84893646142E-02 -0.19389152438E-01  0.23721721852E-01  0.00000000000E+00 0.  1.
     999901    1    3    3    0    0 -0.73715804414E-01 -0.84476234309E-01 -0.19213218534E-01  0.88732147599E+00  0.88000000000E+00 0.  1.
        -11    1    4    4    0    0  0.51852298201E-01  0.42929657519E-01  0.23457575681E-01  0.71289096650E-01  0.51100000000E-03 0.  1.
         11    1    4    4    0    0  0.32573853724E-01  0.50035941404E-01  0.15144795291E-01  0.61597705509E-01  0.51100000000E-03 0. -1.
</event>
<event>
 8    1  0.1115874E+005  0.1043930E+01  0.7957747E-01            NaN
         13   -1    0    0    0    0  0.00000000000E+00  0.00000000000E+00  0.74505805969E-08  0.10566000000E+00  0.10566000000E+00 0.  1.
     999900   -1    0    0    0    0 -0.00000000000E+00 -0.00000000000E+00 -0.74505805969E-08  0.93827000000E+00  0.93827000000E+00 0.  1.
     999902    2    1    2    0    0  0.89611233646E-02 -0.81658944542E-02 -0.21084598704E-01  0.10196083252E+01  0.10193182000E+01 0.  0.
     999903    2    3    3    0    0 -0.10538778352E+00  0.11471742706E-01  0.67949606605E-01  0.12753859750E+00  0.20267190706E-01 0.  0.
         14    1    1    2    0    0 -0.89611233646E-02  0.81658944542E-02  0.21084598704E-01  0.24321674833E-01  0.00000000000E+00 0.  1.
     999901    1    3    3    0    0  0.11434890689E+00 -0.19637637160E-01 -0.89034205309E-01  0.89206972766E+00  0.88000000000E+00 0.  1.
        -11    1    4    4    0    0 -0.47057301316E-01 -0.39478659244E-02  0.24635101212E-01  0.53264665448E-01  0.51100000000E-03 0.  1.
         11    1    4    4    0    0 -0.58330482204E-01  0.15419608630E-01  0.43314505393E-01  0.74273932055E-01  0.51100000000E-03 0. -1.
</event>
<event>
 8    1  0.1115874E+005  0.1043930E+01  0.7957747E-01            NaN
         13   -1    0    0    0    0  0.00000000000E+00  0.00000000000E+00  0.74505805969E-08  0.10566000000E+00  0.10566000000E+00 0.  1.
     999900   -1    0    0    0    0 -0.00000000000E+00 -0.00000000000E+00 -0.74505805969E-08  0.93827000000E+00  0.93827000000E+00 0.  1.
     999902    2    1    2    0    0  0.54824767103E-02 -0.90344225554E-02  0.20148522121E-01  0.10211782685E+01  0.10209247841E+01 0.  0.
     999903    2    3    3    0    0 -0.11424508002E+00  0.28536332321E-01 -0.50228032888E-01  0.12949496770E+00  0.19489248350E-01 0.  0.
         14    1    1    2    0    0 -0.54824767103E-02  0.90344225554E-02 -0.20148522121E-01  0.22751731483E-01  0.00000000000E+00 0. -1.
     999901    1    3    3    0    0  0.11972755673E+00 -0.37570754877E-01  0.70376555010E-01  0.89168330082E+00  0.88000000000E+00 0. -1.
        -11    1    4    4    0    0 -0.82192843488E-01  0.12415972987E-01 -0.39567771882E-01  0.92063508507E-01  0.51100000000E-03 0. -1.
         11    1    4    4    0    0 -0.32052236529E-01  0.16120359335E-01 -0.10660261006E-01  0.37431459193E-01  0.51100000000E-03 0.  1.
</event>
<event>
 8    1  0.1115874E+005  0.1043930E+01  0.7957747E-01            NaN
         13   -1    0    0    0    0  0.00000000000E+00  0.00000000000E+00  0.74505805969E-08  0.10566000000E+00  0.10566000000E+00 0.  1.
     999900   -1    0    0    0    0 -0.00000000000E+00 -0.00000000000E+00 -0.74505805969E-08  0.93827000000E+00  0.93827000000E+00 0.  1.
     999902    2    1    2    0    0  0.14248702572E-01  0.21917798779E-02 -0.18768111418E-01  0.10202641717E+01  0.10199896610E+01 0.  0.
     999903    2    3    3    0    0  0.51011865192E-01  0.97552140063E-01 -0.71533289115E-01  0.13277935919E+00  0.19867469736E-01 0.  0.
         14    1    1    2    0    0 -0.14248702572E-01 -0.21917798779E-02  0.18768111418E-01  0.23665828323E-01  0.00000000000E+00 0.  1.
     999901    1    3    3    0    0 -0.36763162620E-01 -0.95360360185E-01  0.52765177697E-01  0.88748481249E+00  0.88000000000E+00 0. -1.
        -11    1    4    4    0    0  0.34515469381E-01  0.72962889817E-01 -0.61622356473E-01  0.10155036610E+00  0.51100000000E-03 0.  1.
         11    1    4    4    0    0  0.16496395811E-01  0.24589250246E-01 -0.99109326419E-02  0.31228993087E-01  0.51100000000E-03 0. -1.
</event>
<event>
 8    1  0.1115874E+005  0.1043930E+01  0.7957747E-01            NaN
         13   -1    0    0    0    0  0.00000000000E+00  0.00000000000E+00  0.74505805969E-08  0.10566000000E+00  0.10566000000E+00 0.  1.
     999900   -1    0    0    0    0 -0.00000000000E+00 -0.00000000000E+00 -0.74505805969E-08  0.93827000000E+00  0.93827000000E+00 0. -1.
     999902    2    1    2    0    0  0.11677732738E-02 -0.22895627639E-01  0.53792299518E-02  0.10203819730E+01  0.10201102202E+01 0.  0.
     999903    2    3    3    0    0  0.65439309394E-01 -0.88936500417E-01  0.69774717576E-01  0.13322978425E+00  0.26261376148E-01 0.  0.
         14    1    1    2    0    0 -0.11677732738E-02  0.22895627639E-01 -0.53792299518E-02  0.23548026972E-01  0.00000000000E+00 0.  1.
     999901    1    3    3    0    0 -0.64271536121E-01  0.66040872778E-01 -0.64395487625E-01  0.88715218878E+00  0.88000000000E+00 0. -1.
        -11    1    4    4    0    0  0.26171373850E-01 -0.44198488888E-01  0.18296486443E-01  0.54529531139E-01  0.51100000000E-03 0. -1.
         11    1    4    4    0    0  0.39267935544E-01 -0.44738011529E-01  0.51478231134E-01  0.78700253107E-01  0.51100000000E-03 0.  1.
</event>
<event>
 8    1  0.1115874E+005  0.1043930E+01  0.7957747E-01            NaN
         13   -1    0    0    0    0  0.00000000000E+00  0.00000000000E+00  0.74505805969E-08  0.10566000000E+00  0.10566000000E+00 0. -1.
     999900   -1    0    0    0    0 -0.00000000000E+00 -0.00000000000E+00 -0.74505805969E-08  0.93827000000E+00  0.93827000000E+00 0.  1.
     999902    2    1    2    0    0 -0.21214777441E-01 -0.63390502528E-02  0.81093480998E-02  0.10203500961E+01  0.10200775984E+01 0.  0.
     999903    2    3    3    0    0  0.21156580004E-01 -0.10862598578E+00  0.68091120679E-01  0.13138678859E+00  0.19464887282E-01 0.  0.
         14    1    1    2    0    0  0.21214777441E-01  0.63390502528E-02 -0.81093480998E-02  0.23579903872E-01  0.00000000000E+00 0.  1.
     999901    1    3    3    0    0 -0.42371357445E-01  0.10228693552E+00 -0.59981772579E-01  0.88896330754E+00  0.88000000000E+00 0.  1.
        -11    1    4    4    0    0  0.83800259446E-02 -0.29630429992E-01  0.29095366454E-01  0.42367306811E-01  0.51100000000E-03 0.  1.
         11    1    4    4    0    0  0.12776554059E-01 -0.78995555784E-01  0.38995754225E-01  0.89019481777E-01  0.51100000000E-03 0. -1.
</event>
<event>
 8    1  0.1115874E+005  0.1043930E+01  0.7957747E-01            NaN
         13   -1    0    0    0    0  0.00000000000E+00  0.00000000000E+00  0.74505805969E-08  0.10566000000E+00  0.10566000000E+00 0. -1.
     999900   -1    0    0    0    0 -0.00000000000E+00 -0.00000000000E+00 -0.74505805969E-08  0.93827000000E+00  0.93827000000E+00 0.  1.
     999902    2    1    2    0    0 -0.16881301079E-01 -0.15993787440E-01 -0.78562200306E-02  0.10193841296E+01  0.10190885653E+01 0.  0.
     999903    2    3    3    0    0  0.40223274641E-02 -0.40107006159E-01  0.12120158435E+00  0.12939855334E+00  0.20722222235E-01 0.  0.
         14    1    1    2    0    0  0.16881301079E-01  0.15993787440E-01  0.78562200306E-02  0.24545870446E-01  0.00000000000E+00 0. -1.
     999901    1    3    3    0    0 -0.20903628543E-01  0.24113218718E-01 -0.12905780438E+00  0.88998557622E+00  0.88000000000E+00 0.  1.
        -11    1    4    4    0    0 -0.79219217593E-02 -0.22748826085E-01  0.69902611400E-01  0.73938502380E-01  0.51100000000E-03 0. -1.
         11    1    4    4    0    0  0.11944249223E-01 -0.17358180073E-01  0.51298972954E-01  0.55460050956E-01  0.51100000000E-03 0.  1.
</event>
<event>
 8    1  0.1115874E+005  0.1043930E+01  0.7957747E-01            NaN
         13   -1    0    0    0    0  0.00000000000E+00  0.00000000000E+00  0.74505805969E-08  0.10566000000E+00  0.10566000000E+00 0. -1.
     999900   -1    0    0    0    0 -0.00000000000E+00 -0.00000000000E+00 -0.74505805969E-08  0.93827000000E+00  0.93827000000E+00 0. -1.
     999902    2    1    2    0    0  0.32115394337E-02  0.17226028977E-01 -0.15661123848E-01  0.10204284924E+01  0.10201578247E+01 0.  0.
     999903    2    3    3    0    0  0.11905204189E+00  0.25443234312E-01 -0.47649317512E-01  0.13222255399E+00  0.19788872483E-01 0.  0.
         14    1    1    2    0    0 -0.32115394337E-02 -0.17226028977E-01  0.15661123848E-01  0.23501507612E-01  0.00000000000E+00 0.  1.
     999901    1    3    3    0    0 -0.11584050245E+00 -0.82172053354E-02  0.31988193665E-01  0.88820593840E+00  0.88000000000E+00 0. -1.
        -11    1    4    4    0    0  0.20719288225E-01 -0.30195391572E-02 -0.90669822124E-02  0.22822747616E-01  0.51100000000E-03 0. -1.
         11    1    4    4    0    0  0.98332753663E-01  0.28462773470E-01 -0.38582335300E-01  0.10939980637E+00  0.51100000000E-03 0.  1.
</event>
<event>
 8    1  0.1115874E+005  0.1043930E+01  0.7957747E-01            NaN
         13   -1    0    0    0    0  0.00000000000E+00  0.00000000000E+00  0.74505805969E-08  0.10566000000E+00  0.10566000000E+00 0.  1.
     999900   -1    0    0    0    0 -0.00000000000E+00 -0.00000000000E+00 -0.74505805969E-08  0.93827000000E+00  0.93827000000E+00 0. -1.
     999902    2    1    2    0    0 -0.17473856602E-01 -0.69193651781E-02 -0.10648437827E-01  0.10223290161E+01  0.10221007849E+01 0.  0.
     999903    2    3    3    0    0 -0.52721870036E-01  0.91935570079E-01  0.75772791914E-01  0.13188904075E+00  0.20529453236E-01 0.  0.
         14    1    1    2    0    0  0.17473856602E-01  0.69193651781E-02  0.10648437827E-01  0.21600983940E-01  0.00000000000E+00 0.  1.
     999901    1    3    3    0    0  0.35248013434E-01 -0.98854935257E-01 -0.86421229741E-01  0.89043997531E+00  0.88000000000E+00 0.  1.
        -11    1    4    4    0    0 -0.48655211024E-01  0.82870071335E-01  0.75015476789E-01  0.12191128398E+00  0.51100000000E-03 0.  1.
         11    1    4    4    0    0 -0.40666590115E-02  0.90654987441E-02  0.75731512552E-03  0.99777567717E-02  0.51100000000E-03 0. -1.
</event>
<event>
 8    1  0.1115874E+005  0.1043930E+01  0.7957747E-01            NaN
         13   -1    0    0    0    0  0.00000000000E+00  0.00000000000E+00  0.74505805969E-08  0.10566000000E+00  0.10566000000E+00 0. -1.
     999900   -1    0    0    0    0 -0.00000000000E+00 -0.00000000000E+00 -0.74505805969E-08  0.93827000000E+00  0.93827000000E+00 0.  1.
     999902    2    1    2    0    0  0.24945130683E-01  0.33125620020E-02 -0.16905496052E-01  0.10136145187E+01  0.10131610751E+01 0.  0.
     999903    2    3    3    0    0  0.61477359401E-01  0.58520594497E-01  0.89096673684E-01  0.12478439396E+00  0.20707535257E-01 0.  0.
         14    1    1    2    0    0 -0.24945130683E-01 -0.33125620020E-02  0.16905496052E-01  0.30315481335E-01  0.00000000000E+00 0. -1.
     999901    1    3    3    0    0 -0.36532228718E-01 -0.55208032495E-01 -0.10600216974E+00  0.88883012470E+00  0.88000000000E+00 0.  1.
        -11    1    4    4    0    0  0.16305980385E-01  0.29390083598E-01  0.34361060943E-01  0.48068759505E-01  0.51100000000E-03 0.  1.
         11    1    4    4    0    0  0.45171379015E-01  0.29130510898E-01  0.54735612741E-01  0.76715634459E-01  0.51100000000E-03 0. -1.
</event>
<event>
 8    1  0.1115874E+005  0.1043930E+01  0.7957747E-01            NaN
         13   -1    0    0    0    0  0.00000000000E+00  0.00000000000E+00  0.74505805969E-08  0.10566000000E+00  0.10566000000E+00 0. -1.
     999900   -1    0    0    0    0 -0.00000000000E+00 -0.00000000000E+00 -0.74505805969E-08  0.93827000000E+00  0.93827000000E+00 0. -1.
     999902    2    1    2    0    0 -0.95733961828E-02  0.20873406676E-01 -0.46223061146E-02  0.10205053392E+01  0.10202364591E+01 0.  0.
     999903    2    3    3    0    0  0.12177151586E+00 -0.28805930858E-01 -0.29480438415E-01  0.12902485749E+00  0.10965120812E-01 0.  0.
         14    1    1    2    0    0  0.95733961828E-02 -0.20873406676E-01  0.46223061146E-02  0.23424660820E-01  0.00000000000E+00 0.  1.
     999901    1    3    3    0    0 -0.13134491204E+00  0.49679337534E-01  0.24858132301E-01  0.89148048169E+00  0.88000000000E+00 0. -1.
        -11    1    4    4    0    0  0.59003127199E-01 -0.14619319408E-01 -0.19889101711E-01  0.63960386233E-01  0.51100000000E-03 0.  1.
         11    1    4    4    0    0  0.62768388656E-01 -0.14186611450E-01 -0.95913367042E-02  0.65064471255E-01  0.51100000000E-03 0. -1.
</event>
<event>
 8    1  0.1115874E+005  0.1043930E+01  0.7957747E-01            NaN
         13   -1    0    0    0    0  0.00000000000E+00  0.00000000000E+00  0.74505805969E-08  0.10566000000E+00  0.10566000000E+00 0.  1.
     999900   -1    0    0    0    0 -0.00000000000E+00 -0.00000000000E+00 -0.74505805969E-08  0.93827000000E+00  0.93827000000E+00 0.  1.
     999902    2    1    2    0    0  0.96511258332E-02  0.18984681641E-01 -0.10815314905E-01  0.10200441589E+01  0.10197644595E+01 0.  0.
     999903    2    3    3    0    0  0.33683989886E-01 -0.10151785730E+00  0.67465864747E-01  0.12806524465E+00  0.20213298995E-01 0.  0.
         14    1    1    2    0    0 -0.96511258332E-02 -0.18984681641E-01  0.10815314905E-01  0.23885841064E-01  0.00000000000E+00 0. -1.
     999901    1    3    3    0    0 -0.24032864053E-01  0.12050253894E+00 -0.78281179652E-01  0.89197891429E+00  0.88000000000E+00 0.  1.
        -11    1    4    4    0    0  0.44668789850E-02 -0.18038660635E-01  0.35113820516E-02  0.18919228586E-01  0.51100000000E-03 0. -1.
         11    1    4    4    0    0  0.29217110901E-01 -0.83479196661E-01  0.63954482695E-01  0.10914601606E+00  0.51100000000E-03 0.  1.
</event>
<event>
 8    1  0.1115874E+005  0.1043930E+01  0.7957747E-01            NaN
         13   -1    0    0    0    0  0.00000000000E+00  0.00000000000E+00  0.74505805969E-08  0.10566000000E+00  0.10566000000E+00 0. -1.
     999900   -1    0    0    0    0 -0.00000000000E+00 -0.00000000000E+00 -0.74505805969E-08  0.93827000000E+00  0.93827000000E+00 0.  1.
     999902    2    1    2    0    0  0.18856868032E-01 -0.27818857594E-03  0.13559260696E-01  0.10207025935E+01  0.10204382745E+01 0.  0.
     999903    2    3    3    0    0  0.23618054175E-01 -0.11611714074E+00  0.56725443505E-01  0.13204931408E+00  0.13350750941E-01 0.  0.
         14    1    1    2    0    0 -0.18856868032E-01  0.27818857594E-03 -0.13559260696E-01  0.23227406473E-01  0.00000000000E+00 0.  1.
     999901    1    3    3    0    0 -0.47611861438E-02  0.11583895217E+00 -0.43166182809E-01  0.88865327945E+00  0.88000000000E+00 0.  1.
        -11    1    4    4    0    0  0.24073163797E-01 -0.11412168666E+00  0.53804699079E-01  0.12844642208E+00  0.51100000000E-03 0. -1.
         11    1    4    4    0    0 -0.45510962132E-03 -0.19954540870E-02  0.29207444259E-02  0.36028920026E-02  0.51100000000E-03 0.  1.
</event>
<event>
 8    1  0.1115874E+005  0.1043930E+01  0.7957747E-01            NaN
         13   -1    0    0    0    0  0.00000000000E+00  0.00000000000E+00  0.74505805969E-08  0.10566000000E+00  0.10566000000E+00 0.  1.
     999900   -1    0    0    0    0 -0.00000000000E+00 -0.00000000000E+00 -0.74505805969E-08  0.93827000000E+00  0.93827000000E+00 0. -1.
     999902    2    1    2    0    0  0.13558284948E-01 -0.13818483239E-01 -0.14568872599E-01  0.10197013059E+01  0.10194134213E+01 0.  0.
     999903    2    3    3    0    0 -0.49479152606E-01 -0.11156237723E+00 -0.44712634803E-01  0.13153677510E+00  0.20207744482E-01 0.  0.
         14    1    1    2    0    0 -0.13558284948E-01  0.13818483239E-01  0.14568872599E-01  0.24228694116E-01  0.00000000000E+00 0.  1.
     999901    1    3    3    0    0  0.63037437554E-01  0.97743893989E-01  0.30143762204E-01  0.88816453079E+00  0.88000000000E+00 0. -1.
        -11    1    4    4    0    0 -0.13393521302E-01 -0.19289979555E-01 -0.15859646618E-01  0.28342181214E-01  0.51100000000E-03 0.  1.
         11    1    4    4    0    0 -0.36085631303E-01 -0.92272397673E-01 -0.28852988185E-01  0.10319459389E+00  0.51100000000E-03 0. -1.
</event>
<event>
 8    1  0.1115874E+005  0.1043930E+01  0.7957747E-01            NaN
         13   -1    0    0    0    0  0.00000000000E+00  0.00000000000E+00  0.74505805969E-08  0.10566000000E+00  0.10566000000E+00 0.  1.
     999900   -1    0    0    0    0 -0.00000000000E+00 -0.00000000000E+00 -0.74505805969E-08  0.93827000000E+00  0.93827000000E+00 0. -1.
     999902    2    1    2    0    0 -0.12329348375E-01  0.17879675902E-01  0.12616122042E-01  0.10188130301E+01  0.10185033766E+01 0.  0.
     999903    2    3    3    0    0  0.16414327148E-01 -0.12418646672E+00 -0.14226454647E-02  0.12684550000E+00  0.19900962214E-01 0.  0.
         14    1    1    2    0    0  0.12329348375E-01 -0.17879675902E-01 -0.12616122042E-01  0.25116969903E-01  0.00000000000E+00 0. -1.
     999901    1    3    3    0    0 -0.28743675523E-01  0.14206614262E+00  0.14038767507E-01  0.89196753010E+00  0.88000000000E+00 0.  1.
        -11    1    4    4    0    0  0.13802496421E-01 -0.68198023731E-01  0.78790529717E-02  0.70027280006E-01  0.51100000000E-03 0. -1.
         11    1    4    4    0    0  0.26118307270E-02 -0.55988442988E-01 -0.93016984365E-02  0.56818219990E-01  0.51100000000E-03 0.  1.
</event>
<event>
 8    1  0.1115874E+005  0.1043930E+01  0.7957747E-01            NaN
         13   -1    0    0    0    0  0.00000000000E+00  0.00000000000E+00  0.74505805969E-08  0.10566000000E+00  0.10566000000E+00 0. -1.
     999900   -1    0    0    0    0 -0.00000000000E+00 -0.00000000000E+00 -0.74505805969E-08  0.93827000000E+00  0.93827000000E+00 0.  1.
     999902    2    1    2    0    0  0.18644794815E-01  0.78488384601E-02 -0.11078547635E-01  0.10208655933E+01  0.10206050131E+01 0.  0.
     999903    2    3    3    0    0  0.12390137502E+00  0.61921634499E-02 -0.46404268540E-01  0.13388780394E+00  0.19562573574E-01 0.  0.
         14    1    1    2    0    0 -0.18644794815E-01 -0.78488384601E-02  0.11078547635E-01  0.23064406703E-01  0.00000000000E+00 0. -1.
     999901    1    3    3    0    0 -0.10525658021E+00  0.16566750102E-02  0.35325720905E-01  0.88697778935E+00  0.88000000000E+00 0.  1.
        -11    1    4    4    0    0  0.47216351047E-01  0.67661051246E-02 -0.26875799957E-01  0.54751563713E-01  0.51100000000E-03 0. -1.
         11    1    4    4    0    0  0.76685023978E-01 -0.57394167466E-03 -0.19528468583E-01  0.79136240230E-01  0.51100000000E-03 0.  1.
</event>
<event>
 8    1  0.1115874E+005  0.1043930E+01  0.7957747E-01            NaN
         13   -1    0    0    0    0  0.00000000000E+00  0.00000000000E+00  0.74505805969E-08  0.10566000000E+00  0.10566000000E+00 0. -1.
     999900   -1    0    0    0    0 -0.00000000000E+00 -0.00000000000E+00 -0.74505805969E-08  0.93827000000E+00  0.93827000000E+00 0.  1.
     999902    2    1    2    0    0 -0.14111302408E-01  0.17355193924E-01  0.82308329101E-02  0.10200956084E+01  0.10198171268E+01 0.  0.
     999903    2    3    3    0    0  0.27094207685E-01 -0.11994766223E+00 -0.27921562313E-01  0.12776329137E+00  0.20550114675E-01 0.  0.
         14    1    1    2    0    0  0.14111302408E-01 -0.17355193924E-01 -0.82308329101E-02  0.23834391584E-01  0.00000000000E+00 0.  1.
     999901    1    3    3    0    0 -0.41205510093E-01  0.13730285616E+00  0.36152395223E-01  0.89233231705E+00  0.88000000000E+00 0. -1.
        -11    1    4    4    0    0  0.28951132008E-01 -0.87453271790E-01 -0.20889370370E-01  0.94460942758E-01  0.51100000000E-03 0. -1.
         11    1    4    4    0    0 -0.18569243222E-02 -0.32494390445E-01 -0.70321919435E-02  0.33302348609E-01  0.51100000000E-03 0.  1.
</event>
<event>
 8    1  0.1115874E+005  0.1043930E+01  0.7957747E-01            NaN
         13   -1    0    0    0    0  0.00000000000E+00  0.00000000000E+00  0.74505805969E-08  0.10566000000E+00  0.10566000000E+00 0. -1.
     999900   -1    0    0    0    0 -0.00000000000E+00 -0.00000000000E+00 -0.74505805969E-08  0.93827000000E+00  0.93827000000E+00 0.  1.
     999902    2    1    2    0    0  0.16095248648E-01  0.84505730833E-02  0.15473030670E-01  0.10200577590E+01  0.10197783817E+01 0.  0.
     999903    2    3    3    0    0 -0.59653807249E-01 -0.96603383394E-01 -0.55084823906E-01  0.12778388615E+00  0.20089632477E-01 0.  0.
         14    1    1    2    0    0 -0.16095248648E-01 -0.84505730833E-02 -0.15473030670E-01  0.23872241047E-01  0.00000000000E+00 0. -1.
     999901    1    3    3    0    0  0.75749055897E-01  0.10505395648E+00  0.70557854576E-01  0.89227387280E+00  0.88000000000E+00 0. -1.
        -11    1    4    4    0    0 -0.13386095982E-01 -0.39414095467E-01 -0.22596195092E-01  0.47365679988E-01  0.51100000000E-03 0.  1.
         11    1    4    4    0    0 -0.46267711267E-01 -0.57189287927E-01 -0.32488628814E-01  0.80418206164E-01  0.51100000000E-03 0. -1.
</event>
<event>
 8    1  0.1115874E+005  0.1043930E+01  0.7957747E-01            NaN
         13   -1    0    0    0    0  0.00000000000E+00  0.00000000000E+00  0.74505805969E-08  0.10566000000E+00  0.10566000000E+00 0.  1.
     999900   -1    0    0    0    0 -0.00000000000E+00 -0.00000000000E+00 -0.74505805969E-08  0.93827000000E+00  0.93827000000E+00 0.  1.
     999902    2    1    2    0    0 -0.69417586311E-02  0.16435377476E-01 -0.14054990897E-01  0.10212176154E+01  0.10209650168E+01 0.  0.
     999903    2    3    3    0    0  0.43956657681E-01  0.10075546548E+00  0.69893910506E-01  0.13175263908E+00  0.19742026243E-01 0.  0.
         14    1    1    2    0    0  0.69417586311E-02 -0.16435377476E-01  0.14054990897E-01  0.22712384613E-01  0.00000000000E+00 0.  1.
     999901    1    3    3    0    0 -0.50898416313E-01 -0.84320088008E-01 -0.83948901403E-01  0.88946497630E+00  0.88000000000E+00 0. -1.
        -11    1    4    4    0    0  0.33889783722E-01  0.88579796568E-01  0.53124088062E-01  0.10870753265E+00  0.51100000000E-03 0.  1.
         11    1    4    4    0    0  0.10066873959E-01  0.12175668916E-01  0.16769822444E-01  0.23045106437E-01  0.51100000000E-03 0. -1.
</event>
<event>
 8    1  0.1115874E+005  0.1043930E+01  0.7957747E-01            NaN
         13   -1    0    0    0    0  0.00000000000E+00  0.00000000000E+00  0.74505805969E-08  0.10566000000E+00  0.10566000000E+00 0.  1.
     999900   -1    0    0    0    0 -0.00000000000E+00 -0.00000000000E+00 -0.74505805969E-08  0.93827000000E+00  0.93827000000E+00 0. -1.
     999902    2    1    2    0    0 -0.21610077095E-01 -0.91045038527E-02 -0.46735854813E-02  0.10200191275E+01  0.10197388345E+01 0.  0.
     999903    2    3    3    0    0 -0.88286073037E-01  0.14496181232E-01 -0.94988496650E-01  0.13257365653E+00  0.23417727184E-01 0.  0.
         14    1    1    2    0    0  0.21610077095E-01  0.91045038527E-02  0.46735854813E-02  0.23910872500E-01  0.00000000000E+00 0.  1.
     999901    1    3    3    0    0  0.66675995942E-01 -0.23600685085E-01  0.90314911168E-01  0.88744547097E+00  0.88000000000E+00 0.  1.
        -11    1    4    4    0    0 -0.42819441596E-01 -0.44449482563E-02 -0.48354520716E-01  0.64743207661E-01  0.51100000000E-03 0. -1.
         11    1    4    4    0    0 -0.45466631441E-01  0.18941129489E-01 -0.46633975934E-01  0.67830448866E-01  0.51100000000E-03 0.  1.
</event>
<event>
 8    1  0.1115874E+005  0.1043930E+01  0.7957747E-01            NaN
         13   -1    0    0    0    0  0.00000000000E+00  0.00000000000E+00  0.74505805969E-08  0.10566000000E+00  0.10566000000E+00 0. -1.
     999900   -1    0    0    0    0 -0.00000000000E+00 -0.00000000000E+00 -0.74505805969E-08  0.93827000000E+00  0.93827000000E+00 0.  1.
     999902    2    1    2    0    0 -0.16692445840E-01 -0.60804821829E-02  0.16386337064E-01  0.10197613829E+01  0.10194749413E+01 0.  0.
     999903    2    3    3    0    0 -0.12808776331E+00 -0.28679428616E-02 -0.23670438090E-01  0.13182907554E+00  0.20097644438E-01 0.  0.
         14    1    1    2    0    0  0.16692445840E-01  0.60804821829E-02 -0.16386337064E-01  0.24168617132E-01  0.00000000000E+00 0.  1.
     999901    1    3    3    0    0  0.11139531747E+00 -0.32125393213E-02  0.40056775154E-01  0.88793230733E+00  0.88000000000E+00 0. -1.
        -11    1    4    4    0    0 -0.74162678982E-01 -0.10268966881E-01 -0.18684750658E-01  0.77168229620E-01  0.51100000000E-03 0.  1.
         11    1    4    4    0    0 -0.53925084328E-01  0.74010240197E-02 -0.49856874319E-02  0.54660845919E-01  0.51100000000E-03 0. -1.
</event>
<event>
 8    1  0.1115874E+005  0.1043930E+01  0.7957747E-01            NaN
         13   -1    0    0    0    0  0.00000000000E+00  0.00000000000E+00  0.74505805969E-08  0.10566000000E+00  0.10566000000E+00 0.  1.
     999900   -1    0    0    0    0 -0.00000000000E+00 -0.00000000000E+00 -0.74505805969E-08  0.93827000000E+00  0.93827000000E+00 0. -1.
     999902    2    1    2    0    0  0.19331324016E-01 -0.14424987204E-01 -0.61087205560E-02  0.10190483439E+01  0.10187445364E+01 0.  0.
     999903    2    3    3    0    0  0.45715646647E-01  0.76375562657E-01 -0.92723976987E-01  0.12975476189E+00  0.17759938216E-01 0.  0.
         14    1    1    2    0    0 -0.19331324016E-01  0.14424987204E-01  0.61087205560E-02  0.24881656112E-01  0.00000000000E+00 0.  1.
     999901    1    3    3    0    0 -0.26384322631E-01 -0.90800549860E-01  0.86615256431E-01  0.88929358200E+00  0.88000000000E+00 0.  1.
        -11    1    4    4    0    0  0.20104529970E-01  0.49086615880E-01 -0.49195519442E-01  0.72347413485E-01  0.51100000000E-03 0.  1.
         11    1    4    4    0    0  0.25611116678E-01  0.27288946777E-01 -0.43528457544E-01  0.57407348405E-01  0.51100000000E-03 0. -1.
</event>
<event>
 7    1  0.1204513E+005  0.1043930E+01  0.7957747E-01            NaN
         13   -1    0    0    0    0  0.00000000000E+00  0.00000000000E+00  0.74505805969E-08  0.10566000000E+00  0.10566000000E+00 0.  1.
     999900   -1    0    0    0    0 -0.00000000000E+00 -0.00000000000E+00 -0.74505805969E-08  0.93827000000E+00  0.93827000000E+00 0.  1.
     999903    2    1    2    0    0  0.43289188665E-01  0.41943291021E-01 -0.54422898768E-01  0.84154715781E-01  0.22067414006E-01 0.  0.
         14    1    1    2    0    0  0.31213911479E-01 -0.67555734796E-01 -0.21181434219E-02  0.74448452671E-01  0.00000000000E+00 0. -1.
     999901    1    1    2    0    0 -0.74503100144E-01  0.25612443775E-01  0.56541042190E-01  0.88532683155E+00  0.88000000000E+00 0. -1.
        -11    1    3    3    0    0  0.59870652968E-02  0.19529644550E-01 -0.20811214501E-01  0.29165385942E-01  0.51100000000E-03 0.  1.
         11    1    3    3    0    0  0.37302123368E-01  0.22413646471E-01 -0.33611684267E-01  0.54989329839E-01  0.51100000000E-03 0. -1.
</event>
<event>
 8    1  0.1115874E+005  0.1043930E+01  0.7957747E-01            NaN
         13   -1    0    0    0    0  0.00000000000E+00  0.00000000000E+00  0.74505805969E-08  0.10566000000E+00  0.10566000000E+00 0.  1.
     999900   -1    0    0    0    0 -0.00000000000E+00 -0.00000000000E+00 -0.74505805969E-08  0.93827000000E+00  0.93827000000E+00 0. -1.
     999902    2    1    2    0    0  0.13207735782E-01 -0.18461213576E-01 -0.61391824497E-02  0.10204151057E+01  0.10201441260E+01 0.  0.
     999903    2    3    3    0    0 -0.94136023583E-01  0.41333788066E-02  0.85569467270E-01  0.12887504791E+00  0.20198229809E-01 0.  0.
         14    1    1    2    0    0 -0.13207735782E-01  0.18461213576E-01  0.61391824497E-02  0.23514894265E-01  0.00000000000E+00 0. -1.
     999901    1    3    3    0    0  0.10734375936E+00 -0.22594592382E-01 -0.91708649720E-01  0.89154005783E+00  0.88000000000E+00 0. -1.
        -11    1    4    4    0    0 -0.41155752531E-01 -0.14197096149E-02  0.50191406538E-01  0.64924956320E-01  0.51100000000E-03 0. -1.
         11    1    4    4    0    0 -0.52980271052E-01  0.55530884215E-02  0.35378060732E-01  0.63950091586E-01  0.51100000000E-03 0.  1.
</event>
<event>
 8    1  0.1115874E+005  0.1043930E+01  0.7957747E-01            NaN
         13   -1    0    0    0    0  0.00000000000E+00  0.00000000000E+00  0.74505805969E-08  0.10566000000E+00  0.10566000000E+00 0. -1.
     999900   -1    0    0    0    0 -0.00000000000E+00 -0.00000000000E+00 -0.74505805969E-08  0.93827000000E+00  0.93827000000E+00 0. -1.
     999902    2    1    2    0    0 -0.90837171988E-02  0.16605588275E-01 -0.15290577158E-01  0.10195976916E+01  0.10193073097E+01 0.  0.
     999903    2    3    3    0    0 -0.12514050434E+00  0.36116655026E-01  0.21233091015E-02  0.13159256610E+00  0.18642328562E-01 0.  0.
         14    1    1    2    0    0  0.90837171988E-02 -0.16605588275E-01  0.15290577158E-01  0.24332308356E-01  0.00000000000E+00 0.  1.
     999901    1    3    3    0    0  0.11605678714E+00 -0.19511066751E-01 -0.17413886259E-01  0.88800512555E+00  0.88000000000E+00 0. -1.
        -11    1    4    4    0    0 -0.82067772040E-02 -0.22180055712E-02  0.24594075381E-03  0.85201143563E-02  0.51100000000E-03 0.  1.
         11    1    4    4    0    0 -0.11693372713E+00  0.38334660597E-01  0.18773683477E-02  0.12307245174E+00  0.51100000000E-03 0. -1.
</event>
<event>
 7    1  0.1115874E+005  0.1043930E+01  0.7957747E-01            NaN
         13   -1    0    0    0    0  0.00000000000E+00  0.00000000000E+00  0.74505805969E-08  0.10566000000E+00  0.10566000000E+00 0.  1.
     999900   -1    0    0    0    0 -0.00000000000E+00 -0.00000000000E+00 -0.74505805969E-08  0.93827000000E+00  0.93827000000E+00 0. -1.
     999903    2    1    2    0    0 -0.17975168270E-01 -0.83283580271E-01  0.54962935730E-01  0.10325788375E+00  0.19544944005E-01 0.  0.
         14    1    1    2    0    0 -0.80297586742E-02  0.39593582893E-02 -0.56009921661E-01  0.56720938523E-01  0.00000000000E+00 0. -1.
     999901    1    1    2    0    0  0.26004926944E-01  0.79324221982E-01  0.10469859310E-02  0.88395117772E+00  0.88000000000E+00 0. -1.
        -11    1    3    3    0    0 -0.13734061519E-01 -0.30551759225E-01  0.29078646658E-01  0.44360604707E-01  0.51100000000E-03 0. -1.
         11    1    3    3    0    0 -0.42411067510E-02 -0.52731821046E-01  0.25884289072E-01  0.58897279046E-01  0.51100000000E-03 0.  1.
</event>
<event>
 8    1  0.1115874E+005  0.1043930E+01  0.7957747E-01            NaN
         13   -1    0    0    0    0  0.00000000000E+00  0.00000000000E+00  0.74505805969E-08  0.10566000000E+00  0.10566000000E+00 0.  1.
     999900   -1    0    0    0    0 -0.00000000000E+00 -0.00000000000E+00 -0.74505805969E-08  0.93827000000E+00  0.93827000000E+00 0.  1.
     999902    2    1    2    0    0  0.17583810863E-01 -0.68579112177E-03  0.15499962494E-01  0.10204798497E+01  0.10202103773E+01 0.  0.
     999903    2    3    3    0    0 -0.49882739101E-01 -0.11332891599E+00 -0.32148438593E-01  0.12946325100E+00  0.19886688940E-01 0.  0.
         14    1    1    2    0    0 -0.17583810863E-01  0.68579112177E-03 -0.15499962494E-01  0.23450150346E-01  0.00000000000E+00 0. -1.
     999901    1    3    3    0    0  0.67466549964E-01  0.11264312487E+00  0.47648401086E-01  0.89101659865E+00  0.88000000000E+00 0. -1.
        -11    1    4    4    0    0 -0.29391539265E-01 -0.70544669134E-01 -0.98946517312E-02  0.77062170859E-01  0.51100000000E-03 0.  1.
         11    1    4    4    0    0 -0.20491199836E-01 -0.42784246856E-01 -0.22253786861E-01  0.52401080145E-01  0.51100000000E-03 0. -1.
</event>
<event>
 8    1  0.1115874E+005  0.1043930E+01  0.7957747E-01            NaN
         13   -1    0    0    0    0  0.00000000000E+00  0.00000000000E+00  0.74505805969E-08  0.10566000000E+00  0.10566000000E+00 0. -1.
     999900   -1    0    0    0    0 -0.00000000000E+00 -0.00000000000E+00 -0.74505805969E-08  0.93827000000E+00  0.93827000000E+00 0.  1.
     999902    2    1    2    0    0 -0.11280959254E-01  0.18277317045E-01 -0.84181691114E-02  0.10208608446E+01  0.10206001558E+01 0.  0.
     999903    2    3    3    0    0 -0.57656035379E-01 -0.26118858298E-01  0.11207049105E+00  0.13033336871E+00  0.20508019422E-01 0.  0.
         14    1    1    2    0    0  0.11280959254E-01 -0.18277317045E-01  0.84181691114E-02  0.23069155408E-01  0.00000000000E+00 0. -1.
     999901    1    3    3    0    0  0.46375076125E-01  0.44396175343E-01 -0.12048866016E+00  0.89052747588E+00  0.88000000000E+00 0.  1.
        -11    1    4    4    0    0 -0.78204913062E-02  0.10210320642E-02  0.26517108760E-01  0.27669853066E-01  0.51100000000E-03 0. -1.
         11    1    4    4    0    0 -0.49835544073E-01 -0.27139890362E-01  0.85553382292E-01  0.10266351564E+00  0.51100000000E-03 0.  1.
</event>
<event>
 8    1  0.1115874E+005  0.1043930E+01  0.7957747E-01            NaN
         13   -1    0    0    0    0  0.00000000000E+00  0.00000000000E+00  0.74505805969E-08  0.10566000000E+00  0.10566000000E+00 0. -1.
     999900   -1    0    0    0    0 -0.00000000000E+00 -0.00000000000E+00 -0.74505805969E-08  0.93827000000E+00  0.93827000000E+00 0. -1.
     999902    2    1    2    0    0  0.18719656336E-01 -0.12602502784E-01 -0.55548739291E-02  0.10206898358E+01  0.10204252229E+01 0.  0.
     999903    2    3    3    0    0  0.74569589445E-01 -0.69474064426E-01 -0.83266593528E-01  0.13367647570E+00  0.23426593015E-01 0.  0.
         14    1    1    2    0    0 -0.18719656336E-01  0.12602502784E-01  0.55548739291E-02  0.23240164245E-01  0.00000000000E+00 0. -1.
     999901    1    3    3    0    0 -0.55849933109E-01  0.56871561642E-01  0.77711719598E-01  0.88701336005E+00  0.88000000000E+00 0. -1.
        -11    1    4    4    0    0  0.33163739264E-01 -0.18893314750E-01 -0.39971222278E-01  0.55269798947E-01  0.51100000000E-03 0. -1.
         11    1    4    4    0    0  0.41405850180E-01 -0.50580749676E-01 -0.43295371249E-01  0.78406676754E-01  0.51100000000E-03 0.  1.
</event>
<event>
 8    1  0.1115874E+005  0.1043930E+01  0.7957747E-01            NaN
         13   -1    0    0    0    0  0.00000000000E+00  0.00000000000E+00  0.74505805969E-08  0.10566000000E+00  0.10566000000E+00 0. -1.
     999900   -1    0    0    0    0 -0.00000000000E+00 -0.00000000000E+00 -0.74505805969E-08  0.93827000000E+00  0.93827000000E+00 0.  1.
     999902    2    1    2    0    0  0.41980965305E-02 -0.22152214059E-01 -0.78498304723E-02  0.10200560719E+01  0.10197766547E+01 0.  0.
     999903    2    3    3    0    0  0.50152366380E-01 -0.87649994050E-01  0.82667691122E-01  0.13180206784E+00  0.18440624184E-01 0.  0.
         14    1    1    2    0    0 -0.41980965305E-02  0.22152214059E-01  0.78498304723E-02  0.23873928052E-01  0.00000000000E+00 0. -1.
     999901    1    3    3    0    0 -0.45954269849E-01  0.65497779991E-01 -0.90517521595E-01  0.88825400411E+00  0.88000000000E+00 0.  1.
        -11    1    4    4    0    0  0.27309181355E-01 -0.41264901701E-01  0.51527656304E-01  0.71441892359E-01  0.51100000000E-03 0.  1.
         11    1    4    4    0    0  0.22843185025E-01 -0.46385092349E-01  0.31140034819E-01  0.60360175479E-01  0.51100000000E-03 0. -1.
</event>
<event>
 8    1  0.1115874E+005  0.1043930E+01  0.7957747E-01            NaN
         13   -1    0    0    0    0  0.00000000000E+00  0.00000000000E+00  0.74505805969E-08  0.10566000000E+00  0.10566000000E+00 0.  1.
     999900   -1    0    0    0    0 -0.00000000000E+00 -0.00000000000E+00 -0.74505805969E-08  0.93827000000E+00  0.93827000000E+00 0. -1.
     999902    2    1    2    0    0 -0.79605045390E-02  0.48555696928E-02 -0.23559733326E-01  0.10185921385E+01  0.10182769454E+01 0.  0.
     999903    2    3    3    0    0  0.16876936172E-01  0.12418700140E+00  0.23890142106E-01  0.12892457155E+00  0.18535478650E-01 0.  0.
         14    1    1    2    0    0  0.79605045390E-02 -0.48555696928E-02  0.23559733326E-01  0.25337861471E-01  0.00000000000E+00 0.  1.
     999901    1    3    3    0    0 -0.24837440711E-01 -0.11933143171E+00 -0.47449875432E-01  0.88966756698E+00  0.88000000000E+00 0. -1.
        -11    1    4    4    0    0  0.85646542857E-02  0.30813314801E-01  0.13088973742E-01  0.34560035108E-01  0.51100000000E-03 0.  1.
         11    1    4    4    0    0  0.83122818863E-02  0.93373686598E-01  0.10801168364E-01  0.94364536443E-01  0.51100000000E-03 0. -1.
</event>
<event>
 8    1  0.1115874E+005  0.1043930E+01  0.7957747E-01            NaN
         13   -1    0    0    0    0  0.00000000000E+00  0.00000000000E+00  0.74505805969E-08  0.10566000000E+00  0.10566000000E+00 0.  1.
     999900   -1    0    0    0    0 -0.00000000000E+00 -0.00000000000E+00 -0.74505805969E-08  0.93827000000E+00  0.93827000000E+00 0. -1.
     999902    2    1    2    0    0 -0.22913897784E-01  0.69715140931E-02 -0.55993358034E-03  0.10199724908E+01  0.10196910904E+01 0.  0.
     999903    2    3    3    0    0 -0.10014818122E-01  0.87552774069E-01  0.94963378627E-01  0.13104930579E+00  0.19750757908E-01 0.  0.
         14    1    1    2    0    0  0.22913897784E-01 -0.69715140931E-02  0.55993358034E-03  0.23957509178E-01  0.00000000000E+00 0.  1.
     999901    1    3    3    0    0 -0.12899079663E-01 -0.80581259976E-01 -0.95523312208E-01  0.88892318503E+00  0.88000000000E+00 0. -1.
        -11    1    4    4    0    0  0.33190391811E-02  0.64682778465E-02  0.13481182837E-01  0.15325079154E-01  0.51100000000E-03 0.  1.
         11    1    4    4    0    0 -0.13333857303E-01  0.81084496223E-01  0.81482195790E-01  0.11572422663E+00  0.51100000000E-03 0. -1.
</event>
<event>
 8    1  0.1115874E+005  0.1043930E+01  0.7957747E-01            NaN
         13   -1    0    0    0    0  0.00000000000E+00  0.00000000000E+00  0.74505805969E-08  0.10566000000E+00  0.10566000000E+00 0. -1.
     999900   -1    0    0    0    0 -0.00000000000E+00 -0.00000000000E+00 -0.74505805969E-08  0.93827000000E+00  0.93827000000E+00 0.  1.
     999902    2    1    2    0    0 -0.24040277857E-01  0.35024573866E-02  0.76046037736E-02  0.10184735241E+01  0.10181553355E+01 0.  0.
     999903    2    3    3    0    0 -0.69354409854E-01 -0.10438102326E+00 -0.27870667917E-01  0.13001941112E+00  0.20563096899E-01 0.  0.
         14    1    1    2    0    0  0.24040277857E-01 -0.35024573866E-02 -0.76046037736E-02  0.25456475909E-01  0.00000000000E+00 0. -1.
     999901    1    3    3    0    0  0.45314131997E-01  0.10788348065E+00  0.35475271691E-01  0.88845411297E+00  0.88000000000E+00 0. -1.
        -11    1    4    4    0    0 -0.59209241413E-01 -0.76906395227E-01 -0.15799071786E-01  0.98337173469E-01  0.51100000000E-03 0.  1.
         11    1    4    4    0    0 -0.10145168441E-01 -0.27474628035E-01 -0.12071596131E-01  0.31682237650E-01  0.51100000000E-03 0. -1.
</event>
<event>
 8    1  0.1115874E+005  0.1043930E+01  0.7957747E-01            NaN
         13   -1    0    0    0    0  0.00000000000E+00  0.00000000000E+00  0.74505805969E-08  0.10566000000E+00  0.10566000000E+00 0. -1.
     999900   -1    0    0    0    0 -0.00000000000E+00 -0.00000000000E+00 -0.74505805969E-08  0.93827000000E+00  0.93827000000E+00 0. -1.
     999902    2    1    2    0    0  0.84171416178E-02  0.20668754267E-01  0.60040205068E-02  0.10208195275E+01  0.10205578934E+01 0.  0.
     999903    2    3    3    0    0 -0.18781473226E-01  0.31437616209E-01 -0.12405946329E+00  0.13077894257E+00  0.19269508048E-01 0.  0.
         14    1    1    2    0    0 -0.84171416178E-02 -0.20668754267E-01 -0.60040205068E-02  0.23110472479E-01  0.00000000000E+00 0.  1.
     999901    1    3    3    0    0  0.27198614844E-01 -0.10768861942E-01  0.13006348379E+00  0.89004058495E+00  0.88000000000E+00 0.  1.
        -11    1    4    4    0    0 -0.62629612186E-03  0.18057545094E-01 -0.43138925604E-01  0.46772804116E-01  0.51100000000E-03 0. -1.
         11    1    4    4    0    0 -0.18155177104E-01  0.13380071115E-01 -0.80920537682E-01  0.84006138457E-01  0.51100000000E-03 0.  1.
</event>
<event>
 8    1  0.1115874E+005  0.1043930E+01  0.7957747E-01            NaN
         13   -1    0    0    0    0  0.00000000000E+00  0.00000000000E+00  0.74505805969E-08  0.10566000000E+00  0.10566000000E+00 0.  1.
     999900   -1    0    0    0    0 -0.00000000000E+00 -0.00000000000E+00 -0.74505805969E-08  0.93827000000E+00  0.93827000000E+00 0. -1.
     999902    2    1    2    0    0 -0.78536881378E-03  0.76272612929E-02 -0.22586701695E-01  0.10200773060E+01  0.10197983914E+01 0.  0.
     999903    2    3    3    0    0  0.23196673893E-01  0.55196536848E-01 -0.11745422267E+00  0.13337678105E+00  0.20226911305E-01 0.  0.
         14    1    1    2    0    0  0.78536881378E-03 -0.76272612929E-02  0.22586701695E-01  0.23852694029E-01  0.00000000000E+00 0.  1.
     999901    1    3    3    0    0 -0.23982042706E-01 -0.47569275555E-01  0.94867520979E-01  0.88670052492E+00  0.88000000000E+00 0.  1.
        -11    1    4    4    0    0  0.10040488818E-01  0.16567305333E-01 -0.58878964429E-01  0.61986132280E-01  0.51100000000E-03 0.  1.
         11    1    4    4    0    0  0.13156185075E-01  0.38629231515E-01 -0.58575258244E-01  0.71390648775E-01  0.51100000000E-03 0. -1.
</event>
<event>
 8    1  0.1115874E+005  0.1043930E+01  0.7957747E-01            NaN
         13   -1    0    0    0    0  0.00000000000E+00  0.00000000000E+00  0.74505805969E-08  0.10566000000E+00  0.10566000000E+00 0. -1.
     999900   -1    0    0    0    0 -0.00000000000E+00 -0.00000000000E+00 -0.74505805969E-08  0.93827000000E+00  0.93827000000E+00 0. -1.
     999902    2    1    2    0    0  0.74520385788E-02  0.25061955820E-01  0.40562722546E-02  0.10174708267E+01  0.10171267351E+01 0.  0.
     999903    2    3    3    0    0  0.10002570250E+00 -0.21538801351E-01  0.75719216667E-01  0.12849552251E+00  0.17568107672E-01 0.  0.
         14    1    1    2    0    0 -0.74520385788E-02 -0.25061955820E-01 -0.40562722546E-02  0.26459173326E-01  0.00000000000E+00 0. -1.
     999901    1    3    3    0    0 -0.92573663920E-01  0.46600757171E-01 -0.71662944412E-01  0.88897530417E+00  0.88000000000E+00 0. -1.
        -11    1    4    4    0    0  0.49697875562E-01 -0.17924346184E-01  0.32289458297E-01  0.61919554744E-01  0.51100000000E-03 0.  1.
         11    1    4    4    0    0  0.50327826937E-01 -0.36144551665E-02  0.43429758369E-01  0.66575967761E-01  0.51100000000E-03 0. -1.
</event>
<event>
 8    1  0.1115874E+005  0.1043930E+01  0.7957747E-01            NaN
         13   -1    0    0    0    0  0.00000000000E+00  0.00000000000E+00  0.74505805969E-08  0.10566000000E+00  0.10566000000E+00 0. -1.
     999900   -1    0    0    0    0 -0.00000000000E+00 -0.00000000000E+00 -0.74505805969E-08  0.93827000000E+00  0.93827000000E+00 0. -1.
     999902    2    1    2    0    0  0.12477419918E-01  0.19913840828E-01  0.54007186859E-04  0.10204300004E+01  0.10201593678E+01 0.  0.
     999903    2    3    3    0    0 -0.20878435417E-01 -0.12169950643E+00 -0.25858992879E-01  0.12810806479E+00  0.22278012000E-01 0.  0.
         14    1    1    2    0    0 -0.12477419918E-01 -0.19913840828E-01 -0.54007186859E-04  0.23499999598E-01  0.00000000000E+00 0. -1.
     999901    1    3    3    0    0  0.33355855335E-01  0.14161334726E+00  0.25913000066E-01  0.89232193562E+00  0.88000000000E+00 0.  1.
        -11    1    4    4    0    0 -0.18751478347E-01 -0.49054309301E-01 -0.66782231970E-02  0.52941505336E-01  0.51100000000E-03 0.  1.
         11    1    4    4    0    0 -0.21269570703E-02 -0.72645197134E-01 -0.19180769682E-01  0.75166559450E-01  0.51100000000E-03 0. -1.
</event>
<event>
 8    1  0.1115874E+005  0.1043930E+01  0.7957747E-01            NaN
         13   -1    0    0    0    0  0.00000000000E+00  0.00000000000E+00  0.74505805969E-08  0.10566000000E+00  0.10566000000E+00 0. -1.
     999900   -1    0    0    0    0 -0.00000000000E+00 -0.00000000000E+00 -0.74505805969E-08  0.93827000000E+00  0.93827000000E+00 0.  1.
     999902    2    1    2    0    0  0.14816214964E-01  0.21580314947E-01 -0.49068160136E-02  0.10172971807E+01  0.10169484976E+01 0.  0.
     999903    2    3    3    0    0 -0.95394336337E-01 -0.75081746154E-01  0.20683897446E-01  0.12480359291E+00  0.20267342686E-01 0.  0.
         14    1    1    2    0    0 -0.14816214964E-01 -0.21580314947E-01  0.49068160136E-02  0.26632819274E-01  0.00000000000E+00 0. -1.
     999901    1    3    3    0    0  0.11021055130E+00  0.96662061101E-01 -0.25590713460E-01  0.89249358781E+00  0.88000000000E+00 0. -1.
        -11    1    4    4    0    0 -0.64893379780E-01 -0.57429741549E-01  0.68037336445E-02  0.86924552723E-01  0.51100000000E-03 0.  1.
         11    1    4    4    0    0 -0.30500956557E-01 -0.17652004605E-01  0.13880163802E-01  0.37879040189E-01  0.51100000000E-03 0. -1.
</event>
<event>
 8    1  0.1115874E+005  0.1043930E+01  0.7957747E-01            NaN
         13   -1    0    0    0    0  0.00000000000E+00  0.00000000000E+00  0.74505805969E-08  0.10566000000E+00  0.10566000000E+00 0.  1.
     999900   -1    0    0    0    0 -0.00000000000E+00 -0.00000000000E+00 -0.74505805969E-08  0.93827000000E+00  0.93827000000E+00 0. -1.
     999902    2    1    2    0    0  0.22006201853E-01  0.22522929037E-01  0.75814992279E-02  0.10115411997E+01  0.10110225341E+01 0.  0.
     999903    2    3    3    0    0  0.63984565419E-01 -0.97649418367E-01 -0.27651631863E-01  0.12168449800E+00  0.20324143016E-01 0.  0.
         14    1    1    2    0    0 -0.22006201853E-01 -0.22522929037E-01 -0.75814992279E-02  0.32388800270E-01  0.00000000000E+00 0. -1.
     999901    1    3    3    0    0 -0.41978363566E-01  0.12017234740E+00  0.35233131091E-01  0.88985670173E+00  0.88000000000E+00 0.  1.
        -11    1    4    4    0    0  0.20379161035E-01 -0.16201493424E-01 -0.43088993268E-02  0.26393679699E-01  0.51100000000E-03 0. -1.
         11    1    4    4    0    0  0.43605404384E-01 -0.81447924943E-01 -0.23342732536E-01  0.95290818300E-01  0.51100000000E-03 0.  1.
</event>
<event>
 8    1  0.1115874E+005  0.1043930E+01  0.7957747E-01            NaN
         13   -1    0    0    0    0  0.00000000000E+00  0.00000000000E+00  0.74505805969E-08  0.10566000000E+00  0.10566000000E+00 0. -1.
     999900   -1    0    0    0    0 -0.00000000000E+00 -0.00000000000E+00 -0.74505805969E-08  0.93827000000E+00  0.93827000000E+00 0.  1.
     999902    2    1    2    0    0 -0.11299768737E-01 -0.15022867289E-01  0.14084548990E-01  0.10204407294E+01  0.10201703467E+01 0.  0.
     999903    2    3    3    0    0 -0.70650643561E-01  0.13429459618E-01  0.10965883176E+00  0.13282228387E+00  0.21091132905E-01 0.  0.
         14    1    1    2    0    0  0.11299768737E-01  0.15022867289E-01 -0.14084548990E-01  0.23489270643E-01  0.00000000000E+00 0.  1.
     999901    1    3    3    0    0  0.59350874824E-01 -0.28452326907E-01 -0.95574282770E-01  0.88761844549E+00  0.88000000000E+00 0.  1.
        -11    1    4    4    0    0 -0.78825426820E-02 -0.37354039081E-02  0.21819657274E-01  0.23504175928E-01  0.51100000000E-03 0.  1.
         11    1    4    4    0    0 -0.62768100879E-01  0.17164863526E-01  0.87839174485E-01  0.10931810794E+00  0.51100000000E-03 0. -1.
</event>
<event>
 8    1  0.1115874E+005  0.1043930E+01  0.7957747E-01            NaN
         13   -1    0    0    0    0  0.00000000000E+00  0.00000000000E+00  0.74505805969E-08  0.10566000000E+00  0.10566000000E+00 0.  1.
     999900   -1    0    0    0    0 -0.00000000000E+00 -0.00000000000E+00 -0.74505805969E-08  0.93827000000E+00  0.93827000000E+00 0. -1.
     999902    2    1    2    0    0 -0.14553697884E-01  0.69296572031E-02  0.17042179558E-01  0.10204722474E+01  0.10202025983E+01 0.  0.
     999903    2    3    3    0    0  0.50371292669E-01  0.11335270553E+00  0.37919827837E-01  0.13144075429E+00  0.21275703714E-01 0.  0.
         14    1    1    2    0    0  0.14553697884E-01 -0.69296572031E-02 -0.17042179558E-01  0.23457752559E-01  0.00000000000E+00 0. -1.
     999901    1    3    3    0    0 -0.64924990553E-01 -0.10642304833E+00 -0.20877648280E-01  0.88903149315E+00  0.88000000000E+00 0. -1.
        -11    1    4    4    0    0  0.20366762311E-01  0.65925302890E-01  0.13873405972E-01  0.70382406057E-01  0.51100000000E-03 0. -1.
         11    1    4    4    0    0  0.30004530358E-01  0.47427402643E-01  0.24046421866E-01  0.61058348234E-01  0.51100000000E-03 0.  1.
</event>
<event>
 8    1  0.1115874E+005  0.1043930E+01  0.7957747E-01            NaN
         13   -1    0    0    0    0  0.00000000000E+00  0.00000000000E+00  0.74505805969E-08  0.10566000000E+00  0.10566000000E+00 0. -1.
     999900   -1    0    0    0    0 -0.00000000000E+00 -0.00000000000E+00 -0.74505805969E-08  0.93827000000E+00  0.93827000000E+00 0. -1.
     999902    2    1    2    0    0  0.13273931841E-01 -0.75157862314E-02 -0.19572735498E-01  0.10191151600E+01  0.10188130020E+01 0.  0.
     999903    2    3    3    0    0  0.91000241836E-01 -0.81109813398E-01 -0.47320064491E-01  0.13219499766E+00  0.19403171388E-01 0.  0.
         14    1    1    2    0    0 -0.13273931841E-01  0.75157862314E-02  0.19572735498E-01  0.24814839997E-01  0.00000000000E+00 0. -1.
     999901    1    3    3    0    0 -0.77726309995E-01  0.73594027167E-01  0.27747328994E-01  0.88692016234E+00  0.88000000000E+00 0.  1.
        -11    1    4    4    0    0  0.19670234055E-01 -0.15211953118E-01 -0.18172583881E-01  0.30803012050E-01  0.51100000000E-03 0. -1.
         11    1    4    4    0    0  0.71330007781E-01 -0.65897860281E-01 -0.29147480610E-01  0.10139198561E+00  0.51100000000E-03 0.  1.
</event>
<event>
 8    1  0.1115874E+005  0.1043930E+01  0.7957747E-01            NaN
         13   -1    0    0    0    0  0.00000000000E+00  0.00000000000E+00  0.74505805969E-08  0.10566000000E+00  0.10566000000E+00 0.  1.
     999900   -1    0    0    0    0 -0.00000000000E+00 -0.00000000000E+00 -0.74505805969E-08  0.93827000000E+00  0.93827000000E+00 0. -1.
     999902    2    1    2    0    0 -0.22889254280E-02  0.11040058543E-01 -0.21752626638E-01  0.10194290033E+01  0.10191345318E+01 0.  0.
     999903    2    3    3    0    0 -0.40423375024E-01 -0.71966846786E-01  0.94724323590E-01  0.12706626177E+00  0.18970005725E-01 0.  0.
         14    1    1    2    0    0  0.22889254280E-02 -0.11040058543E-01  0.21752626638E-01  0.24500996672E-01  0.00000000000E+00 0.  1.
     999901    1    3    3    0    0  0.38134449596E-01  0.83006905329E-01 -0.11647695023E+00  0.89236274155E+00  0.88000000000E+00 0. -1.
        -11    1    4    4    0    0 -0.12429968349E-01 -0.25831768650E-01  0.20278658201E-01  0.35117936787E-01  0.51100000000E-03 0.  1.
         11    1    4    4    0    0 -0.27993406675E-01 -0.46135078136E-01  0.74445665388E-01  0.91948324988E-01  0.51100000000E-03 0. -1.
</event>
<event>
 8    1  0.1115874E+005  0.1043930E+01  0.7957747E-01            NaN
         13   -1    0    0    0    0  0.00000000000E+00  0.00000000000E+00  0.74505805969E-08  0.10566000000E+00  0.10566000000E+00 0. -1.
     999900   -1    0    0    0    0 -0.00000000000E+00 -0.00000000000E+00 -0.74505805969E-08  0.93827000000E+00  0.93827000000E+00 0. -1.
     999902    2    1    2    0    0  0.91318510434E-02  0.14786599866E-02 -0.20937897784E-01  0.10210395500E+01  0.10207829299E+01 0.  0.
     999903    2    3    3    0    0  0.12297730028E+00  0.18667064840E-01 -0.43263922328E-01  0.13325878934E+00  0.20353433836E-01 0.  0.
         14    1    1    2    0    0 -0.91318510434E-02 -0.14786599866E-02  0.20937897784E-01  0.22890450027E-01  0.00000000000E+00 0. -1.
     999901    1    3    3    0    0 -0.11384544923E+00 -0.17188404854E-01  0.22326024544E-01  0.88778076063E+00  0.88000000000E+00 0.  1.
        -11    1    4    4    0    0  0.89659238752E-01  0.83150405514E-02 -0.23110309784E-01  0.92963791512E-01  0.51100000000E-03 0. -1.
         11    1    4    4    0    0  0.33318061524E-01  0.10352024289E-01 -0.20153612544E-01  0.40294997831E-01  0.51100000000E-03 0.  1.
</event>
<event>
 8    1  0.1115874E+005  0.1043930E+01  0.7957747E-01            NaN
         13   -1    0    0    0    0  0.00000000000E+00  0.00000000000E+00  0.74505805969E-08  0.10566000000E+00  0.10566000000E+00 0. -1.
     999900   -1    0    0    0    0 -0.00000000000E+00 -0.00000000000E+00 -0.74505805969E-08  0.93827000000E+00  0.93827000000E+00 0. -1.
     999902    2    1    2    0    0 -0.89542054071E-02  0.15438799125E-01  0.16357460636E-01  0.10197204806E+01  0.10194330570E+01 0.  0.
     999903    2    3    3    0    0  0.97160187184E-01  0.81065512506E-01  0.26180302804E-01  0.13086525160E+00  0.20702331519E-01 0.  0.
         14    1    1    2    0    0  0.89542054071E-02 -0.15438799125E-01 -0.16357460636E-01  0.24209519437E-01  0.00000000000E+00 0.  1.
     999901    1    3    3    0    0 -0.10611439259E+00 -0.65626713381E-01 -0.98228421674E-02  0.88885522896E+00  0.88000000000E+00 0. -1.
        -11    1    4    4    0    0  0.30216360622E-01  0.35613896865E-01  0.15679810149E-01  0.49269622146E-01  0.51100000000E-03 0. -1.
         11    1    4    4    0    0  0.66943826562E-01  0.45451615641E-01  0.10500492655E-01  0.81595629455E-01  0.51100000000E-03 0.  1.
</event>
<event>
 8    1  0.1115874E+005  0.1043930E+01  0.7957747E-01            NaN
         13   -1    0    0    0    0  0.00000000000E+00  0.00000000000E+00  0.74505805969E-08  0.10566000000E+00  0.10566000000E+00 0.  1.
     999900   -1    0    0    0    0 -0.00000000000E+00 -0.00000000000E+00 -0.74505805969E-08  0.93827000000E+00  0.93827000000E+00 0. -1.
     999902    2    1    2    0    0 -0.18025060935E-01 -0.84480639058E-02  0.14469557120E-01  0.10193202318E+01  0.10190231079E+01 0.  0.
     999903    2    3    3    0    0  0.16931890174E-01  0.12550127824E+00  0.73225275133E-02  0.12846923716E+00  0.20333857037E-01 0.  0.
         14    1    1    2    0    0  0.18025060935E-01  0.84480639058E-02 -0.14469557120E-01  0.24609768156E-01  0.00000000000E+00 0. -1.
     999901    1    3    3    0    0 -0.34956951108E-01 -0.13394934215E+00  0.71470296068E-02  0.89085099468E+00  0.88000000000E+00 0.  1.
        -11    1    4    4    0    0  0.98505976286E-02  0.11024508779E+00  0.16048985240E-02  0.11069711142E+00  0.51100000000E-03 0.  1.
         11    1    4    4    0    0  0.70812925452E-02  0.15256190454E-01  0.57176289892E-02  0.17772125746E-01  0.51100000000E-03 0. -1.
</event>
<event>
 8    1  0.1115874E+005  0.1043930E+01  0.7957747E-01            NaN
         13   -1    0    0    0    0  0.00000000000E+00  0.00000000000E+00  0.74505805969E-08  0.10566000000E+00  0.10566000000E+00 0.  1.
     999900   -1    0    0    0    0 -0.00000000000E+00 -0.00000000000E+00 -0.74505805969E-08  0.93827000000E+00  0.93827000000E+00 0.  1.
     999902    2    1    2    0    0  0.82134913906E-02 -0.18457612395E-01 -0.11853495600E-01  0.10205067156E+01  0.10202378675E+01 0.  0.
     999903    2    3    3    0    0  0.11205775068E+00 -0.13801347044E-01  0.64362084103E-01  0.13111696658E+00  0.17371366915E-01 0.  0.
         14    1    1    2    0    0 -0.82134913906E-02  0.18457612395E-01  0.11853495600E-01  0.23423284443E-01  0.00000000000E+00 0.  1.
     999901    1    3    3    0    0 -0.10384425929E+00 -0.46562653519E-02 -0.76215579703E-01  0.88938974898E+00  0.88000000000E+00 0. -1.
        -11    1    4    4    0    0  0.56639763973E-01 -0.60857546870E-02  0.22563216500E-01  0.61273641420E-01  0.51100000000E-03 0. -1.
         11    1    4    4    0    0  0.55417986703E-01 -0.77155923566E-02  0.41798867603E-01  0.69843325161E-01  0.51100000000E-03 0.  1.
</event>
<event>
 8    1  0.1115874E+005  0.1043930E+01  0.7957747E-01            NaN
         13   -1    0    0    0    0  0.00000000000E+00  0.00000000000E+00  0.74505805969E-08  0.10566000000E+00  0.10566000000E+00 0. -1.
     999900   -1    0    0    0    0 -0.00000000000E+00 -0.00000000000E+00 -0.74505805969E-08  0.93827000000E+00  0.93827000000E+00 0. -1.
     999902    2    1    2    0    0  0.11033630411E-01  0.17638872814E-01 -0.10334200098E-01  0.10206992763E+01  0.10204348808E+01 0.  0.
     999903    2    3    3    0    0 -0.12007269846E+00  0.45398202385E-01  0.98886657883E-02  0.13032384187E+00  0.20200701832E-01 0.  0.
         14    1    1    2    0    0 -0.11033630411E-01 -0.17638872814E-01  0.10334200098E-01  0.23230723748E-01  0.00000000000E+00 0.  1.
     999901    1    3    3    0    0  0.13110632887E+00 -0.27759329572E-01 -0.20222865886E-01  0.89037543438E+00  0.88000000000E+00 0.  1.
        -11    1    4    4    0    0 -0.11486672712E+00  0.46776089476E-01  0.11799738197E-01  0.12458676690E+00  0.51100000000E-03 0.  1.
         11    1    4    4    0    0 -0.52059713396E-02 -0.13778870903E-02 -0.19110724084E-02  0.57370749666E-02  0.51100000000E-03 0. -1.
</event>
<event>
 8    1  0.1115874E+005  0.1043930E+01  0.7957747E-01            NaN
         13   -1    0    0    0    0  0.00000000000E+00  0.00000000000E+00  0.74505805969E-08  0.10566000000E+00  0.10566000000E+00 0.  1.
     999900   -1    0    0    0    0 -0.00000000000E+00 -0.00000000000E+00 -0.74505805969E-08  0.93827000000E+00  0.93827000000E+00 0. -1.
     999902    2    1    2    0    0 -0.42349010250E-03 -0.13375341451E-01  0.19553672927E-01  0.10202355866E+01  0.10199604046E+01 0.  0.
     999903    2    3    3    0    0  0.10170739603E+00  0.18549910649E-01 -0.74239388822E-01  0.12880579233E+00  0.19772498411E-01 0.  0.
         14    1    1    2    0    0  0.42349010250E-03  0.13375341451E-01 -0.19553672927E-01  0.23694413429E-01  0.00000000000E+00 0. -1.
     999901    1    3    3    0    0 -0.10213088613E+00 -0.31925252100E-01  0.93793061749E-01  0.89142979424E+00  0.88000000000E+00 0.  1.
        -11    1    4    4    0    0  0.73874463983E-01  0.84172266392E-02 -0.61767170928E-01  0.96662974600E-01  0.51100000000E-03 0.  1.
         11    1    4    4    0    0  0.27832932047E-01  0.10132684010E-01 -0.12472217894E-01  0.32142817732E-01  0.51100000000E-03 0. -1.
</event>
<event>
 8    1  0.1115874E+005  0.1043930E+01  0.7957747E-01            NaN
         13   -1    0    0    0    0  0.00000000000E+00  0.00000000000E+00  0.74505805969E-08  0.10566000000E+00  0.10566000000E+00 0.  1.
     999900   -1    0    0    0    0 -0.00000000000E+00 -0.00000000000E+00 -0.74505805969E-08  0.93827000000E+00  0.93827000000E+00 0.  1.
     999902    2    1    2    0    0  0.11310367083E-01  0.18390511490E-01 -0.21104185879E-02  0.10222369324E+01  0.10220067303E+01 0.  0.
     999903    2    3    3    0    0  0.30418066295E-01  0.89114930391E-01 -0.93838399397E-01  0.13444130834E+00  0.20052197130E-01 0.  0.
         14    1    1    2    0    0 -0.11310367083E-01 -0.18390511490E-01  0.21104185879E-02  0.21693067626E-01  0.00000000000E+00 0. -1.
     999901    1    3    3    0    0 -0.19107699212E-01 -0.70724418901E-01  0.91727980810E-01  0.88779562404E+00  0.88000000000E+00 0. -1.
        -11    1    4    4    0    0  0.17733988183E-01  0.73564900169E-01 -0.79602210280E-01  0.10983197110E+00  0.51100000000E-03 0.  1.
         11    1    4    4    0    0  0.12684078113E-01  0.15550030222E-01 -0.14236189117E-01  0.24609337233E-01  0.51100000000E-03 0. -1.
</event>
<event>
 8    1  0.1115874E+005  0.1043930E+01  0.7957747E-01            NaN
         13   -1    0    0    0    0  0.00000000000E+00  0.00000000000E+00  0.74505805969E-08  0.10566000000E+00  0.10566000000E+00 0.  1.
     999900   -1    0    0    0    0 -0.00000000000E+00 -0.00000000000E+00 -0.74505805969E-08  0.93827000000E+00  0.93827000000E+00 0.  1.
     999902    2    1    2    0    0 -0.13814471679E-01 -0.11433263019E-01  0.14492270094E-01  0.10208738723E+01  0.10206134813E+01 0.  0.
     999903    2    3    3    0    0  0.12577803417E+00 -0.54632969628E-02 -0.20551501715E-01  0.12916216211E+00  0.20261747331E-01 0.  0.
         14    1    1    2    0    0  0.13814471679E-01  0.11433263019E-01 -0.14492270094E-01  0.23056127678E-01  0.00000000000E+00 0. -1.
     999901    1    3    3    0    0 -0.13959250585E+00 -0.59699660560E-02  0.35043771810E-01  0.89171171021E+00  0.88000000000E+00 0.  1.
        -11    1    4    4    0    0  0.71269255706E-01  0.21938820768E-02 -0.29335427797E-02  0.71365164623E-01  0.51100000000E-03 0. -1.
         11    1    4    4    0    0  0.54508778465E-01 -0.76571790397E-02 -0.17617958936E-01  0.57796997488E-01  0.51100000000E-03 0.  1.
</event>
<event>
 8    1  0.1115874E+005  0.1043930E+01  0.7957747E-01            NaN
         13   -1    0    0    0    0  0.00000000000E+00  0.00000000000E+00  0.74505805969E-08  0.10566000000E+00  0.10566000000E+00 0. -1.
     999900   -1    0    0    0    0 -0.00000000000E+00 -0.00000000000E+00 -0.74505805969E-08  0.93827000000E+00  0.93827000000E+00 0. -1.
     999902    2    1    2    0    0 -0.13696662679E-01 -0.13815613612E-01  0.12604095962E-01  0.10207495560E+01  0.10204863170E+01 0.  0.
     999903    2    3    3    0    0 -0.11474588327E+00  0.41258341298E-01  0.48075901564E-01  0.13254781403E+00  0.19717054493E-01 0.  0.
         14    1    1    2    0    0  0.13696662679E-01  0.13815613612E-01 -0.12604095962E-01  0.23180443978E-01  0.00000000000E+00 0.  1.
     999901    1    3    3    0    0  0.10104922059E+00 -0.55073954911E-01 -0.35471805602E-01  0.88820174200E+00  0.88000000000E+00 0.  1.
        -11    1    4    4    0    0 -0.68591761039E-01  0.31228265393E-01  0.21611174761E-01  0.78404963092E-01  0.51100000000E-03 0. -1.
         11    1    4    4    0    0 -0.46154122230E-01  0.10030075906E-01  0.26464726802E-01  0.54142850934E-01  0.51100000000E-03 0.  1.
</event>
<event>
 8    1  0.1115874E+005  0.1043930E+01  0.7957747E-01            NaN
         13   -1    0    0    0    0  0.00000000000E+00  0.00000000000E+00  0.74505805969E-08  0.10566000000E+00  0.10566000000E+00 0.  1.
     999900   -1    0    0    0    0 -0.00000000000E+00 -0.00000000000E+00 -0.74505805969E-08  0.93827000000E+00  0.93827000000E+00 0. -1.
     999902    2    1    2    0    0  0.21995807231E-02 -0.26302807240E-02  0.23511373458E-01  0.10201699239E+01  0.10198931966E+01 0.  0.
     999903    2    3    3    0    0 -0.12521524545E+00 -0.50513292792E-02  0.32424043714E-01  0.13094563554E+00  0.19775420007E-01 0.  0.
         14    1    1    2    0    0 -0.21995807231E-02  0.26302807240E-02 -0.23511373458E-01  0.23760076050E-01  0.00000000000E+00 0. -1.
     999901    1    3    3    0    0  0.12741482617E+00  0.24210485552E-02 -0.89126702565E-02  0.88922428841E+00  0.88000000000E+00 0.  1.
        -11    1    4    4    0    0 -0.62403127412E-01 -0.11430113124E-02  0.60536149273E-02  0.62708565287E-01  0.51100000000E-03 0. -1.
         11    1    4    4    0    0 -0.62812118036E-01 -0.39083179668E-02  0.26370428787E-01  0.68237070254E-01  0.51100000000E-03 0.  1.
</event>
<event>
 8    1  0.1115874E+005  0.1043930E+01  0.7957747E-01            NaN
         13   -1    0    0    0    0  0.00000000000E+00  0.00000000000E+00  0.74505805969E-08  0.10566000000E+00  0.10566000000E+00 0. -1.
     999900   -1    0    0    0    0 -0.00000000000E+00 -0.00000000000E+00 -0.74505805969E-08  0.93827000000E+00  0.93827000000E+00 0. -1.
     999902    2    1    2    0    0 -0.76087791668E-02 -0.21843004256E-01 -0.92025592955E-03  0.10207814098E+01  0.10205189021E+01 0.  0.
     999903    2    3    3    0    0 -0.10050458882E+00 -0.84380022758E-01 -0.14529026982E-01  0.13358035665E+00  0.20284438479E-01 0.  0.
         14    1    1    2    0    0  0.76087791668E-02  0.21843004256E-01  0.92025592955E-03  0.23148590158E-01  0.00000000000E+00 0. -1.
     999901    1    3    3    0    0  0.92895809649E-01  0.62537018502E-01  0.13608771052E-01  0.88720105319E+00  0.88000000000E+00 0. -1.
        -11    1    4    4    0    0 -0.38237825956E-01 -0.31545538359E-01 -0.15407070776E-01  0.51912342223E-01  0.51100000000E-03 0.  1.
         11    1    4    4    0    0 -0.62266762860E-01 -0.52834484398E-01  0.87804379463E-03  0.81668014428E-01  0.51100000000E-03 0. -1.
</event>
<event>
 8    1  0.1115874E+005  0.1043930E+01  0.7957747E-01            NaN
         13   -1    0    0    0    0  0.00000000000E+00  0.00000000000E+00  0.74505805969E-08  0.10566000000E+00  0.10566000000E+00 0. -1.
     999900   -1    0    0    0    0 -0.00000000000E+00 -0.00000000000E+00 -0.74505805969E-08  0.93827000000E+00  0.93827000000E+00 0.  1.
     999902    2    1    2    0    0 -0.10862277518E-02  0.16099919997E-01 -0.16982603001E-01  0.10205036021E+01  0.10202346817E+01 0.  0.
     999903    2    3    3    0    0 -0.49972618708E-01 -0.16886998877E-01  0.11562717963E+00  0.12861606966E+00  0.19748806444E-01 0.  0.
         14    1    1    2    0    0  0.10862277518E-02 -0.16099919997E-01  0.16982603001E-01  0.23426397916E-01  0.00000000000E+00 0. -1.
     999901    1    3    3    0    0  0.48886390957E-01  0.32986918874E-01 -0.13260978263E+00  0.89188753242E+00  0.88000000000E+00 0.  1.
        -11    1    4    4    0    0 -0.33876421729E-01 -0.57223525410E-02  0.54523700806E-01  0.64447283405E-01  0.51100000000E-03 0. -1.
         11    1    4    4    0    0 -0.16096196979E-01 -0.11164646336E-01  0.61103478820E-01  0.64168786259E-01  0.51100000000E-03 0.  1.
</event>
<event>
 8    1  0.1115874E+005  0.1043930E+01  0.7957747E-01            NaN
         13   -1    0    0    0    0  0.00000000000E+00  0.00000000000E+00  0.74505805969E-08  0.10566000000E+00  0.10566000000E+00 0.  1.
     999900   -1    0    0    0    0 -0.00000000000E+00 -0.00000000000E+00 -0.74505805969E-08  0.93827000000E+00  0.93827000000E+00 0.  1.
     999902    2    1    2    0    0  0.15556124479E-01 -0.17706395202E-01  0.24497876357E-02  0.10202337788E+01  0.10199585543E+01 0.  0.
     999903    2    3    3    0    0 -0.87329308610E-01 -0.19092154408E-01 -0.90622380835E-01  0.12936355188E+00  0.23056325454E-01 0.  0.
         14    1    1    2    0    0 -0.15556124479E-01  0.17706395202E-01 -0.24497876357E-02  0.23696221203E-01  0.00000000000E+00 0.  1.
     999901    1    3    3    0    0  0.10288543309E+00  0.13857592060E-02  0.93072168470E-01  0.89087022692E+00  0.88000000000E+00 0. -1.
        -11    1    4    4    0    0 -0.25897606517E-01  0.31609707092E-02 -0.18156557681E-01  0.31789927130E-01  0.51100000000E-03 0. -1.
         11    1    4    4    0    0 -0.61431702094E-01 -0.22253125117E-01 -0.72465823154E-01  0.97573624746E-01  0.51100000000E-03 0.  1.
</event>
<event>
 8    1  0.1115874E+005  0.1043930E+01  0.7957747E-01            NaN
         13   -1    0    0    0    0  0.00000000000E+00  0.00000000000E+00  0.74505805969E-08  0.10566000000E+00  0.10566000000E+00 0. -1.
     999900   -1    0    0    0    0 -0.00000000000E+00 -0.00000000000E+00 -0.74505805969E-08  0.93827000000E+00  0.93827000000E+00 0. -1.
     999902    2    1    2    0    0  0.18697953419E-01 -0.11479674626E-01  0.11199232116E-02  0.10219606891E+01  0.10217245223E+01 0.  0.
     999903    2    3    3    0    0  0.40562288410E-01 -0.12498142351E+00 -0.16565683304E-01  0.13422566290E+00  0.21827763378E-01 0.  0.
         14    1    1    2    0    0 -0.18697953419E-01  0.11479674626E-01 -0.11199232116E-02  0.21969310858E-01  0.00000000000E+00 0. -1.
     999901    1    3    3    0    0 -0.21864334991E-01  0.11350174888E+00  0.17685606515E-01  0.88773502624E+00  0.88000000000E+00 0.  1.
        -11    1    4    4    0    0  0.14294042223E-01 -0.45686805352E-01  0.44763890064E-02  0.48082252505E-01  0.51100000000E-03 0.  1.
         11    1    4    4    0    0  0.26268246187E-01 -0.79294618154E-01 -0.21042072310E-01  0.86143410393E-01  0.51100000000E-03 0. -1.
</event>
<event>
 8    1  0.1155032E+005  0.1043930E+01  0.7957747E-01            NaN
         13   -1    0    0    0    0  0.00000000000E+00  0.00000000000E+00  0.74505805969E-08  0.10566000000E+00  0.10566000000E+00 0.  1.
     999900   -1    0    0    0    0 -0.00000000000E+00 -0.00000000000E+00 -0.74505805969E-08  0.93827000000E+00  0.93827000000E+00 0.  1.
     999902    2    1    2    0    0 -0.19359027287E-01 -0.80281044725E-02  0.12126391273E-01  0.10197169505E+01  0.10194294421E+01 0.  0.
     999903    2    3    3    0    0 -0.66864184954E-01 -0.38676534673E-01  0.10642615527E+00  0.13287507525E+00  0.19041153686E-01 0.  0.
         14    1    1    2    0    0  0.19359027287E-01  0.80281044725E-02 -0.12126391273E-01  0.24213049462E-01  0.00000000000E+00 0. -1.
     999901    1    3    3    0    0  0.47505157667E-01  0.30648430201E-01 -0.94299763992E-01  0.88684187529E+00  0.88000000000E+00 0.  1.
        -11    1    4    4    0    0 -0.17583490952E-01 -0.43918984261E-02  0.36184789618E-01  0.40473053339E-01  0.51100000000E-03 0.  1.
         11    1    4    4    0    0 -0.49280694003E-01 -0.34284636247E-01  0.70241365647E-01  0.92402021910E-01  0.51100000000E-03 0. -1.
</event>
<event>
 8    1  0.1115874E+005  0.1043930E+01  0.7957747E-01            NaN
         13   -1    0    0    0    0  0.00000000000E+00  0.00000000000E+00  0.74505805969E-08  0.10566000000E+00  0.10566000000E+00 0.  1.
     999900   -1    0    0    0    0 -0.00000000000E+00 -0.00000000000E+00 -0.74505805969E-08  0.93827000000E+00  0.93827000000E+00 0. -1.
     999902    2    1    2    0    0 -0.18823616601E-01 -0.90191050187E-02  0.10273868863E-01  0.10206657532E+01  0.10204005854E+01 0.  0.
     999903    2    3    3    0    0  0.24309099464E-01  0.58824618027E-02 -0.12498503105E+00  0.12916283235E+00  0.20886445394E-01 0.  0.
         14    1    1    2    0    0  0.18823616601E-01  0.90191050187E-02 -0.10273868863E-01  0.23264246789E-01  0.00000000000E+00 0. -1.
     999901    1    3    3    0    0 -0.43132716065E-01 -0.14901566821E-01  0.13525889991E+00  0.89150292086E+00  0.88000000000E+00 0.  1.
        -11    1    4    4    0    0  0.14392540765E-01  0.12426724594E-01 -0.55544689172E-01  0.58711517865E-01  0.51100000000E-03 0.  1.
         11    1    4    4    0    0  0.99165586998E-02 -0.65442627910E-02 -0.69440341880E-01  0.70451314489E-01  0.51100000000E-03 0. -1.
</event>
<event>
 8    1  0.1115874E+005  0.1043930E+01  0.7957747E-01            NaN
         13   -1    0    0    0    0  0.00000000000E+00  0.00000000000E+00  0.74505805969E-08  0.10566000000E+00  0.10566000000E+00 0. -1.
     999900   -1    0    0    0    0 -0.00000000000E+00 -0.00000000000E+00 -0.74505805969E-08  0.93827000000E+00  0.93827000000E+00 0.  1.
     999902    2    1    2    0    0  0.43461640930E-02 -0.86371684582E-02  0.23572015940E-01  0.10184519750E+01  0.10181332406E+01 0.  0.
     999903    2    3    3    0    0 -0.34412948904E-01 -0.12314883262E+00 -0.63858378337E-03  0.12985682356E+00  0.22638480697E-01 0.  0.
         14    1    1    2    0    0 -0.43461640930E-02  0.86371684582E-02 -0.23572015940E-01  0.25478024978E-01  0.00000000000E+00 0.  1.
     999901    1    3    3    0    0  0.38759112997E-01  0.11451166416E+00  0.24210599723E-01  0.88859515147E+00  0.88000000000E+00 0.  1.
        -11    1    4    4    0    0 -0.44593752137E-02 -0.46748198328E-01 -0.72809136129E-02  0.47524234852E-01  0.51100000000E-03 0. -1.
         11    1    4    4    0    0 -0.29953573691E-01 -0.76400634287E-01  0.66423298296E-02  0.82332588705E-01  0.51100000000E-03 0.  1.
</event>
<event>
 8    1  0.1115874E+005  0.1043930E+01  0.7957747E-01            NaN
         13   -1    0    0    0    0  0.00000000000E+00  0.00000000000E+00  0.74505805969E-08  0.10566000000E+00  0.10566000000E+00 0.  1.
     999900   -1    0    0    0    0 -0.00000000000E+00 -0.00000000000E+00 -0.74505805969E-08  0.93827000000E+00  0.93827000000E+00 0. -1.
     999902    2    1    2    0    0 -0.91265889832E-02 -0.21235629842E-01 -0.19152865530E-03  0.10208154313E+01  0.10205537034E+01 0.  0.
     999903    2    3    3    0    0 -0.10683246973E+00 -0.66235931303E-01  0.40023298832E-01  0.13335348927E+00  0.19517004550E-01 0.  0.
         14    1    1    2    0    0  0.91265889832E-02  0.21235629842E-01  0.19152865530E-03  0.23114568663E-01  0.00000000000E+00 0.  1.
     999901    1    3    3    0    0  0.97705880751E-01  0.45000301461E-01 -0.40214827487E-01  0.88746194207E+00  0.88000000000E+00 0. -1.
        -11    1    4    4    0    0 -0.34633466332E-01 -0.17955311739E-01  0.36366594286E-02  0.39183626971E-01  0.51100000000E-03 0. -1.
         11    1    4    4    0    0 -0.72199003402E-01 -0.48280619563E-01  0.36386639403E-01  0.94169862301E-01  0.51100000000E-03 0.  1.
</event>
<event>
 8    1  0.1115874E+005  0.1043930E+01  0.7957747E-01            NaN
         13   -1    0    0    0    0  0.00000000000E+00  0.00000000000E+00  0.74505805969E-08  0.10566000000E+00  0.10566000000E+00 0.  1.
     999900   -1    0    0    0    0 -0.00000000000E+00 -0.00000000000E+00 -0.74505805969E-08  0.93827000000E+00  0.93827000000E+00 0. -1.
     999902    2    1    2    0    0  0.10080149512E-02 -0.18616336956E-01 -0.18029745393E-01  0.10179943910E+01  0.10176639545E+01 0.  0.
     999903    2    3    3    0    0 -0.14971890402E-01 -0.75763842899E-01 -0.10489814903E+00  0.13172845214E+00  0.19607295592E-01 0.  0.
         14    1    1    2    0    0 -0.10080149512E-02  0.18616336956E-01  0.18029745393E-01  0.25935609011E-01  0.00000000000E+00 0.  1.
     999901    1    3    3    0    0  0.15979905353E-01  0.57147505942E-01  0.86868403639E-01  0.88626593885E+00  0.88000000000E+00 0. -1.
        -11    1    4    4    0    0 -0.31412423407E-02 -0.42925260545E-01 -0.44117777033E-01  0.61636716068E-01  0.51100000000E-03 0. -1.
         11    1    4    4    0    0 -0.11830648061E-01 -0.32838582353E-01 -0.60780371999E-01  0.70091736074E-01  0.51100000000E-03 0.  1.
</event>
<event>
 8    1  0.1115874E+005  0.1043930E+01  0.7957747E-01            NaN
         13   -1    0    0    0    0  0.00000000000E+00  0.00000000000E+00  0.74505805969E-08  0.10566000000E+00  0.10566000000E+00 0. -1.
     999900   -1    0    0    0    0 -0.00000000000E+00 -0.00000000000E+00 -0.74505805969E-08  0.93827000000E+00  0.93827000000E+00 0. -1.
     999902    2    1    2    0    0 -0.18488454831E-01  0.19593021522E-01 -0.40247163963E-02  0.10166920156E+01  0.10163270865E+01 0.  0.
     999903    2    3    3    0    0 -0.33198856145E-02  0.28576855117E-01 -0.12350652353E+00  0.12844278421E+00  0.20396793165E-01 0.  0.
         14    1    1    2    0    0  0.18488454831E-01 -0.19593021522E-01  0.40247163963E-02  0.27237984442E-01  0.00000000000E+00 0.  1.
     999901    1    3    3    0    0 -0.15168569216E-01 -0.89838335948E-02  0.11948180713E+00  0.88824923135E+00  0.88000000000E+00 0.  1.
        -11    1    4    4    0    0 -0.79372440256E-02  0.77623450646E-02 -0.69411286239E-01  0.70295388341E-01  0.51100000000E-03 0. -1.
         11    1    4    4    0    0  0.46173584111E-02  0.20814510053E-01 -0.54095237291E-01  0.58147395866E-01  0.51100000000E-03 0.  1.
</event>
<event>
 8    1  0.1115874E+005  0.1043930E+01  0.7957747E-01            NaN
         13   -1    0    0    0    0  0.00000000000E+00  0.00000000000E+00  0.74505805969E-08  0.10566000000E+00  0.10566000000E+00 0. -1.
     999900   -1    0    0    0    0 -0.00000000000E+00 -0.00000000000E+00 -0.74505805969E-08  0.93827000000E+00  0.93827000000E+00 0. -1.
     999902    2    1    2    0    0 -0.15914578371E-01 -0.17903378241E-01  0.78252482856E-03  0.10199629997E+01  0.10196813736E+01 0.  0.
     999903    2    3    3    0    0 -0.11231105676E+00 -0.22803586339E-01  0.63443223350E-01  0.13247065822E+00  0.19739698054E-01 0.  0.
         14    1    1    2    0    0  0.15914578371E-01  0.17903378241E-01 -0.78252482856E-03  0.23967000277E-01  0.00000000000E+00 0.  1.
     999901    1    3    3    0    0  0.96396478392E-01  0.49002080976E-02 -0.62660698521E-01  0.88749234150E+00  0.88000000000E+00 0. -1.
        -11    1    4    4    0    0 -0.92532672038E-01 -0.16039005716E-01  0.43220997796E-01  0.10338211098E+00  0.51100000000E-03 0.  1.
         11    1    4    4    0    0 -0.19778384725E-01 -0.67645806229E-02  0.20222225553E-01  0.29088547242E-01  0.51100000000E-03 0. -1.
</event>
<event>
 8    1  0.1115874E+005  0.1043930E+01  0.7957747E-01            NaN
         13   -1    0    0    0    0  0.00000000000E+00  0.00000000000E+00  0.74505805969E-08  0.10566000000E+00  0.10566000000E+00 0.  1.
     999900   -1    0    0    0    0 -0.00000000000E+00 -0.00000000000E+00 -0.74505805969E-08  0.93827000000E+00  0.93827000000E+00 0.  1.
     999902    2    1    2    0    0  0.14961007827E-01  0.17365120918E-01 -0.63309932024E-02  0.10201505834E+01  0.10198734000E+01 0.  0.
     999903    2    3    3    0    0  0.31500032622E-01 -0.85336624528E-01 -0.90768155750E-01  0.13000968314E+00  0.19724808544E-01 0.  0.
         14    1    1    2    0    0 -0.14961007827E-01 -0.17365120918E-01  0.63309932024E-02  0.23779416617E-01  0.00000000000E+00 0.  1.
     999901    1    3    3    0    0 -0.16539024795E-01  0.10270174545E+00  0.84437162548E-01  0.89014090024E+00  0.88000000000E+00 0. -1.
        -11    1    4    4    0    0  0.25372554229E-01 -0.52890104412E-01 -0.68463319218E-01  0.90158842341E-01  0.51100000000E-03 0. -1.
         11    1    4    4    0    0  0.61274783935E-02 -0.32446520115E-01 -0.22304836532E-01  0.39850840804E-01  0.51100000000E-03 0.  1.
</event>
<event>
 8    1  0.1115874E+005  0.1043930E+01  0.7957747E-01            NaN
         13   -1    0    0    0    0  0.00000000000E+00  0.00000000000E+00  0.74505805969E-08  0.10566000000E+00  0.10566000000E+00 0.  1.
     999900   -1    0    0    0    0 -0.00000000000E+00 -0.00000000000E+00 -0.74505805969E-08  0.93827000000E+00  0.93827000000E+00 0. -1.
     999902    2    1    2    0    0  0.42607111600E-02  0.19621230126E-01  0.10919709111E-01  0.10210742266E+01  0.10208183922E+01 0.  0.
     999903    2    3    3    0    0  0.11721639015E+00  0.59302367562E-01  0.53113142416E-02  0.13294978025E+00  0.19773241794E-01 0.  0.
         14    1    1    2    0    0 -0.42607111600E-02 -0.19621230126E-01 -0.10919709111E-01  0.22855773413E-01  0.00000000000E+00 0. -1.
     999901    1    3    3    0    0 -0.11295567899E+00 -0.39681137437E-01  0.56083948695E-02  0.88812444634E+00  0.88000000000E+00 0. -1.
        -11    1    4    4    0    0  0.78171597839E-02  0.19569292455E-02 -0.41317977677E-02  0.90703050087E-02  0.51100000000E-03 0. -1.
         11    1    4    4    0    0  0.10939923037E+00  0.57345438317E-01  0.94431120093E-02  0.12387947524E+00  0.51100000000E-03 0.  1.
</event>
<event>
 8    1  0.1115874E+005  0.1043930E+01  0.7957747E-01            NaN
         13   -1    0    0    0    0  0.00000000000E+00  0.00000000000E+00  0.74505805969E-08  0.10566000000E+00  0.10566000000E+00 0.  1.
     999900   -1    0    0    0    0 -0.00000000000E+00 -0.00000000000E+00 -0.74505805969E-08  0.93827000000E+00  0.93827000000E+00 0. -1.
     999902    2    1    2    0    0  0.20724072445E-01  0.37638470599E-02 -0.10593401050E-01  0.10203530225E+01  0.10200805932E+01 0.  0.
     999903    2    3    3    0    0 -0.96531114747E-02  0.69184004671E-01 -0.11002416190E+00  0.13182106102E+00  0.19795627379E-01 0.  0.
         14    1    1    2    0    0 -0.20724072445E-01 -0.37638470599E-02  0.10593401050E-01  0.23576977525E-01  0.00000000000E+00 0.  1.
     999901    1    3    3    0    0  0.30377183919E-01 -0.65420157611E-01  0.99430760849E-01  0.88853196146E+00  0.88000000000E+00 0.  1.
        -11    1    4    4    0    0  0.17338219549E-02  0.32896977676E-01 -0.65067628135E-01  0.72933357463E-01  0.51100000000E-03 0. -1.
         11    1    4    4    0    0 -0.11386933430E-01  0.36287026995E-01 -0.44956533765E-01  0.58887703557E-01  0.51100000000E-03 0.  1.
</event>
<event>
 8    1  0.1115874E+005  0.1043930E+01  0.7957747E-01            NaN
         13   -1    0    0    0    0  0.00000000000E+00  0.00000000000E+00  0.74505805969E-08  0.10566000000E+00  0.10566000000E+00 0.  1.
     999900   -1    0    0    0    0 -0.00000000000E+00 -0.00000000000E+00 -0.74505805969E-08  0.93827000000E+00  0.93827000000E+00 0. -1.
     999902    2    1    2    0    0  0.30253666495E-02 -0.30687506111E-02 -0.22922417606E-01  0.10206060359E+01  0.10203394892E+01 0.  0.
     999903    2    3    3    0    0 -0.91444206817E-01 -0.14996423948E-01 -0.92863923960E-01  0.13271044290E+00  0.20035408433E-01 0.  0.
         14    1    1    2    0    0 -0.30253666495E-02  0.30687506111E-02  0.22922417606E-01  0.23323964127E-01  0.00000000000E+00 0.  1.
     999901    1    3    3    0    0  0.94469573466E-01  0.11927673337E-01  0.69941506354E-01  0.88789559297E+00  0.88000000000E+00 0.  1.
        -11    1    4    4    0    0 -0.23907818656E-01 -0.10218377759E-02 -0.36459406834E-01  0.43613958924E-01  0.51100000000E-03 0. -1.
         11    1    4    4    0    0 -0.67536388161E-01 -0.13974586172E-01 -0.56404517126E-01  0.89096483980E-01  0.51100000000E-03 0.  1.
</event>
<event>
 8    1  0.1115874E+005  0.1043930E+01  0.7957747E-01            NaN
         13   -1    0    0    0    0  0.00000000000E+00  0.00000000000E+00  0.74505805969E-08  0.10566000000E+00  0.10566000000E+00 0.  1.
     999900   -1    0    0    0    0 -0.00000000000E+00 -0.00000000000E+00 -0.74505805969E-08  0.93827000000E+00  0.93827000000E+00 0.  1.
     999902    2    1    2    0    0 -0.15035138972E-02  0.30044357886E-02 -0.23016444206E-01  0.10206696498E+01  0.10204045718E+01 0.  0.
     999903    2    3    3    0    0  0.79567529190E-01 -0.10051097533E-01 -0.10430632236E+00  0.13311626814E+00  0.20201873550E-01 0.  0.
         14    1    1    2    0    0  0.15035138972E-02 -0.30044357886E-02  0.23016444206E-01  0.23260350220E-01  0.00000000000E+00 0.  1.
     999901    1    3    3    0    0 -0.81071043088E-01  0.13055533321E-01  0.81289878155E-01  0.88755338164E+00  0.88000000000E+00 0. -1.
        -11    1    4    4    0    0  0.36798423649E-01 -0.10524057670E-01 -0.62595261279E-01  0.73371027174E-01  0.51100000000E-03 0. -1.
         11    1    4    4    0    0  0.42769105542E-01  0.47296013721E-03 -0.41711061082E-01  0.59745240963E-01  0.51100000000E-03 0.  1.
</event>
<event>
 8    1  0.1115874E+005  0.1043930E+01  0.7957747E-01            NaN
         13   -1    0    0    0    0  0.00000000000E+00  0.00000000000E+00  0.74505805969E-08  0.10566000000E+00  0.10566000000E+00 0.  1.
     999900   -1    0    0    0    0 -0.00000000000E+00 -0.00000000000E+00 -0.74505805969E-08  0.93827000000E+00  0.93827000000E+00 0. -1.
     999902    2    1    2    0    0 -0.29938024507E-02  0.14584942037E-01 -0.18399167679E-01  0.10202611859E+01  0.10199866052E+01 0.  0.
     999903    2    3    3    0    0 -0.29551178491E-02 -0.98093445710E-01 -0.84532991237E-01  0.13061513095E+00  0.16835350066E-01 0.  0.
         14    1    1    2    0    0  0.29938024507E-02 -0.14584942037E-01  0.18399167679E-01  0.23668814052E-01  0.00000000000E+00 0.  1.
     999901    1    3    3    0    0 -0.38684601576E-04  0.11267838775E+00  0.66133823558E-01  0.88964605500E+00  0.88000000000E+00 0. -1.
        -11    1    4    4    0    0 -0.60517640452E-02 -0.38808919692E-01 -0.42507074250E-01  0.57878049189E-01  0.51100000000E-03 0. -1.
         11    1    4    4    0    0  0.30966461961E-02 -0.59284526018E-01 -0.42025916987E-01  0.72737081757E-01  0.51100000000E-03 0.  1.
</event>
<event>
 8    1  0.1115874E+005  0.1043930E+01  0.7957747E-01            NaN
         13   -1    0    0    0    0  0.00000000000E+00  0.00000000000E+00  0.74505805969E-08  0.10566000000E+00  0.10566000000E+00 0. -1.
     999900   -1    0    0    0    0 -0.00000000000E+00 -0.00000000000E+00 -0.74505805969E-08  0.93827000000E+00  0.93827000000E+00 0. -1.
     999902    2    1    2    0    0  0.15995241031E-01  0.15383385037E-01 -0.73346827544E-02  0.10205570703E+01  0.10202893903E+01 0.  0.
     999903    2    3    3    0    0 -0.59691333690E-01  0.35397376496E-02 -0.11450356694E+00  0.13075153015E+00  0.20231429336E-01 0.  0.
         14    1    1    2    0    0 -0.15995241031E-01 -0.15383385037E-01  0.73346827544E-02  0.23372929682E-01  0.00000000000E+00 0. -1.
     999901    1    3    3    0    0  0.75686574721E-01  0.11843647387E-01  0.10716888419E+00  0.88980554017E+00  0.88000000000E+00 0.  1.
        -11    1    4    4    0    0 -0.42108003912E-01  0.58556602563E-02 -0.60783300276E-01  0.74177108760E-01  0.51100000000E-03 0.  1.
         11    1    4    4    0    0 -0.17583329778E-01 -0.23159226067E-02 -0.53720266668E-01  0.56574421389E-01  0.51100000000E-03 0. -1.
</event>
<event>
 8    1  0.1115874E+005  0.1043930E+01  0.7957747E-01            NaN
         13   -1    0    0    0    0  0.00000000000E+00  0.00000000000E+00  0.74505805969E-08  0.10566000000E+00  0.10566000000E+00 0. -1.
     999900   -1    0    0    0    0 -0.00000000000E+00 -0.00000000000E+00 -0.74505805969E-08  0.93827000000E+00  0.93827000000E+00 0. -1.
     999902    2    1    2    0    0 -0.14414483869E-01  0.10415806572E-01  0.12015602940E-01  0.10224674492E+01  0.10222421649E+01 0.  0.
     999903    2    3    3    0    0 -0.11944598280E-01  0.11819407916E+00  0.59876982981E-01  0.13459754430E+00  0.20462943689E-01 0.  0.
         14    1    1    2    0    0  0.14414483869E-01 -0.10415806572E-01 -0.12015602940E-01  0.21462550775E-01  0.00000000000E+00 0.  1.
     999901    1    3    3    0    0 -0.24698855886E-02 -0.10777827258E+00 -0.47861380041E-01  0.88786990493E+00  0.88000000000E+00 0. -1.
        -11    1    4    4    0    0 -0.57918235442E-04  0.44780594452E-01  0.12793442021E-01  0.46575082112E-01  0.51100000000E-03 0.  1.
         11    1    4    4    0    0 -0.11886680044E-01  0.73413484705E-01  0.47083540960E-01  0.88022462187E-01  0.51100000000E-03 0. -1.
</event>
<event>
 8    1  0.1115874E+005  0.1043930E+01  0.7957747E-01            NaN
         13   -1    0    0    0    0  0.00000000000E+00  0.00000000000E+00  0.74505805969E-08  0.10566000000E+00  0.10566000000E+00 0. -1.
     999900   -1    0    0    0    0 -0.00000000000E+00 -0.00000000000E+00 -0.74505805969E-08  0.93827000000E+00  0.93827000000E+00 0.  1.
     999902    2    1    2    0    0 -0.68769820495E-02 -0.19756420673E-01  0.63670724143E-02  0.10220633896E+01  0.10218294494E+01 0.  0.
     999903    2    3    3    0    0 -0.12091773847E+00 -0.53012231271E-01  0.12411712398E-01  0.13406126079E+00  0.19671677577E-01 0.  0.
         14    1    1    2    0    0  0.68769820495E-02  0.19756420673E-01 -0.63670724143E-02  0.21866610416E-01  0.00000000000E+00 0. -1.
     999901    1    3    3    0    0  0.11404075643E+00  0.33255810598E-01 -0.60446399837E-02  0.88800212879E+00  0.88000000000E+00 0. -1.
        -11    1    4    4    0    0 -0.99649007143E-01 -0.35412775138E-01  0.12129524242E-01  0.10644893493E+00  0.51100000000E-03 0.  1.
         11    1    4    4    0    0 -0.21268731331E-01 -0.17599456133E-01  0.28218815592E-03  0.27612325867E-01  0.51100000000E-03 0. -1.
</event>
<event>
 8    1  0.1115874E+005  0.1043930E+01  0.7957747E-01            NaN
         13   -1    0    0    0    0  0.00000000000E+00  0.00000000000E+00  0.74505805969E-08  0.10566000000E+00  0.10566000000E+00 0. -1.
     999900   -1    0    0    0    0 -0.00000000000E+00 -0.00000000000E+00 -0.74505805969E-08  0.93827000000E+00  0.93827000000E+00 0.  1.
     999902    2    1    2    0    0  0.12131555032E-01 -0.16094623474E-01 -0.13224247327E-01  0.10198241449E+01  0.10195392068E+01 0.  0.
     999903    2    3    3    0    0 -0.63084456315E-01  0.10096684694E+00  0.40485816625E-01  0.12727408626E+00  0.19637690217E-01 0.  0.
         14    1    1    2    0    0 -0.12131555032E-01  0.16094623474E-01  0.13224247327E-01  0.24105855091E-01  0.00000000000E+00 0.  1.
     999901    1    3    3    0    0  0.75216011347E-01 -0.11706147041E+00 -0.53710063953E-01  0.89255005865E+00  0.88000000000E+00 0. -1.
        -11    1    4    4    0    0 -0.72915732329E-02  0.27130073654E-01  0.10373915465E-01  0.29951413652E-01  0.51100000000E-03 0. -1.
         11    1    4    4    0    0 -0.55792883083E-01  0.73836773285E-01  0.30111901160E-01  0.97322672611E-01  0.51100000000E-03 0.  1.
</event>
<event>
 8    1  0.1115874E+005  0.1043930E+01  0.7957747E-01            NaN
         13   -1    0    0    0    0  0.00000000000E+00  0.00000000000E+00  0.74505805969E-08  0.10566000000E+00  0.10566000000E+00 0.  1.
     999900   -1    0    0    0    0 -0.00000000000E+00 -0.00000000000E+00 -0.74505805969E-08  0.93827000000E+00  0.93827000000E+00 0. -1.
     999902    2    1    2    0    0 -0.30365607310E-02  0.24535283827E-01 -0.33432386361E-02  0.10189824931E+01  0.10186770554E+01 0.  0.
     999903    2    3    3    0    0  0.65530393670E-01  0.13337031395E-01  0.10937540379E+00  0.12907670013E+00  0.15023536938E-01 0.  0.
         14    1    1    2    0    0  0.30365607310E-02 -0.24535283827E-01  0.33432386361E-02  0.24947506852E-01  0.00000000000E+00 0. -1.
     999901    1    3    3    0    0 -0.68566954401E-01  0.11198252432E-01 -0.11271864242E+00  0.88990579302E+00  0.88000000000E+00 0. -1.
        -11    1    4    4    0    0  0.28279526895E-01  0.10485217566E-01  0.60018290577E-01  0.67172373440E-01  0.51100000000E-03 0. -1.
         11    1    4    4    0    0  0.37250866775E-01  0.28518138295E-02  0.49357113212E-01  0.61904326692E-01  0.51100000000E-03 0.  1.
</event>
<event>
 8    1  0.1115874E+005  0.1043930E+01  0.7957747E-01            NaN
         13   -1    0    0    0    0  0.00000000000E+00  0.00000000000E+00  0.74505805969E-08  0.10566000000E+00  0.10566000000E+00 0. -1.
     999900   -1    0    0    0    0 -0.00000000000E+00 -0.00000000000E+00 -0.74505805969E-08  0.93827000000E+00  0.93827000000E+00 0. -1.
     999902    2    1    2    0    0  0.18117626487E-01 -0.55644969121E-02 -0.14518284424E-01  0.10200554822E+01  0.10197760510E+01 0.  0.
     999903    2    3    3    0    0  0.85528760685E-01  0.97531751346E-01 -0.76118140298E-02  0.13144938461E+00  0.19834050949E-01 0.  0.
         14    1    1    2    0    0 -0.18117626487E-01  0.55644969121E-02  0.14518284424E-01  0.23874517755E-01  0.00000000000E+00 0. -1.
     999901    1    3    3    0    0 -0.67411134198E-01 -0.10309624826E+00 -0.69064703942E-02  0.88860609763E+00  0.88000000000E+00 0. -1.
        -11    1    4    4    0    0  0.33958299807E-01  0.53517269019E-01 -0.53656017683E-02  0.63610651721E-01  0.51100000000E-03 0.  1.
         11    1    4    4    0    0  0.51570460878E-01  0.44014482326E-01 -0.22462122615E-02  0.67838732890E-01  0.51100000000E-03 0. -1.
</event>
<event>
 8    1  0.1115874E+005  0.1043930E+01  0.7957747E-01            NaN
         13   -1    0    0    0    0  0.00000000000E+00  0.00000000000E+00  0.74505805969E-08  0.10566000000E+00  0.10566000000E+00 0.  1.
     999900   -1    0    0    0    0 -0.00000000000E+00 -0.00000000000E+00 -0.74505805969E-08  0.93827000000E+00  0.93827000000E+00 0.  1.
     999902    2    1    2    0    0  0.20961095598E-01  0.54602209113E-02  0.10909284757E-01  0.10196772881E+01  0.10193888256E+01 0.  0.
     999903    2    3    3    0    0  0.12291801547E+00  0.29714081858E-01  0.36110882497E-01  0.13310039700E+00  0.20492795316E-01 0.  0.
         14    1    1    2    0    0 -0.20961095598E-01 -0.54602209113E-02 -0.10909284757E-01  0.24252711910E-01  0.00000000000E+00 0. -1.
     999901    1    3    3    0    0 -0.10195691987E+00 -0.24253860947E-01 -0.25201597740E-01  0.88657689109E+00  0.88000000000E+00 0.  1.
        -11    1    4    4    0    0  0.17015225196E-01  0.78671738396E-02 -0.98945061760E-03  0.18778989488E-01  0.51100000000E-03 0.  1.
         11    1    4    4    0    0  0.10590279027E+00  0.21846908019E-01  0.37100333115E-01  0.11432140751E+00  0.51100000000E-03 0. -1.
</event>
<event>
 8    1  0.1115874E+005  0.1043930E+01  0.7957747E-01            NaN
         13   -1    0    0    0    0  0.00000000000E+00  0.00000000000E+00  0.74505805969E-08  0.10566000000E+00  0.10566000000E+00 0.  1.
     999900   -1    0    0    0    0 -0.00000000000E+00 -0.00000000000E+00 -0.74505805969E-08  0.93827000000E+00  0.93827000000E+00 0. -1.
     999902    2    1    2    0    0  0.19229564730E-01  0.18539519837E-01  0.16813006774E-02  0.10171659060E+01  0.10168137310E+01 0.  0.
     999903    2    3    3    0    0 -0.74662965881E-01 -0.34424391311E-01  0.92736529853E-01  0.12592405446E+00  0.22298123913E-01 0.  0.
         14    1    1    2    0    0 -0.19229564730E-01 -0.18539519837E-01 -0.16813006774E-02  0.26764093997E-01  0.00000000000E+00 0.  1.
     999901    1    3    3    0    0  0.93892530611E-01  0.52963911148E-01 -0.91055229176E-01  0.89124185155E+00  0.88000000000E+00 0. -1.
        -11    1    4    4    0    0 -0.67791732383E-01 -0.22551077049E-01  0.78593578253E-01  0.10621431975E+00  0.51100000000E-03 0. -1.
         11    1    4    4    0    0 -0.68712334985E-02 -0.11873314262E-01  0.14142951600E-01  0.19709734710E-01  0.51100000000E-03 0.  1.
</event>
<event>
 8    1  0.1115874E+005  0.1043930E+01  0.7957747E-01            NaN
         13   -1    0    0    0    0  0.00000000000E+00  0.00000000000E+00  0.74505805969E-08  0.10566000000E+00  0.10566000000E+00 0. -1.
     999900   -1    0    0    0    0 -0.00000000000E+00 -0.00000000000E+00 -0.74505805969E-08  0.93827000000E+00  0.93827000000E+00 0. -1.
     999902    2    1    2    0    0 -0.20363844133E-01 -0.10613928466E-01  0.23959503633E-02  0.10208414270E+01  0.10205802942E+01 0.  0.
     999903    2    3    3    0    0 -0.82455895853E-01 -0.43543742576E-01 -0.92659510669E-01  0.13293640042E+00  0.19780529832E-01 0.  0.
         14    1    1    2    0    0  0.20363844133E-01  0.10613928466E-01 -0.23959503633E-02  0.23088573007E-01  0.00000000000E+00 0. -1.
     999901    1    3    3    0    0  0.62092051720E-01  0.32929814110E-01  0.95055461032E-01  0.88790502657E+00  0.88000000000E+00 0.  1.
        -11    1    4    4    0    0 -0.49382531606E-01 -0.27062378377E-01 -0.42103978147E-01  0.70313674687E-01  0.51100000000E-03 0.  1.
         11    1    4    4    0    0 -0.33073364248E-01 -0.16481364199E-01 -0.50555532522E-01  0.62622725732E-01  0.51100000000E-03 0. -1.
</event>
<event>
 8    1  0.1115874E+005  0.1043930E+01  0.7957747E-01            NaN
         13   -1    0    0    0    0  0.00000000000E+00  0.00000000000E+00  0.74505805969E-08  0.10566000000E+00  0.10566000000E+00 0. -1.
     999900   -1    0    0    0    0 -0.00000000000E+00 -0.00000000000E+00 -0.74505805969E-08  0.93827000000E+00  0.93827000000E+00 0.  1.
     999902    2    1    2    0    0  0.10336664734E-01 -0.20224097601E-01  0.76695178313E-02  0.10199574685E+01  0.10196757109E+01 0.  0.
     999903    2    3    3    0    0  0.12411011051E+00 -0.21554869366E-01 -0.33473598634E-01  0.13167883884E+00  0.18732401622E-01 0.  0.
         14    1    1    2    0    0 -0.10336664734E-01  0.20224097601E-01 -0.76695178313E-02  0.23972531476E-01  0.00000000000E+00 0.  1.
     999901    1    3    3    0    0 -0.11377344577E+00  0.13307717651E-02  0.41143116465E-01  0.88827862968E+00  0.88000000000E+00 0. -1.
        -11    1    4    4    0    0  0.44195938498E-01 -0.13122275269E-01 -0.19742051746E-01  0.50154609121E-01  0.51100000000E-03 0. -1.
         11    1    4    4    0    0  0.79914172007E-01 -0.84325940973E-02 -0.13731546887E-01  0.81524229722E-01  0.51100000000E-03 0.  1.
</event>
<event>
 8    1  0.1330649E+005  0.1043930E+01  0.7957747E-01            NaN
         13   -1    0    0    0    0  0.00000000000E+00  0.00000000000E+00  0.74505805969E-08  0.10566000000E+00  0.10566000000E+00 0. -1.
     999900   -1    0    0    0    0 -0.00000000000E+00 -0.00000000000E+00 -0.74505805969E-08  0.93827000000E+00  0.93827000000E+00 0. -1.
     999902    2    1    2    0    0  0.15258949157E-01  0.77140649747E-02  0.17808669431E-01  0.10192421278E+01  0.10189430916E+01 0.  0.
     999903    2    3    3    0    0  0.82146372758E-01 -0.93333360547E-01 -0.30877462462E-01  0.12960464595E+00  0.19616416979E-01 0.  0.
         14    1    1    2    0    0 -0.15258949157E-01 -0.77140649747E-02 -0.17808669431E-01  0.24687872220E-01  0.00000000000E+00 0.  1.
     999901    1    3    3    0    0 -0.66887423601E-01  0.10104742552E+00  0.48686131893E-01  0.88963748183E+00  0.88000000000E+00 0.  1.
        -11    1    4    4    0    0  0.19173546084E-01 -0.35593920250E-01 -0.95999575722E-02  0.41556856649E-01  0.51100000000E-03 0. -1.
         11    1    4    4    0    0  0.62972826674E-01 -0.57739440297E-01 -0.21277504890E-01  0.88047789300E-01  0.51100000000E-03 0.  1.
</event>
<event>
 8    1  0.1115874E+005  0.1043930E+01  0.7957747E-01            NaN
         13   -1    0    0    0    0  0.00000000000E+00  0.00000000000E+00  0.74505805969E-08  0.10566000000E+00  0.10566000000E+00 0.  1.
     999900   -1    0    0    0    0 -0.00000000000E+00 -0.00000000000E+00 -0.74505805969E-08  0.93827000000E+00  0.93827000000E+00 0.  1.
     999902    2    1    2    0    0  0.53001527166E-02 -0.22620302320E-01  0.55781842011E-02  0.10200367827E+01  0.10197569084E+01 0.  0.
     999903    2    3    3    0    0 -0.85559121607E-01  0.62871217564E-01  0.70319223314E-01  0.12888269394E+00  0.19819241682E-01 0.  0.
         14    1    1    2    0    0 -0.53001527166E-02  0.22620302320E-01 -0.55781842011E-02  0.23893217340E-01  0.00000000000E+00 0.  1.
     999901    1    3    3    0    0  0.90859274323E-01 -0.85491519884E-01 -0.64741039112E-01  0.89115408872E+00  0.88000000000E+00 0.  1.
        -11    1    4    4    0    0 -0.71712655931E-01  0.45137502685E-01  0.49007490865E-01  0.97888173194E-01  0.51100000000E-03 0. -1.
         11    1    4    4    0    0 -0.13846465676E-01  0.17733714879E-01  0.21311732449E-01  0.30994520743E-01  0.51100000000E-03 0.  1.
</event>
<event>
 8    1  0.1115874E+005  0.1043930E+01  0.7957747E-01            NaN
         13   -1    0    0    0    0  0.00000000000E+00  0.00000000000E+00  0.74505805969E-08  0.10566000000E+00  0.10566000000E+00 0. -1.
     999900   -1    0    0    0    0 -0.00000000000E+00 -0.00000000000E+00 -0.74505805969E-08  0.93827000000E+00  0.93827000000E+00 0. -1.
     999902    2    1    2    0    0  0.24171463209E-01  0.90750192851E-03  0.22438176034E-02  0.10196376574E+01  0.10193482400E+01 0.  0.
     999903    2    3    3    0    0 -0.64515482169E-01 -0.48555193326E-01 -0.97624870813E-01  0.12818620752E+00  0.19525218520E-01 0.  0.
         14    1    1    2    0    0 -0.24171463209E-01 -0.90750192851E-03 -0.22438176034E-02  0.24292342638E-01  0.00000000000E+00 0.  1.
     999901    1    3    3    0    0  0.88686945378E-01  0.49462695254E-01  0.99868688416E-01  0.89145144984E+00  0.88000000000E+00 0.  1.
        -11    1    4    4    0    0 -0.44010524533E-01 -0.25316645102E-01 -0.71229156784E-01  0.87474068649E-01  0.51100000000E-03 0. -1.
         11    1    4    4    0    0 -0.20504957636E-01 -0.23238548224E-01 -0.26395714029E-01  0.40712138869E-01  0.51100000000E-03 0.  1.
</event>
<event>
 8    1  0.1115874E+005  0.1043930E+01  0.7957747E-01            NaN
         13   -1    0    0    0    0  0.00000000000E+00  0.00000000000E+00  0.74505805969E-08  0.10566000000E+00  0.10566000000E+00 0.  1.
     999900   -1    0    0    0    0 -0.00000000000E+00 -0.00000000000E+00 -0.74505805969E-08  0.93827000000E+00  0.93827000000E+00 0. -1.
     999902    2    1    2    0    0 -0.21679517359E-01  0.10263042942E-01  0.13790756609E-02  0.10199043185E+01  0.10196212951E+01 0.  0.
     999903    2    3    3    0    0  0.89645796854E-01  0.22997789670E-01  0.87174743478E-01  0.12866002201E+00  0.19715428961E-01 0.  0.
         14    1    1    2    0    0  0.21679517359E-01 -0.10263042942E-01 -0.13790756609E-02  0.24025681531E-01  0.00000000000E+00 0.  1.
     999901    1    3    3    0    0 -0.11132531421E+00 -0.12734746728E-01 -0.85795667817E-01  0.89124429646E+00  0.88000000000E+00 0. -1.
        -11    1    4    4    0    0  0.39000751120E-01  0.84121215151E-04  0.34316651687E-01  0.51951509779E-01  0.51100000000E-03 0. -1.
         11    1    4    4    0    0  0.50645045734E-01  0.22913668455E-01  0.52858091791E-01  0.76708512228E-01  0.51100000000E-03 0.  1.
</event>
<event>
 8    1  0.1115874E+005  0.1043930E+01  0.7957747E-01            NaN
         13   -1    0    0    0    0  0.00000000000E+00  0.00000000000E+00  0.74505805969E-08  0.10566000000E+00  0.10566000000E+00 0.  1.
     999900   -1    0    0    0    0 -0.00000000000E+00 -0.00000000000E+00 -0.74505805969E-08  0.93827000000E+00  0.93827000000E+00 0.  1.
     999902    2    1    2    0    0  0.21244485808E-02  0.61547979983E-02  0.23599327809E-01  0.10194489238E+01  0.10191549367E+01 0.  0.
     999903    2    3    3    0    0  0.39349591249E-01  0.10310543042E+00 -0.63896194737E-01  0.12903295197E+00  0.19689054803E-01 0.  0.
         14    1    1    2    0    0 -0.21244485808E-02 -0.61547979983E-02 -0.23599327809E-01  0.24481076227E-01  0.00000000000E+00 0. -1.
     999901    1    3    3    0    0 -0.37225142668E-01 -0.96950632422E-01  0.87495522546E-01  0.89041597180E+00  0.88000000000E+00 0. -1.
        -11    1    4    4    0    0  0.29027936409E-01  0.49286836528E-01 -0.35325051207E-01  0.67230452259E-01  0.51100000000E-03 0. -1.
         11    1    4    4    0    0  0.10321654840E-01  0.53818593892E-01 -0.28571143530E-01  0.61802499713E-01  0.51100000000E-03 0.  1.
</event>
<event>
 8    1  0.1115874E+005  0.1043930E+01  0.7957747E-01            NaN
         13   -1    0    0    0    0  0.00000000000E+00  0.00000000000E+00  0.74505805969E-08  0.10566000000E+00  0.10566000000E+00 0. -1.
     999900   -1    0    0    0    0 -0.00000000000E+00 -0.00000000000E+00 -0.74505805969E-08  0.93827000000E+00  0.93827000000E+00 0. -1.
     999902    2    1    2    0    0 -0.77970705672E-02  0.11729395460E-01  0.17828089648E-01  0.10212096609E+01  0.10209568834E+01 0.  0.
     999903    2    3    3    0    0  0.59782584700E-01 -0.34493169755E-01  0.11133412922E+00  0.13247634053E+00  0.19772614366E-01 0.  0.
         14    1    1    2    0    0  0.77970705672E-02 -0.11729395460E-01 -0.17828089648E-01  0.22720339077E-01  0.00000000000E+00 0.  1.
     999901    1    3    3    0    0 -0.67579655267E-01  0.46222565215E-01 -0.93506039568E-01  0.88873332039E+00  0.88000000000E+00 0. -1.
        -11    1    4    4    0    0  0.51421335570E-01 -0.21902488135E-01  0.94948133866E-01  0.11017840979E+00  0.51100000000E-03 0.  1.
         11    1    4    4    0    0  0.83612491298E-02 -0.12590681620E-01  0.16385995350E-01  0.22297930739E-01  0.51100000000E-03 0. -1.
</event>
<event>
 8    1  0.1115874E+005  0.1043930E+01  0.7957747E-01            NaN
         13   -1    0    0    0    0  0.00000000000E+00  0.00000000000E+00  0.74505805969E-08  0.10566000000E+00  0.10566000000E+00 0.  1.
     999900   -1    0    0    0    0 -0.00000000000E+00 -0.00000000000E+00 -0.74505805969E-08  0.93827000000E+00  0.93827000000E+00 0.  1.
     999902    2    1    2    0    0 -0.16499108162E-01 -0.14121863887E-01 -0.31360023027E-02  0.10219872992E+01  0.10217517103E+01 0.  0.
     999903    2    3    3    0    0 -0.12061364007E+00 -0.35802210231E-01 -0.43279978042E-01  0.13467596036E+00  0.20856878261E-01 0.  0.
         14    1    1    2    0    0  0.16499108162E-01  0.14121863887E-01  0.31360023027E-02  0.21942700842E-01  0.00000000000E+00 0. -1.
     999901    1    3    3    0    0  0.10411453191E+00  0.21680346344E-01  0.40143975739E-01  0.88731133880E+00  0.88000000000E+00 0. -1.
        -11    1    4    4    0    0 -0.55730476512E-01 -0.11227912120E-01 -0.10003479846E-01  0.57725927908E-01  0.51100000000E-03 0. -1.
         11    1    4    4    0    0 -0.64883163559E-01 -0.24574298111E-01 -0.33276498195E-01  0.76950032451E-01  0.51100000000E-03 0.  1.
</event>
<event>
 8    1  0.1115874E+005  0.1043930E+01  0.7957747E-01            NaN
         13   -1    0    0    0    0  0.00000000000E+00  0.00000000000E+00  0.74505805969E-08  0.10566000000E+00  0.10566000000E+00 0.  1.
     999900   -1    0    0    0    0 -0.00000000000E+00 -0.00000000000E+00 -0.74505805969E-08  0.93827000000E+00  0.93827000000E+00 0. -1.
     999902    2    1    2    0    0 -0.56934360690E-02  0.16636476257E-01  0.14882063201E-01  0.10208938683E+01  0.10206339339E+01 0.  0.
     999903    2    3    3    0    0  0.38739384962E-01 -0.98797254441E-01  0.73016228953E-01  0.13034414879E+00  0.19914567571E-01 0.  0.
         14    1    1    2    0    0  0.56934360690E-02 -0.16636476257E-01 -0.14882063201E-01  0.23036131655E-01  0.00000000000E+00 0. -1.
     999901    1    3    3    0    0 -0.44432821031E-01  0.11543373070E+00 -0.58134165752E-01  0.89054971955E+00  0.88000000000E+00 0. -1.
        -11    1    4    4    0    0  0.29892892076E-01 -0.75703823460E-01  0.45127467808E-01  0.93066660813E-01  0.51100000000E-03 0. -1.
         11    1    4    4    0    0  0.88464928857E-02 -0.23093430981E-01  0.27888761144E-01  0.37277487979E-01  0.51100000000E-03 0.  1.
</event>
<event>
 8    1  0.1115874E+005  0.1043930E+01  0.7957747E-01            NaN
         13   -1    0    0    0    0  0.00000000000E+00  0.00000000000E+00  0.74505805969E-08  0.10566000000E+00  0.10566000000E+00 0. -1.
     999900   -1    0    0    0    0 -0.00000000000E+00 -0.00000000000E+00 -0.74505805969E-08  0.93827000000E+00  0.93827000000E+00 0.  1.
     999902    2    1    2    0    0 -0.15825681768E-01  0.11746391534E-01  0.12855925586E-01  0.10203990684E+01  0.10201277146E+01 0.  0.
     999903    2    3    3    0    0  0.93282885982E-01  0.29126774059E-01  0.84392366269E-01  0.13061020607E+00  0.19669485513E-01 0.  0.
         14    1    1    2    0    0  0.15825681768E-01 -0.11746391534E-01 -0.12855925586E-01  0.23530931562E-01  0.00000000000E+00 0.  1.
     999901    1    3    3    0    0 -0.10910856775E+00 -0.17380382525E-01 -0.71536440683E-01  0.88978886237E+00  0.88000000000E+00 0.  1.
        -11    1    4    4    0    0  0.58302806866E-01  0.11687927001E-01  0.41125744229E-01  0.72300849825E-01  0.51100000000E-03 0. -1.
         11    1    4    4    0    0  0.34980079115E-01  0.17438847057E-01  0.43266622040E-01  0.58309356242E-01  0.51100000000E-03 0.  1.
</event>
<event>
 8    1  0.1115874E+005  0.1043930E+01  0.7957747E-01            NaN
         13   -1    0    0    0    0  0.00000000000E+00  0.00000000000E+00  0.74505805969E-08  0.10566000000E+00  0.10566000000E+00 0.  1.
     999900   -1    0    0    0    0 -0.00000000000E+00 -0.00000000000E+00 -0.74505805969E-08  0.93827000000E+00  0.93827000000E+00 0. -1.
     999902    2    1    2    0    0 -0.19347833265E-01 -0.12861145377E-01 -0.36869866408E-02  0.10204067863E+01  0.10201356125E+01 0.  0.
     999903    2    3    3    0    0 -0.74511654499E-01  0.10018992278E+00 -0.34163581090E-01  0.13093929729E+00  0.19696243789E-01 0.  0.
         14    1    1    2    0    0  0.19347833265E-01  0.12861145377E-01  0.36869866408E-02  0.23523213704E-01  0.00000000000E+00 0. -1.
     999901    1    3    3    0    0  0.55163821234E-01 -0.11305106816E+00  0.30476594449E-01  0.88946748900E+00  0.88000000000E+00 0. -1.
        -11    1    4    4    0    0 -0.47916106677E-01  0.65713972965E-01 -0.12438110443E-01  0.82275435182E-01  0.51100000000E-03 0.  1.
         11    1    4    4    0    0 -0.26595547822E-01  0.34475949816E-01 -0.21725470647E-01  0.48663862111E-01  0.51100000000E-03 0. -1.
</event>
<event>
 8    1  0.1115874E+005  0.1043930E+01  0.7957747E-01            NaN
         13   -1    0    0    0    0  0.00000000000E+00  0.00000000000E+00  0.74505805969E-08  0.10566000000E+00  0.10566000000E+00 0. -1.
     999900   -1    0    0    0    0 -0.00000000000E+00 -0.00000000000E+00 -0.74505805969E-08  0.93827000000E+00  0.93827000000E+00 0.  1.
     999902    2    1    2    0    0  0.16158776082E-01  0.14057804963E-01 -0.10490696958E-01  0.10200808355E+01  0.10198020045E+01 0.  0.
     999903    2    3    3    0    0  0.45169223571E-01  0.59146911757E-01 -0.10847340501E+00  0.13302094761E+00  0.19735171152E-01 0.  0.
         14    1    1    2    0    0 -0.16158776082E-01 -0.14057804963E-01  0.10490696958E-01  0.23849164503E-01  0.00000000000E+00 0. -1.
     999901    1    3    3    0    0 -0.29010447489E-01 -0.45089106794E-01  0.97982708055E-01  0.88705988788E+00  0.88000000000E+00 0. -1.
        -11    1    4    4    0    0  0.23890167520E-01  0.37719767551E-01 -0.79427593775E-01  0.91118191060E-01  0.51100000000E-03 0.  1.
         11    1    4    4    0    0  0.21279056051E-01  0.21427144206E-01 -0.29045811238E-01  0.41902756553E-01  0.51100000000E-03 0. -1.
</event>
<event>
 8    1  0.1115874E+005  0.1043930E+01  0.7957747E-01            NaN
         13   -1    0    0    0    0  0.00000000000E+00  0.00000000000E+00  0.74505805969E-08  0.10566000000E+00  0.10566000000E+00 0. -1.
     999900   -1    0    0    0    0 -0.00000000000E+00 -0.00000000000E+00 -0.74505805969E-08  0.93827000000E+00  0.93827000000E+00 0. -1.
     999902    2    1    2    0    0 -0.92813351581E-02  0.18231163971E-01  0.11444679256E-01  0.10204886006E+01  0.10202193317E+01 0.  0.
     999903    2    3    3    0    0 -0.71504078909E-01  0.49504487865E-01 -0.95969945814E-01  0.13122621396E+00  0.21131992623E-01 0.  0.
         14    1    1    2    0    0  0.92813351581E-02 -0.18231163971E-01 -0.11444679256E-01  0.23441399390E-01  0.00000000000E+00 0.  1.
     999901    1    3    3    0    0  0.62222743751E-01 -0.31273323893E-01  0.10741462507E+00  0.88926238665E+00  0.88000000000E+00 0.  1.
        -11    1    4    4    0    0 -0.55068071685E-01  0.26222504168E-01 -0.65638608014E-01  0.89603572624E-01  0.51100000000E-03 0. -1.
         11    1    4    4    0    0 -0.16436007223E-01  0.23281983696E-01 -0.30331337800E-01  0.41622641339E-01  0.51100000000E-03 0.  1.
</event>
<event>
 8    1  0.1115874E+005  0.1043930E+01  0.7957747E-01            NaN
         13   -1    0    0    0    0  0.00000000000E+00  0.00000000000E+00  0.74505805969E-08  0.10566000000E+00  0.10566000000E+00 0. -1.
     999900   -1    0    0    0    0 -0.00000000000E+00 -0.00000000000E+00 -0.74505805969E-08  0.93827000000E+00  0.93827000000E+00 0.  1.
     999902    2    1    2    0    0 -0.79390915625E-02 -0.17650166282E-01 -0.17679436289E-01  0.10177170259E+01  0.10173793908E+01 0.  0.
     999903    2    3    3    0    0 -0.88605311862E-02 -0.12655232789E+00  0.20997240510E-01  0.13016059659E+00  0.20171665429E-01 0.  0.
         14    1    1    2    0    0  0.79390915625E-02  0.17650166282E-01  0.17679436289E-01  0.26212974118E-01  0.00000000000E+00 0. -1.
     999901    1    3    3    0    0  0.92143962370E-03  0.10890216161E+00 -0.38676676800E-01  0.88755642930E+00  0.88000000000E+00 0.  1.
        -11    1    4    4    0    0  0.15345261085E-02 -0.22299999037E-01 -0.33235722597E-02  0.22604246968E-01  0.51100000000E-03 0.  1.
         11    1    4    4    0    0 -0.10395057295E-01 -0.10425232886E+00  0.24320812770E-01  0.10755634962E+00  0.51100000000E-03 0. -1.
</event>
<event>
 7    1  0.1115874E+005  0.1043930E+01  0.7957747E-01            NaN
         13   -1    0    0    0    0  0.00000000000E+00  0.00000000000E+00  0.74505805969E-08  0.10566000000E+00  0.10566000000E+00 0.  1.
     999900   -1    0    0    0    0 -0.00000000000E+00 -0.00000000000E+00 -0.74505805969E-08  0.93827000000E+00  0.93827000000E+00 0.  1.
     999903    2    1    2    0    0  0.31490764157E-01 -0.48524435083E-01  0.92894815314E-01  0.11116845033E+00  0.19562428490E-01 0.  0.
         14    1    1    2    0    0 -0.10508378208E-02  0.23783378087E-01  0.35331758081E-01  0.42603831546E-01  0.00000000000E+00 0.  1.
     999901    1    1    2    0    0 -0.30439926336E-01  0.24741056996E-01 -0.12822657340E+00  0.89015771813E+00  0.88000000000E+00 0.  1.
        -11    1    3    3    0    0  0.10380326231E-01 -0.33235306658E-01  0.48953397202E-01  0.60075227839E-01  0.51100000000E-03 0. -1.
         11    1    3    3    0    0  0.21110437926E-01 -0.15289128425E-01  0.43941418113E-01  0.51093222488E-01  0.51100000000E-03 0.  1.
</event>
<event>
 8    1  0.1115874E+005  0.1043930E+01  0.7957747E-01            NaN
         13   -1    0    0    0    0  0.00000000000E+00  0.00000000000E+00  0.74505805969E-08  0.10566000000E+00  0.10566000000E+00 0. -1.
     999900   -1    0    0    0    0 -0.00000000000E+00 -0.00000000000E+00 -0.74505805969E-08  0.93827000000E+00  0.93827000000E+00 0.  1.
     999902    2    1    2    0    0 -0.71023010185E-02  0.11685339028E-02 -0.23042728583E-01  0.10197892566E+01  0.10195034833E+01 0.  0.
     999903    2    3    3    0    0 -0.19819858944E-01 -0.87846247654E-01 -0.94957951831E-01  0.13228874001E+00  0.19326357191E-01 0.  0.
         14    1    1    2    0    0  0.71023010185E-02 -0.11685339028E-02  0.23042728583E-01  0.24140743398E-01  0.00000000000E+00 0. -1.
     999901    1    3    3    0    0  0.12717557925E-01  0.89014781557E-01  0.71915223248E-01  0.88750051659E+00  0.88000000000E+00 0. -1.
        -11    1    4    4    0    0  0.28239122624E-02 -0.27126806794E-01 -0.29408405680E-01  0.40111763523E-01  0.51100000000E-03 0. -1.
         11    1    4    4    0    0 -0.22643771206E-01 -0.60719440860E-01 -0.65549546151E-01  0.92176976487E-01  0.51100000000E-03 0.  1.
</event>
<event>
 8    1  0.1115874E+005  0.1043930E+01  0.7957747E-01            NaN
         13   -1    0    0    0    0  0.00000000000E+00  0.00000000000E+00  0.74505805969E-08  0.10566000000E+00  0.10566000000E+00 0. -1.
     999900   -1    0    0    0    0 -0.00000000000E+00 -0.00000000000E+00 -0.74505805969E-08  0.93827000000E+00  0.93827000000E+00 0.  1.
     999902    2    1    2    0    0  0.80740990481E-02  0.27441601963E-01 -0.55791424317E-02  0.10147862284E+01  0.10143676503E+01 0.  0.
     999903    2    3    3    0    0  0.10179240194E+00 -0.91725117070E-02 -0.72417977296E-01  0.12653449410E+00  0.17910519157E-01 0.  0.
         14    1    1    2    0    0 -0.80740990481E-02 -0.27441601963E-01  0.55791424317E-02  0.29143771616E-01  0.00000000000E+00 0. -1.
     999901    1    3    3    0    0 -0.93718302895E-01  0.36614113670E-01  0.66838834864E-01  0.88825173429E+00  0.88000000000E+00 0. -1.
        -11    1    4    4    0    0  0.57341213537E-01 -0.11646726428E-01 -0.48455463378E-01  0.75972719173E-01  0.51100000000E-03 0. -1.
         11    1    4    4    0    0  0.44451188407E-01  0.24742147213E-02 -0.23962513918E-01  0.50561774924E-01  0.51100000000E-03 0.  1.
</event>
<event>
 8    1  0.1115874E+005  0.1043930E+01  0.7957747E-01            NaN
         13   -1    0    0    0    0  0.00000000000E+00  0.00000000000E+00  0.74505805969E-08  0.10566000000E+00  0.10566000000E+00 0. -1.
     999900   -1    0    0    0    0 -0.00000000000E+00 -0.00000000000E+00 -0.74505805969E-08  0.93827000000E+00  0.93827000000E+00 0. -1.
     999902    2    1    2    0    0 -0.17132205079E-01 -0.15733972812E-01 -0.13276665985E-01  0.10171467924E+01  0.10167941075E+01 0.  0.
     999903    2    3    3    0    0 -0.45505523741E-01 -0.38344579513E-01 -0.11449622327E+00  0.13060199174E+00  0.20160248880E-01 0.  0.
         14    1    1    2    0    0  0.17132205079E-01  0.15733972812E-01  0.13276665985E-01  0.26783207631E-01  0.00000000000E+00 0. -1.
     999901    1    3    3    0    0  0.28373318663E-01  0.22610606701E-01  0.10121955728E+00  0.88654480063E+00  0.88000000000E+00 0.  1.
        -11    1    4    4    0    0 -0.11667617876E-01 -0.21073543750E-03 -0.17855075607E-01  0.21336413997E-01  0.51100000000E-03 0.  1.
         11    1    4    4    0    0 -0.33837905865E-01 -0.38133844076E-01 -0.96641147660E-01  0.10926557774E+00  0.51100000000E-03 0. -1.
</event>
<event>
 8    1  0.1115874E+005  0.1043930E+01  0.7957747E-01            NaN
         13   -1    0    0    0    0  0.00000000000E+00  0.00000000000E+00  0.74505805969E-08  0.10566000000E+00  0.10566000000E+00 0.  1.
     999900   -1    0    0    0    0 -0.00000000000E+00 -0.00000000000E+00 -0.74505805969E-08  0.93827000000E+00  0.93827000000E+00 0.  1.
     999902    2    1    2    0    0 -0.44252704701E-02 -0.20279075541E-01  0.23281823877E-02  0.10230435365E+01  0.10228303052E+01 0.  0.
     999903    2    3    3    0    0  0.73461284978E-01 -0.99565273935E-01 -0.49326321528E-01  0.13454997742E+00  0.18994901028E-01 0.  0.
         14    1    1    2    0    0  0.44252704701E-02  0.20279075541E-01 -0.23281823877E-02  0.20886463482E-01  0.00000000000E+00 0. -1.
     999901    1    3    3    0    0 -0.77886555448E-01  0.79286198394E-01  0.51654503916E-01  0.88849355909E+00  0.88000000000E+00 0. -1.
        -11    1    4    4    0    0  0.38804427480E-01 -0.36823979228E-01 -0.21706838104E-01  0.57734192466E-01  0.51100000000E-03 0.  1.
         11    1    4    4    0    0  0.34656857498E-01 -0.62741294708E-01 -0.27619483424E-01  0.76815784959E-01  0.51100000000E-03 0. -1.
</event>
<event>
 8    1  0.1115874E+005  0.1043930E+01  0.7957747E-01            NaN
         13   -1    0    0    0    0  0.00000000000E+00  0.00000000000E+00  0.74505805969E-08  0.10566000000E+00  0.10566000000E+00 0. -1.
     999900   -1    0    0    0    0 -0.00000000000E+00 -0.00000000000E+00 -0.74505805969E-08  0.93827000000E+00  0.93827000000E+00 0.  1.
     999902    2    1    2    0    0  0.13385323273E-01  0.20611119748E-01  0.10073151889E-01  0.10173696249E+01  0.10170228612E+01 0.  0.
     999903    2    3    3    0    0  0.11131946890E+00 -0.16963426788E-01  0.61037817057E-01  0.12967579225E+00  0.20258676705E-01 0.  0.
         14    1    1    2    0    0 -0.13385323273E-01 -0.20611119748E-01 -0.10073151889E-01  0.26560375099E-01  0.00000000000E+00 0.  1.
     999901    1    3    3    0    0 -0.97934145623E-01  0.37574546536E-01 -0.50964665167E-01  0.88769383265E+00  0.88000000000E+00 0.  1.
        -11    1    4    4    0    0  0.33125914574E-01 -0.53741466728E-02  0.29088456755E-01  0.44414041769E-01  0.51100000000E-03 0. -1.
         11    1    4    4    0    0  0.78193554321E-01 -0.11589280115E-01  0.31949360302E-01  0.85261750484E-01  0.51100000000E-03 0.  1.
</event>
<event>
 8    1  0.1115874E+005  0.1043930E+01  0.7957747E-01            NaN
         13   -1    0    0    0    0  0.00000000000E+00  0.00000000000E+00  0.74505805969E-08  0.10566000000E+00  0.10566000000E+00 0. -1.
     999900   -1    0    0    0    0 -0.00000000000E+00 -0.00000000000E+00 -0.74505805969E-08  0.93827000000E+00  0.93827000000E+00 0. -1.
     999902    2    1    2    0    0  0.21270901621E-01  0.21356511643E-02  0.11739723066E-01  0.10195407942E+01  0.10192490361E+01 0.  0.
     999903    2    3    3    0    0  0.11068148234E-02  0.64785880711E-01 -0.10973006767E+00  0.12876217315E+00  0.18454649977E-01 0.  0.
         14    1    1    2    0    0 -0.21270901621E-01 -0.21356511643E-02 -0.11739723066E-01  0.24389205796E-01  0.00000000000E+00 0.  1.
     999901    1    3    3    0    0  0.20164086798E-01 -0.62650229546E-01  0.12146979074E+00  0.89077862105E+00  0.88000000000E+00 0.  1.
        -11    1    4    4    0    0  0.41102319915E-02  0.53359506920E-01 -0.75487520489E-01  0.92535170915E-01  0.51100000000E-03 0.  1.
         11    1    4    4    0    0 -0.30034171681E-02  0.11426373791E-01 -0.34242547183E-01  0.36227002239E-01  0.51100000000E-03 0. -1.
</event>
<event>
 8    1  0.1115874E+005  0.1043930E+01  0.7957747E-01            NaN
         13   -1    0    0    0    0  0.00000000000E+00  0.00000000000E+00  0.74505805969E-08  0.10566000000E+00  0.10566000000E+00 0.  1.
     999900   -1    0    0    0    0 -0.00000000000E+00 -0.00000000000E+00 -0.74505805969E-08  0.93827000000E+00  0.93827000000E+00 0.  1.
     999902    2    1    2    0    0 -0.19798647574E-01 -0.56654590958E-02 -0.10999418026E-01  0.10205832428E+01  0.10203161689E+01 0.  0.
     999903    2    3    3    0    0 -0.10813841206E+00  0.60455026840E-01 -0.44096166791E-01  0.13307480490E+00  0.20388853354E-01 0.  0.
         14    1    1    2    0    0  0.19798647574E-01  0.56654590958E-02  0.10999418026E-01  0.23346757151E-01  0.00000000000E+00 0.  1.
     999901    1    3    3    0    0  0.88339764485E-01 -0.66120485936E-01  0.33096748765E-01  0.88750843795E+00  0.88000000000E+00 0. -1.
        -11    1    4    4    0    0 -0.85184306227E-01  0.38334401982E-01 -0.36564401864E-01  0.10031504876E+00  0.51100000000E-03 0.  1.
         11    1    4    4    0    0 -0.22954105832E-01  0.22120624858E-01 -0.75317649270E-02  0.32759756144E-01  0.51100000000E-03 0. -1.
</event>
<event>
 8    1  0.1115874E+005  0.1043930E+01  0.7957747E-01            NaN
         13   -1    0    0    0    0  0.00000000000E+00  0.00000000000E+00  0.74505805969E-08  0.10566000000E+00  0.10566000000E+00 0. -1.
     999900   -1    0    0    0    0 -0.00000000000E+00 -0.00000000000E+00 -0.74505805969E-08  0.93827000000E+00  0.93827000000E+00 0. -1.
     999902    2    1    2    0    0  0.32717436155E-02  0.10637500235E-02  0.24128254635E-01  0.10195577095E+01  0.10192663609E+01 0.  0.
     999903    2    3    3    0    0  0.23222592952E-01 -0.12473093906E+00 -0.16026920159E-01  0.12948199464E+00  0.20288636827E-01 0.  0.
         14    1    1    2    0    0 -0.32717436155E-02 -0.10637500235E-02 -0.24128254635E-01  0.24372290457E-01  0.00000000000E+00 0.  1.
     999901    1    3    3    0    0 -0.19950849337E-01  0.12579468909E+00  0.40155174794E-01  0.89007571490E+00  0.88000000000E+00 0.  1.
        -11    1    4    4    0    0 -0.86792959434E-03 -0.26376934378E-01  0.25875068966E-02  0.26522674863E-01  0.51100000000E-03 0. -1.
         11    1    4    4    0    0  0.24090522547E-01 -0.98354004684E-01 -0.18614427056E-01  0.10295931978E+00  0.51100000000E-03 0.  1.
</event>
<event>
 8    1  0.1115874E+005  0.1043930E+01  0.7957747E-01            NaN
         13   -1    0    0    0    0  0.00000000000E+00  0.00000000000E+00  0.74505805969E-08  0.10566000000E+00  0.10566000000E+00 0.  1.
     999900   -1    0    0    0    0 -0.00000000000E+00 -0.00000000000E+00 -0.74505805969E-08  0.93827000000E+00  0.93827000000E+00 0. -1.
     999902    2    1    2    0    0 -0.14343301216E-01 -0.90726751917E-02 -0.14816896714E-01  0.10214003717E+01  0.10211518668E+01 0.  0.
     999903    2    3    3    0    0 -0.35098736269E-01  0.11375120276E+00 -0.53459331025E-01  0.13178824786E+00  0.18411539409E-01 0.  0.
         14    1    1    2    0    0  0.14343301216E-01  0.90726751917E-02  0.14816896714E-01  0.22529628340E-01  0.00000000000E+00 0.  1.
     999901    1    3    3    0    0  0.20755435054E-01 -0.12282387795E+00  0.38642434312E-01  0.88961212380E+00  0.88000000000E+00 0.  1.
        -11    1    4    4    0    0 -0.70739120188E-02  0.15190896754E-01 -0.14492445103E-01  0.22160678273E-01  0.51100000000E-03 0.  1.
         11    1    4    4    0    0 -0.28024824251E-01  0.98560306007E-01 -0.38966885923E-01  0.10962756959E+00  0.51100000000E-03 0. -1.
</event>
<event>
 8    1  0.1115874E+005  0.1043930E+01  0.7957747E-01            NaN
         13   -1    0    0    0    0  0.00000000000E+00  0.00000000000E+00  0.74505805969E-08  0.10566000000E+00  0.10566000000E+00 0.  1.
     999900   -1    0    0    0    0 -0.00000000000E+00 -0.00000000000E+00 -0.74505805969E-08  0.93827000000E+00  0.93827000000E+00 0.  1.
     999902    2    1    2    0    0  0.16235436032E-03 -0.87590673045E-02 -0.21950611878E-01  0.10202957668E+01  0.10200219972E+01 0.  0.
     999903    2    3    3    0    0 -0.26778503684E-01 -0.11711083906E+00  0.48068351674E-01  0.13048198201E+00  0.16820948632E-01 0.  0.
         14    1    1    2    0    0 -0.16235436032E-03  0.87590673045E-02  0.21950611878E-01  0.23634233239E-01  0.00000000000E+00 0.  1.
     999901    1    3    3    0    0  0.26940858044E-01  0.10835177175E+00 -0.70018963552E-01  0.88981378475E+00  0.88000000000E+00 0.  1.
        -11    1    4    4    0    0 -0.15536236669E-01 -0.40629630897E-01  0.11688038978E-01  0.45044566074E-01  0.51100000000E-03 0.  1.
         11    1    4    4    0    0 -0.11242267015E-01 -0.76481208159E-01  0.36380312696E-01  0.85437415937E-01  0.51100000000E-03 0. -1.
</event>
<event>
 8    1  0.1115874E+005  0.1043930E+01  0.7957747E-01            NaN
         13   -1    0    0    0    0  0.00000000000E+00  0.00000000000E+00  0.74505805969E-08  0.10566000000E+00  0.10566000000E+00 0. -1.
     999900   -1    0    0    0    0 -0.00000000000E+00 -0.00000000000E+00 -0.74505805969E-08  0.93827000000E+00  0.93827000000E+00 0. -1.
     999902    2    1    2    0    0 -0.42144382883E-03 -0.17916329663E-01 -0.93053692141E-02  0.10237368730E+01  0.10235376997E+01 0.  0.
     999903    2    3    3    0    0  0.91762596157E-02 -0.12994043480E+00  0.31903757126E-01  0.13562668377E+00  0.20199685518E-01 0.  0.
         14    1    1    2    0    0  0.42144382883E-03  0.17916329663E-01  0.93053692141E-02  0.20193127042E-01  0.00000000000E+00 0. -1.
     999901    1    3    3    0    0 -0.95977034445E-02  0.11202410514E+00 -0.41209126340E-01  0.88811018919E+00  0.88000000000E+00 0. -1.
        -11    1    4    4    0    0 -0.17535391156E-02 -0.20687710581E-01 -0.15995383830E-02  0.20829688249E-01  0.51100000000E-03 0. -1.
         11    1    4    4    0    0  0.10929798731E-01 -0.10925272422E+00  0.33503295509E-01  0.11479699552E+00  0.51100000000E-03 0.  1.
</event>
<event>
 8    1  0.1115874E+005  0.1043930E+01  0.7957747E-01            NaN
         13   -1    0    0    0    0  0.00000000000E+00  0.00000000000E+00  0.74505805969E-08  0.10566000000E+00  0.10566000000E+00 0.  1.
     999900   -1    0    0    0    0 -0.00000000000E+00 -0.00000000000E+00 -0.74505805969E-08  0.93827000000E+00  0.93827000000E+00 0.  1.
     999902    2    1    2    0    0  0.40179396305E-03  0.33867986479E-02 -0.22668227571E-01  0.10210066411E+01  0.10207492742E+01 0.  0.
     999903    2    3    3    0    0  0.98405877687E-01  0.41812853185E-01  0.70889299447E-01  0.12980836181E+00  0.19821366366E-01 0.  0.
         14    1    1    2    0    0 -0.40179396305E-03 -0.33867986479E-02  0.22668227571E-01  0.22923358931E-01  0.00000000000E+00 0.  1.
     999901    1    3    3    0    0 -0.98004083724E-01 -0.38426054538E-01 -0.93557527018E-01  0.89119827926E+00  0.88000000000E+00 0.  1.
        -11    1    4    4    0    0  0.16187113476E-01  0.75691748298E-02  0.21512698633E-01  0.27970920145E-01  0.51100000000E-03 0. -1.
         11    1    4    4    0    0  0.82218764211E-01  0.34243678356E-01  0.49376600814E-01  0.10183744166E+00  0.51100000000E-03 0.  1.
</event>
<event>
 8    1  0.1115874E+005  0.1043930E+01  0.7957747E-01            NaN
         13   -1    0    0    0    0  0.00000000000E+00  0.00000000000E+00  0.74505805969E-08  0.10566000000E+00  0.10566000000E+00 0.  1.
     999900   -1    0    0    0    0 -0.00000000000E+00 -0.00000000000E+00 -0.74505805969E-08  0.93827000000E+00  0.93827000000E+00 0. -1.
     999902    2    1    2    0    0 -0.14592861759E-01 -0.13307631249E-01  0.11740491035E-01  0.10209542782E+01  0.10206957207E+01 0.  0.
     999903    2    3    3    0    0 -0.57056885269E-01 -0.10469835319E+00  0.57847215873E-01  0.13400372294E+00  0.19835928494E-01 0.  0.
         14    1    1    2    0    0  0.14592861759E-01  0.13307631249E-01 -0.11740491035E-01  0.22975721828E-01  0.00000000000E+00 0.  1.
     999901    1    3    3    0    0  0.42464023510E-01  0.91390721946E-01 -0.46106724838E-01  0.88695055523E+00  0.88000000000E+00 0. -1.
        -11    1    4    4    0    0 -0.26040952129E-01 -0.29290885388E-01  0.21821772781E-01  0.44861320120E-01  0.51100000000E-03 0.  1.
         11    1    4    4    0    0 -0.31015933140E-01 -0.75407467806E-01  0.36025443093E-01  0.89142402820E-01  0.51100000000E-03 0. -1.
</event>
<event>
 8    1  0.1115874E+005  0.1043930E+01  0.7957747E-01            NaN
         13   -1    0    0    0    0  0.00000000000E+00  0.00000000000E+00  0.74505805969E-08  0.10566000000E+00  0.10566000000E+00 0.  1.
     999900   -1    0    0    0    0 -0.00000000000E+00 -0.00000000000E+00 -0.74505805969E-08  0.93827000000E+00  0.93827000000E+00 0. -1.
     999902    2    1    2    0    0  0.78127337153E-02 -0.56659664996E-02 -0.21774925377E-01  0.10201121630E+01  0.10198340726E+01 0.  0.
     999903    2    3    3    0    0  0.14403330190E-01  0.11033009735E+00 -0.66793352858E-01  0.13133481089E+00  0.20181532745E-01 0.  0.
         14    1    1    2    0    0 -0.78127337153E-02  0.56659664996E-02  0.21774925377E-01  0.23817837006E-01  0.00000000000E+00 0.  1.
     999901    1    3    3    0    0 -0.65905964744E-02 -0.11599606385E+00  0.45018427481E-01  0.88877735210E+00  0.88000000000E+00 0.  1.
        -11    1    4    4    0    0  0.19448659271E-02  0.69907534963E-01 -0.33735065472E-01  0.77647676793E-01  0.51100000000E-03 0.  1.
         11    1    4    4    0    0  0.12458464263E-01  0.40422562391E-01 -0.33058287386E-01  0.53687134101E-01  0.51100000000E-03 0. -1.
</event>
<event>
 8    1  0.1115874E+005  0.1043930E+01  0.7957747E-01            NaN
         13   -1    0    0    0    0  0.00000000000E+00  0.00000000000E+00  0.74505805969E-08  0.10566000000E+00  0.10566000000E+00 0.  1.
     999900   -1    0    0    0    0 -0.00000000000E+00 -0.00000000000E+00 -0.74505805969E-08  0.93827000000E+00  0.93827000000E+00 0. -1.
     999902    2    1    2    0    0 -0.14895245614E-01  0.75468402399E-02  0.15023520964E-01  0.10214682698E+01  0.10212212772E+01 0.  0.
     999903    2    3    3    0    0  0.15505589968E-01  0.46185006683E-01  0.12273053000E+00  0.13353926451E+00  0.19911655148E-01 0.  0.
         14    1    1    2    0    0  0.14895245614E-01 -0.75468402399E-02 -0.15023520964E-01  0.22461730158E-01  0.00000000000E+00 0. -1.
     999901    1    3    3    0    0 -0.30400835583E-01 -0.38638166443E-01 -0.10770700903E+00  0.88792900533E+00  0.88000000000E+00 0.  1.
        -11    1    4    4    0    0  0.62944774024E-03  0.28128529962E-01  0.80236395349E-01  0.85027940477E-01  0.51100000000E-03 0.  1.
         11    1    4    4    0    0  0.14876142228E-01  0.18056476721E-01  0.42494134649E-01  0.48511324036E-01  0.51100000000E-03 0. -1.
</event>
<event>
 8    1  0.1115874E+005  0.1043930E+01  0.7957747E-01            NaN
         13   -1    0    0    0    0  0.00000000000E+00  0.00000000000E+00  0.74505805969E-08  0.10566000000E+00  0.10566000000E+00 0. -1.
     999900   -1    0    0    0    0 -0.00000000000E+00 -0.00000000000E+00 -0.74505805969E-08  0.93827000000E+00  0.93827000000E+00 0.  1.
     999902    2    1    2    0    0  0.10772445639E-01 -0.13798577814E-01 -0.15785680686E-01  0.10203581089E+01  0.10200857985E+01 0.  0.
     999903    2    3    3    0    0 -0.54831341737E-01  0.27552931620E-01  0.10978261217E+00  0.12806824546E+00  0.24158093519E-01 0.  0.
         14    1    1    2    0    0 -0.10772445639E-01  0.13798577814E-01  0.15785680686E-01  0.23571891088E-01  0.00000000000E+00 0. -1.
     999901    1    3    3    0    0  0.65603787377E-01 -0.41351509434E-01 -0.12556829286E+00  0.89228986345E+00  0.88000000000E+00 0.  1.
        -11    1    4    4    0    0 -0.26552486399E-01  0.26103990203E-03  0.41085405198E-01  0.48922125026E-01  0.51100000000E-03 0. -1.
         11    1    4    4    0    0 -0.28278855338E-01  0.27291891718E-01  0.68697206972E-01  0.79146120433E-01  0.51100000000E-03 0.  1.
</event>
<event>
 8    1  0.1115874E+005  0.1043930E+01  0.7957747E-01            NaN
         13   -1    0    0    0    0  0.00000000000E+00  0.00000000000E+00  0.74505805969E-08  0.10566000000E+00  0.10566000000E+00 0.  1.
     999900   -1    0    0    0    0 -0.00000000000E+00 -0.00000000000E+00 -0.74505805969E-08  0.93827000000E+00  0.93827000000E+00 0. -1.
     999902    2    1    2    0    0  0.14154878714E-01 -0.19220723343E-01  0.47289206957E-02  0.10195956726E+01  0.10193052419E+01 0.  0.
     999903    2    3    3    0    0  0.12757089188E+00  0.11493760511E-02 -0.25440373855E-01  0.13157071841E+00  0.19697405981E-01 0.  0.
         14    1    1    2    0    0 -0.14154878714E-01  0.19220723343E-01 -0.47289206957E-02  0.24334327362E-01  0.00000000000E+00 0.  1.
     999901    1    3    3    0    0 -0.11341601316E+00 -0.20370099394E-01  0.30169294550E-01  0.88802495422E+00  0.88000000000E+00 0. -1.
        -11    1    4    4    0    0  0.90804459163E-01 -0.81162672443E-02 -0.17818903168E-01  0.92892938531E-01  0.51100000000E-03 0.  1.
         11    1    4    4    0    0  0.36766432714E-01  0.92656432954E-02 -0.76214706871E-02  0.38677779883E-01  0.51100000000E-03 0. -1.
</event>
<event>
 8    1  0.1115874E+005  0.1043930E+01  0.7957747E-01            NaN
         13   -1    0    0    0    0  0.00000000000E+00  0.00000000000E+00  0.74505805969E-08  0.10566000000E+00  0.10566000000E+00 0. -1.
     999900   -1    0    0    0    0 -0.00000000000E+00 -0.00000000000E+00 -0.74505805969E-08  0.93827000000E+00  0.93827000000E+00 0.  1.
     999902    2    1    2    0    0  0.12053857186E-01 -0.39106174466E-02  0.20032257938E-01  0.10202259970E+01  0.10199505895E+01 0.  0.
     999903    2    3    3    0    0 -0.56767319915E-01  0.94355130497E-01 -0.62550955246E-01  0.12825486585E+00  0.20279776897E-01 0.  0.
         14    1    1    2    0    0 -0.12053857186E-01  0.39106174466E-02 -0.20032257938E-01  0.23704003037E-01  0.00000000000E+00 0.  1.
     999901    1    3    3    0    0  0.68821177101E-01 -0.98265747944E-01  0.82583213184E-01  0.89197113111E+00  0.88000000000E+00 0. -1.
        -11    1    4    4    0    0 -0.22336651359E-01  0.22517397617E-01 -0.23854983952E-01  0.39689804355E-01  0.51100000000E-03 0. -1.
         11    1    4    4    0    0 -0.34430668556E-01  0.71837732880E-01 -0.38695971294E-01  0.88565061497E-01  0.51100000000E-03 0.  1.
</event>
<event>
 8    1  0.1115874E+005  0.1043930E+01  0.7957747E-01            NaN
         13   -1    0    0    0    0  0.00000000000E+00  0.00000000000E+00  0.74505805969E-08  0.10566000000E+00  0.10566000000E+00 0. -1.
     999900   -1    0    0    0    0 -0.00000000000E+00 -0.00000000000E+00 -0.74505805969E-08  0.93827000000E+00  0.93827000000E+00 0. -1.
     999902    2    1    2    0    0  0.17140378647E-01 -0.12322200627E-01  0.86467380703E-02  0.10211178259E+01  0.10208629776E+01 0.  0.
     999903    2    3    3    0    0 -0.99824040291E-01  0.21553547537E-01 -0.75682218517E-01  0.12873919855E+00  0.20410502492E-01 0.  0.
         14    1    1    2    0    0 -0.17140378647E-01  0.12322200627E-01 -0.86467380703E-02  0.22812174112E-01  0.00000000000E+00 0. -1.
     999901    1    3    3    0    0  0.11696441894E+00 -0.33875748164E-01  0.84328956587E-01  0.89237862734E+00  0.88000000000E+00 0. -1.
        -11    1    4    4    0    0 -0.32822066504E-01  0.12106971321E-01 -0.15835520926E-01  0.38404318093E-01  0.51100000000E-03 0. -1.
         11    1    4    4    0    0 -0.67001973787E-01  0.94465762157E-02 -0.59846697590E-01  0.90334880456E-01  0.51100000000E-03 0.  1.
</event>
<event>
 8    1  0.1115874E+005  0.1043930E+01  0.7957747E-01            NaN
         13   -1    0    0    0    0  0.00000000000E+00  0.00000000000E+00  0.74505805969E-08  0.10566000000E+00  0.10566000000E+00 0. -1.
     999900   -1    0    0    0    0 -0.00000000000E+00 -0.00000000000E+00 -0.74505805969E-08  0.93827000000E+00  0.93827000000E+00 0.  1.
     999902    2    1    2    0    0 -0.15741552752E-01 -0.19945478201E-01 -0.72561605300E-02  0.10175051925E+01  0.10171620060E+01 0.  0.
     999903    2    3    3    0    0  0.90303207017E-01  0.56310274049E-01 -0.64485150488E-01  0.12602575468E+00  0.19965972286E-01 0.  0.
         14    1    1    2    0    0  0.15741552752E-01  0.19945478201E-01  0.72561605300E-02  0.26424807461E-01  0.00000000000E+00 0. -1.
     999901    1    3    3    0    0 -0.10604475977E+00 -0.76255752249E-01  0.57228989958E-01  0.89147943785E+00  0.88000000000E+00 0.  1.
        -11    1    4    4    0    0  0.47277047675E-01  0.41062859964E-01 -0.36688672385E-01  0.72578216482E-01  0.51100000000E-03 0.  1.
         11    1    4    4    0    0  0.43026159343E-01  0.15247414085E-01 -0.27796478103E-01  0.53447538203E-01  0.51100000000E-03 0. -1.
</event>
<event>
 8    1  0.1115874E+005  0.1043930E+01  0.7957747E-01            NaN
         13   -1    0    0    0    0  0.00000000000E+00  0.00000000000E+00  0.74505805969E-08  0.10566000000E+00  0.10566000000E+00 0.  1.
     999900   -1    0    0    0    0 -0.00000000000E+00 -0.00000000000E+00 -0.74505805969E-08  0.93827000000E+00  0.93827000000E+00 0. -1.
     999902    2    1    2    0    0 -0.11422990518E-01  0.50367539609E-02  0.20247900647E-01  0.10201427958E+01  0.10198654287E+01 0.  0.
     999903    2    3    3    0    0 -0.72479552239E-01  0.10538464773E+00  0.29049287997E-01  0.13229423443E+00  0.17282761927E-01 0.  0.
         14    1    1    2    0    0  0.11422990518E-01 -0.50367539609E-02 -0.20247900647E-01  0.23787204196E-01  0.00000000000E+00 0. -1.
     999901    1    3    3    0    0  0.61056561722E-01 -0.10034789377E+00 -0.88013873493E-02  0.88784856137E+00  0.88000000000E+00 0.  1.
        -11    1    4    4    0    0 -0.24649610612E-01  0.33138624902E-01  0.13403163462E-02  0.41325891795E-01  0.51100000000E-03 0.  1.
         11    1    4    4    0    0 -0.47829941627E-01  0.72246022831E-01  0.27708971651E-01  0.90968342636E-01  0.51100000000E-03 0. -1.
</event>
<event>
 8    1  0.1115874E+005  0.1043930E+01  0.7957747E-01            NaN
         13   -1    0    0    0    0  0.00000000000E+00  0.00000000000E+00  0.74505805969E-08  0.10566000000E+00  0.10566000000E+00 0. -1.
     999900   -1    0    0    0    0 -0.00000000000E+00 -0.00000000000E+00 -0.74505805969E-08  0.93827000000E+00  0.93827000000E+00 0. -1.
     999902    2    1    2    0    0 -0.25054648806E-02  0.12581884816E-01 -0.19576903127E-01  0.10205240966E+01  0.10202556520E+01 0.  0.
     999903    2    3    3    0    0 -0.85581038191E-01  0.98804256691E-01 -0.10176255911E-02  0.13222217994E+00  0.19881500636E-01 0.  0.
         14    1    1    2    0    0  0.25054648806E-02 -0.12581884816E-01  0.19576903127E-01  0.23405903440E-01  0.00000000000E+00 0. -1.
     999901    1    3    3    0    0  0.83075573310E-01 -0.86222371875E-01 -0.18559277536E-01  0.88830191662E+00  0.88000000000E+00 0.  1.
        -11    1    4    4    0    0 -0.75918474509E-01  0.78230370797E-01 -0.50573516842E-02  0.10913039730E+00  0.51100000000E-03 0. -1.
         11    1    4    4    0    0 -0.96625636811E-02  0.20573885893E-01  0.40397260931E-02  0.23091782641E-01  0.51100000000E-03 0.  1.
</event>
<event>
 8    1  0.1115874E+005  0.1043930E+01  0.7957747E-01            NaN
         13   -1    0    0    0    0  0.00000000000E+00  0.00000000000E+00  0.74505805969E-08  0.10566000000E+00  0.10566000000E+00 0.  1.
     999900   -1    0    0    0    0 -0.00000000000E+00 -0.00000000000E+00 -0.74505805969E-08  0.93827000000E+00  0.93827000000E+00 0. -1.
     999902    2    1    2    0    0  0.12147313108E-02 -0.10114595896E-01 -0.21528298286E-01  0.10201130260E+01  0.10198349561E+01 0.  0.
     999903    2    3    3    0    0 -0.96546903396E-01 -0.31698786387E-01  0.76909990973E-01  0.12898267008E+00  0.19881268942E-01 0.  0.
         14    1    1    2    0    0 -0.12147313108E-02  0.10114595896E-01  0.21528298286E-01  0.23816973976E-01  0.00000000000E+00 0.  1.
     999901    1    3    3    0    0  0.97761634707E-01  0.21584190492E-01 -0.98438289259E-01  0.89113035595E+00  0.88000000000E+00 0. -1.
        -11    1    4    4    0    0 -0.17862217896E-01 -0.52892528705E-02  0.24645271344E-01  0.30897986095E-01  0.51100000000E-03 0. -1.
         11    1    4    4    0    0 -0.78684685500E-01 -0.26409533517E-01  0.52264719628E-01  0.98084683981E-01  0.51100000000E-03 0.  1.
</event>
<event>
 8    1  0.1115874E+005  0.1043930E+01  0.7957747E-01            NaN
         13   -1    0    0    0    0  0.00000000000E+00  0.00000000000E+00  0.74505805969E-08  0.10566000000E+00  0.10566000000E+00 0.  1.
     999900   -1    0    0    0    0 -0.00000000000E+00 -0.00000000000E+00 -0.74505805969E-08  0.93827000000E+00  0.93827000000E+00 0.  1.
     999902    2    1    2    0    0  0.24984623592E-02 -0.90936230599E-02 -0.20921574352E-01  0.10209811750E+01  0.10207232295E+01 0.  0.
     999903    2    3    3    0    0 -0.27559539994E-01 -0.28111227651E-01 -0.12650059931E+00  0.13395688939E+00  0.19805989624E-01 0.  0.
         14    1    1    2    0    0 -0.24984623592E-02  0.90936230599E-02  0.20921574352E-01  0.22948824978E-01  0.00000000000E+00 0.  1.
     999901    1    3    3    0    0  0.30058002354E-01  0.19017604591E-01  0.10557902496E+00  0.88702428563E+00  0.88000000000E+00 0. -1.
        -11    1    4    4    0    0 -0.16699181819E-01 -0.13153888931E-01 -0.95683162226E-01  0.98017427644E-01  0.51100000000E-03 0. -1.
         11    1    4    4    0    0 -0.10860358175E-01 -0.14957338719E-01 -0.30817437082E-01  0.35939461746E-01  0.51100000000E-03 0.  1.
</event>
<event>
 8    1  0.1115874E+005  0.1043930E+01  0.7957747E-01            NaN
         13   -1    0    0    0    0  0.00000000000E+00  0.00000000000E+00  0.74505805969E-08  0.10566000000E+00  0.10566000000E+00 0. -1.
     999900   -1    0    0    0    0 -0.00000000000E+00 -0.00000000000E+00 -0.74505805969E-08  0.93827000000E+00  0.93827000000E+00 0. -1.
     999902    2    1    2    0    0  0.43627719490E-02  0.21838449539E-01  0.90898886732E-02  0.10198763572E+01  0.10195926668E+01 0.  0.
     999903    2    3    3    0    0  0.62890612887E-01 -0.34600508114E-01  0.10728478216E+00  0.13068959320E+00  0.20428434507E-01 0.  0.
         14    1    1    2    0    0 -0.43627719490E-02 -0.21838449539E-01 -0.90898886732E-02  0.24053642831E-01  0.00000000000E+00 0.  1.
     999901    1    3    3    0    0 -0.58527840938E-01  0.56438957654E-01 -0.98194893490E-01  0.88918676397E+00  0.88000000000E+00 0. -1.
        -11    1    4    4    0    0  0.45957827985E-01 -0.14468454612E-01  0.65575440362E-01  0.81374797276E-01  0.51100000000E-03 0.  1.
         11    1    4    4    0    0  0.16932784901E-01 -0.20132053503E-01  0.41709341801E-01  0.49314795926E-01  0.51100000000E-03 0. -1.
</event>
<event>
 8    1  0.1115874E+005  0.1043930E+01  0.7957747E-01            NaN
         13   -1    0    0    0    0  0.00000000000E+00  0.00000000000E+00  0.74505805969E-08  0.10566000000E+00  0.10566000000E+00 0.  1.
     999900   -1    0    0    0    0 -0.00000000000E+00 -0.00000000000E+00 -0.74505805969E-08  0.93827000000E+00  0.93827000000E+00 0.  1.
     999902    2    1    2    0    0  0.21206345209E-02 -0.22651004101E-01 -0.21441141088E-02  0.10210791291E+01  0.10208234056E+01 0.  0.
     999903    2    3    3    0    0 -0.12262934885E+00  0.37727041230E-01  0.24873122085E-02  0.13022026435E+00  0.22132412613E-01 0.  0.
         14    1    1    2    0    0 -0.21206345209E-02  0.22651004101E-01  0.21441141088E-02  0.22850870943E-01  0.00000000000E+00 0.  1.
     999901    1    3    3    0    0  0.12474998337E+00 -0.60378045331E-01 -0.46314263173E-02  0.89085886470E+00  0.88000000000E+00 0. -1.
        -11    1    4    4    0    0 -0.30927126791E-01  0.19773839682E-01  0.21588810397E-02  0.36775179070E-01  0.51100000000E-03 0. -1.
         11    1    4    4    0    0 -0.91702222056E-01  0.17953201548E-01  0.32843116873E-03  0.93445085285E-01  0.51100000000E-03 0.  1.
</event>
<event>
 8    1  0.1115874E+005  0.1043930E+01  0.7957747E-01            NaN
         13   -1    0    0    0    0  0.00000000000E+00  0.00000000000E+00  0.74505805969E-08  0.10566000000E+00  0.10566000000E+00 0.  1.
     999900   -1    0    0    0    0 -0.00000000000E+00 -0.00000000000E+00 -0.74505805969E-08  0.93827000000E+00  0.93827000000E+00 0.  1.
     999902    2    1    2    0    0 -0.12043612788E-01  0.16538093888E-01 -0.70025527535E-02  0.10223061034E+01  0.10220773827E+01 0.  0.
     999903    2    3    3    0    0  0.11187086467E+00  0.58452338747E-01 -0.33932625388E-01  0.13222923569E+00  0.20034506186E-01 0.  0.
         14    1    1    2    0    0  0.12043612788E-01 -0.16538093888E-01  0.70025527535E-02  0.21623896585E-01  0.00000000000E+00 0.  1.
     999901    1    3    3    0    0 -0.12391447746E+00 -0.41914244859E-01  0.26930072635E-01  0.89007686772E+00  0.88000000000E+00 0.  1.
        -11    1    4    4    0    0  0.84740946986E-01  0.44157753176E-01 -0.16561794615E-01  0.96981902557E-01  0.51100000000E-03 0. -1.
         11    1    4    4    0    0  0.27129917685E-01  0.14294585571E-01 -0.17370830773E-01  0.35247333133E-01  0.51100000000E-03 0.  1.
</event>
<event>
 8    1  0.1115874E+005  0.1043930E+01  0.7957747E-01            NaN
         13   -1    0    0    0    0  0.00000000000E+00  0.00000000000E+00  0.74505805969E-08  0.10566000000E+00  0.10566000000E+00 0.  1.
     999900   -1    0    0    0    0 -0.00000000000E+00 -0.00000000000E+00 -0.74505805969E-08  0.93827000000E+00  0.93827000000E+00 0.  1.
     999902    2    1    2    0    0  0.52237192101E-02 -0.14755700360E-01 -0.18148797041E-01  0.10199634239E+01  0.10196818079E+01 0.  0.
     999903    2    3    3    0    0 -0.48692708612E-01  0.18856408808E-01 -0.11938057915E+00  0.13188424457E+00  0.20376144399E-01 0.  0.
         14    1    1    2    0    0 -0.52237192101E-02  0.14755700360E-01  0.18148797041E-01  0.23966576091E-01  0.00000000000E+00 0.  1.
     999901    1    3    3    0    0  0.53916427822E-01 -0.33612109168E-01  0.10123178211E+00  0.88807917934E+00  0.88000000000E+00 0. -1.
        -11    1    4    4    0    0 -0.21699134139E-01  0.11365991086E-01 -0.79173073588E-01  0.82877469062E-01  0.51100000000E-03 0. -1.
         11    1    4    4    0    0 -0.26993574474E-01  0.74904177214E-02 -0.40207505566E-01  0.49006775505E-01  0.51100000000E-03 0.  1.
</event>
<event>
 8    1  0.1115874E+005  0.1043930E+01  0.7957747E-01            NaN
         13   -1    0    0    0    0  0.00000000000E+00  0.00000000000E+00  0.74505805969E-08  0.10566000000E+00  0.10566000000E+00 0. -1.
     999900   -1    0    0    0    0 -0.00000000000E+00 -0.00000000000E+00 -0.74505805969E-08  0.93827000000E+00  0.93827000000E+00 0.  1.
     999902    2    1    2    0    0 -0.10822388527E-01 -0.18381186579E-01 -0.15790863477E-01  0.10173905297E+01  0.10170443188E+01 0.  0.
     999903    2    3    3    0    0 -0.37096495315E-01 -0.12355027690E+00 -0.50085243197E-02  0.13067348066E+00  0.20239870228E-01 0.  0.
         14    1    1    2    0    0  0.10822388527E-01  0.18381186579E-01  0.15790863477E-01  0.26539470282E-01  0.00000000000E+00 0. -1.
     999901    1    3    3    0    0  0.26274106788E-01  0.10516909032E+00 -0.10782339158E-01  0.88671704905E+00  0.88000000000E+00 0.  1.
        -11    1    4    4    0    0 -0.35404287515E-01 -0.10896688019E+00 -0.10351203356E-01  0.11504196228E+00  0.51100000000E-03 0. -1.
         11    1    4    4    0    0 -0.16922077997E-02 -0.14583396703E-01  0.53426790366E-02  0.15631518382E-01  0.51100000000E-03 0.  1.
</event>
<event>
 8    1  0.1115874E+005  0.1043930E+01  0.7957747E-01            NaN
         13   -1    0    0    0    0  0.00000000000E+00  0.00000000000E+00  0.74505805969E-08  0.10566000000E+00  0.10566000000E+00 0.  1.
     999900   -1    0    0    0    0 -0.00000000000E+00 -0.00000000000E+00 -0.74505805969E-08  0.93827000000E+00  0.93827000000E+00 0. -1.
     999902    2    1    2    0    0 -0.22450165182E-01 -0.62175711163E-02 -0.57362996377E-02  0.10199388925E+01  0.10196566928E+01 0.  0.
     999903    2    3    3    0    0 -0.24396916052E-01 -0.12753946725E+00 -0.10409330519E-01  0.13160076453E+00  0.18678379057E-01 0.  0.
         14    1    1    2    0    0  0.22450165182E-01  0.62175711163E-02  0.57362996377E-02  0.23991107536E-01  0.00000000000E+00 0.  1.
     999901    1    3    3    0    0  0.19467508704E-02  0.12132189613E+00  0.46730308816E-02  0.88833812793E+00  0.88000000000E+00 0. -1.
        -11    1    4    4    0    0 -0.11460431126E-01 -0.29876009244E-01  0.31361272141E-02  0.32156085347E-01  0.51100000000E-03 0. -1.
         11    1    4    4    0    0 -0.12936484926E-01 -0.97663458006E-01 -0.13545457733E-01  0.99444679185E-01  0.51100000000E-03 0.  1.
</event>
<event>
 8    1  0.1115874E+005  0.1043930E+01  0.7957747E-01            NaN
         13   -1    0    0    0    0  0.00000000000E+00  0.00000000000E+00  0.74505805969E-08  0.10566000000E+00  0.10566000000E+00 0. -1.
     999900   -1    0    0    0    0 -0.00000000000E+00 -0.00000000000E+00 -0.74505805969E-08  0.93827000000E+00  0.93827000000E+00 0. -1.
     999902    2    1    2    0    0 -0.74583831237E-02  0.46706340291E-02 -0.21604823869E-01  0.10206016757E+01  0.10203350282E+01 0.  0.
     999903    2    3    3    0    0 -0.12765174130E-01 -0.12476755946E+00  0.17073233041E-01  0.13027679113E+00  0.30832668651E-01 0.  0.
         14    1    1    2    0    0  0.74583831237E-02 -0.46706340291E-02  0.21604823869E-01  0.23328324318E-01  0.00000000000E+00 0. -1.
     999901    1    3    3    0    0  0.53067910058E-02  0.12943819349E+00 -0.38678056910E-01  0.89032488455E+00  0.88000000000E+00 0. -1.
        -11    1    4    4    0    0 -0.18118457762E-01 -0.37279909827E-01  0.38316254569E-02  0.41629468685E-01  0.51100000000E-03 0.  1.
         11    1    4    4    0    0  0.53532836322E-02 -0.87487649635E-01  0.13241607584E-01  0.88647322445E-01  0.51100000000E-03 0. -1.
</event>
<event>
 8    1  0.1115874E+005  0.1043930E+01  0.7957747E-01            NaN
         13   -1    0    0    0    0  0.00000000000E+00  0.00000000000E+00  0.74505805969E-08  0.10566000000E+00  0.10566000000E+00 0.  1.
     999900   -1    0    0    0    0 -0.00000000000E+00 -0.00000000000E+00 -0.74505805969E-08  0.93827000000E+00  0.93827000000E+00 0.  1.
     999902    2    1    2    0    0  0.71637953366E-02  0.34822616531E-02 -0.21946030586E-01  0.10205831722E+01  0.10203160966E+01 0.  0.
     999903    2    3    3    0    0  0.69351486238E-01 -0.10252582417E+00  0.34966928705E-01  0.13022138725E+00  0.20340853711E-01 0.  0.
         14    1    1    2    0    0 -0.71637953366E-02 -0.34822616531E-02  0.21946030586E-01  0.23346827800E-01  0.00000000000E+00 0.  1.
     999901    1    3    3    0    0 -0.62187690901E-01  0.10600808582E+00 -0.56912959291E-01  0.89036178495E+00  0.88000000000E+00 0. -1.
        -11    1    4    4    0    0  0.28190528571E-01 -0.29494645954E-01  0.46180496785E-02  0.41063701062E-01  0.51100000000E-03 0.  1.
         11    1    4    4    0    0  0.41160957667E-01 -0.73031178216E-01  0.30348879027E-01  0.89157686191E-01  0.51100000000E-03 0. -1.
</event>
<event>
 8    1  0.1115874E+005  0.1043930E+01  0.7957747E-01            NaN
         13   -1    0    0    0    0  0.00000000000E+00  0.00000000000E+00  0.74505805969E-08  0.10566000000E+00  0.10566000000E+00 0. -1.
     999900   -1    0    0    0    0 -0.00000000000E+00 -0.00000000000E+00 -0.74505805969E-08  0.93827000000E+00  0.93827000000E+00 0.  1.
     999902    2    1    2    0    0  0.31503527917E-02  0.53273347113E-02 -0.23040548822E-01  0.10200726718E+01  0.10197936476E+01 0.  0.
     999903    2    3    3    0    0 -0.32320020409E-01 -0.78617419313E-01  0.93280726274E-01  0.12775237723E+00  0.19851792218E-01 0.  0.
         14    1    1    2    0    0 -0.31503527917E-02 -0.53273347113E-02  0.23040548822E-01  0.23857328179E-01  0.00000000000E+00 0. -1.
     999901    1    3    3    0    0  0.35470373201E-01  0.83944754025E-01 -0.11632127510E+00  0.89232029459E+00  0.88000000000E+00 0.  1.
        -11    1    4    4    0    0 -0.16007237743E-01 -0.55902423096E-01  0.52781301183E-01  0.78533046825E-01  0.51100000000E-03 0. -1.
         11    1    4    4    0    0 -0.16312782666E-01 -0.22714996217E-01  0.40499425091E-01  0.49219330402E-01  0.51100000000E-03 0.  1.
</event>
<event>
 8    1  0.1115874E+005  0.1043930E+01  0.7957747E-01            NaN
         13   -1    0    0    0    0  0.00000000000E+00  0.00000000000E+00  0.74505805969E-08  0.10566000000E+00  0.10566000000E+00 0.  1.
     999900   -1    0    0    0    0 -0.00000000000E+00 -0.00000000000E+00 -0.74505805969E-08  0.93827000000E+00  0.93827000000E+00 0. -1.
     999902    2    1    2    0    0  0.15633753954E-01  0.15469185487E-01 -0.10155106247E-01  0.10197052989E+01  0.10194175103E+01 0.  0.
     999903    2    3    3    0    0  0.68807255900E-02  0.41533925414E-02 -0.12978095443E+00  0.13149642353E+00  0.19586174038E-01 0.  0.
         14    1    1    2    0    0 -0.15633753954E-01 -0.15469185487E-01  0.10155106247E-01  0.24224701137E-01  0.00000000000E+00 0. -1.
     999901    1    3    3    0    0  0.87530283637E-02  0.11315792945E-01  0.11962584818E+00  0.88820887534E+00  0.88000000000E+00 0.  1.
        -11    1    4    4    0    0  0.40239601427E-02  0.84008327345E-02 -0.26620214135E-01  0.28207501971E-01  0.51100000000E-03 0. -1.
         11    1    4    4    0    0  0.28567654473E-02 -0.42474401931E-02 -0.10316074029E+00  0.10328892155E+00  0.51100000000E-03 0.  1.
</event>
<event>
 8    1  0.1115874E+005  0.1043930E+01  0.7957747E-01            NaN
         13   -1    0    0    0    0  0.00000000000E+00  0.00000000000E+00  0.74505805969E-08  0.10566000000E+00  0.10566000000E+00 0.  1.
     999900   -1    0    0    0    0 -0.00000000000E+00 -0.00000000000E+00 -0.74505805969E-08  0.93827000000E+00  0.93827000000E+00 0.  1.
     999902    2    1    2    0    0  0.11812474151E-01 -0.14334977871E-01 -0.13932993914E-01  0.10207103003E+01  0.10204461586E+01 0.  0.
     999903    2    3    3    0    0  0.12865237892E+00 -0.57823648221E-02 -0.25364201017E-01  0.13287282470E+00  0.20663361390E-01 0.  0.
         14    1    1    2    0    0 -0.11812474151E-01  0.14334977871E-01  0.13932993914E-01  0.23219699729E-01  0.00000000000E+00 0.  1.
     999901    1    3    3    0    0 -0.11683990477E+00 -0.85526130484E-02  0.11431207103E-01  0.88783747557E+00  0.88000000000E+00 0. -1.
        -11    1    4    4    0    0  0.58618690601E-01 -0.12772289547E-01 -0.98432624285E-02  0.60798299353E-01  0.51100000000E-03 0.  1.
         11    1    4    4    0    0  0.70033688323E-01  0.69899247252E-02 -0.15520938588E-01  0.72074525343E-01  0.51100000000E-03 0. -1.
</event>
<event>
 8    1  0.1115874E+005  0.1043930E+01  0.7957747E-01            NaN
         13   -1    0    0    0    0  0.00000000000E+00  0.00000000000E+00  0.74505805969E-08  0.10566000000E+00  0.10566000000E+00 0. -1.
     999900   -1    0    0    0    0 -0.00000000000E+00 -0.00000000000E+00 -0.74505805969E-08  0.93827000000E+00  0.93827000000E+00 0.  1.
     999902    2    1    2    0    0  0.22993458390E-02  0.17957081463E-01  0.15374792834E-01  0.10201786207E+01  0.10199020983E+01 0.  0.
     999903    2    3    3    0    0  0.54267412232E-01 -0.79841460480E-01 -0.81578275685E-01  0.12795379909E+00  0.19938625716E-01 0.  0.
         14    1    1    2    0    0 -0.22993458390E-02 -0.17957081463E-01 -0.15374792834E-01  0.23751379341E-01  0.00000000000E+00 0.  1.
     999901    1    3    3    0    0 -0.51968066393E-01  0.97798541942E-01  0.96953068519E-01  0.89222482157E+00  0.88000000000E+00 0.  1.
        -11    1    4    4    0    0  0.77141889340E-02 -0.22922568735E-01 -0.13287784155E-01  0.27600347771E-01  0.51100000000E-03 0. -1.
         11    1    4    4    0    0  0.46553223298E-01 -0.56918891745E-01 -0.68290491530E-01  0.10035345132E+00  0.51100000000E-03 0.  1.
</event>
<event>
 8    1  0.1115874E+005  0.1043930E+01  0.7957747E-01            NaN
         13   -1    0    0    0    0  0.00000000000E+00  0.00000000000E+00  0.74505805969E-08  0.10566000000E+00  0.10566000000E+00 0.  1.
     999900   -1    0    0    0    0 -0.00000000000E+00 -0.00000000000E+00 -0.74505805969E-08  0.93827000000E+00  0.93827000000E+00 0. -1.
     999902    2    1    2    0    0  0.47956245993E-02  0.10796957870E-01 -0.23019424523E-01  0.10180559547E+01  0.10177271052E+01 0.  0.
     999903    2    3    3    0    0  0.88874789958E-01  0.79545213181E-01  0.44085962707E-01  0.12884351572E+00  0.20758376734E-01 0.  0.
         14    1    1    2    0    0 -0.47956245993E-02 -0.10796957870E-01  0.23019424523E-01  0.25874045294E-01  0.00000000000E+00 0.  1.
     999901    1    3    3    0    0 -0.84079165359E-01 -0.68748255310E-01 -0.67105387230E-01  0.88921243899E+00  0.88000000000E+00 0. -1.
        -11    1    4    4    0    0  0.68859230321E-01  0.50236872175E-01  0.35430900992E-01  0.92308974603E-01  0.51100000000E-03 0. -1.
         11    1    4    4    0    0  0.20015559637E-01  0.29308341006E-01  0.86550617154E-02  0.36534541114E-01  0.51100000000E-03 0.  1.
</event>
<event>
 8    1  0.1115874E+005  0.1043930E+01  0.7957747E-01            NaN
         13   -1    0    0    0    0  0.00000000000E+00  0.00000000000E+00  0.74505805969E-08  0.10566000000E+00  0.10566000000E+00 0. -1.
     999900   -1    0    0    0    0 -0.00000000000E+00 -0.00000000000E+00 -0.74505805969E-08  0.93827000000E+00  0.93827000000E+00 0.  1.
     999902    2    1    2    0    0  0.12292712048E-01 -0.13557124879E-01  0.13715285953E-01  0.10210604685E+01  0.10208043225E+01 0.  0.
     999903    2    3    3    0    0 -0.76737359356E-01  0.75311119612E-01 -0.67233463462E-01  0.12843702123E+00  0.20379959666E-01 0.  0.
         14    1    1    2    0    0 -0.12292712048E-01  0.13557124879E-01 -0.13715285953E-01  0.22869531549E-01  0.00000000000E+00 0.  1.
     999901    1    3    3    0    0  0.89030071404E-01 -0.88868244491E-01  0.80948749414E-01  0.89262344722E+00  0.88000000000E+00 0. -1.
        -11    1    4    4    0    0 -0.22154493961E-01  0.31878518561E-01 -0.16512104700E-01  0.42189717597E-01  0.51100000000E-03 0. -1.
         11    1    4    4    0    0 -0.54582865395E-01  0.43432601051E-01 -0.50721358762E-01  0.86247303635E-01  0.51100000000E-03 0.  1.
</event>
<event>
 8    1  0.1115874E+005  0.1043930E+01  0.7957747E-01            NaN
         13   -1    0    0    0    0  0.00000000000E+00  0.00000000000E+00  0.74505805969E-08  0.10566000000E+00  0.10566000000E+00 0.  1.
     999900   -1    0    0    0    0 -0.00000000000E+00 -0.00000000000E+00 -0.74505805969E-08  0.93827000000E+00  0.93827000000E+00 0. -1.
     999902    2    1    2    0    0  0.13040261779E-01  0.18020121367E-01  0.34966386505E-02  0.10214133465E+01  0.10211651310E+01 0.  0.
     999903    2    3    3    0    0 -0.44243236898E-02  0.10908225162E-01 -0.12906667364E+00  0.13128491615E+00  0.20951347156E-01 0.  0.
         14    1    1    2    0    0 -0.13040261779E-01 -0.18020121367E-01 -0.34966386505E-02  0.22516653463E-01  0.00000000000E+00 0. -1.
     999901    1    3    3    0    0  0.17464585468E-01  0.71118962049E-02  0.13256331229E+00  0.89012843038E+00  0.88000000000E+00 0.  1.
        -11    1    4    4    0    0  0.14808655413E-02 -0.55055043602E-02 -0.49324751293E-01  0.49655772596E-01  0.51100000000E-03 0.  1.
         11    1    4    4    0    0 -0.59051892310E-02  0.16413729522E-01 -0.79741922349E-01  0.81629143556E-01  0.51100000000E-03 0. -1.
</event>
<event>
 8    1  0.1115874E+005  0.1043930E+01  0.7957747E-01            NaN
         13   -1    0    0    0    0  0.00000000000E+00  0.00000000000E+00  0.74505805969E-08  0.10566000000E+00  0.10566000000E+00 0.  1.
     999900   -1    0    0    0    0 -0.00000000000E+00 -0.00000000000E+00 -0.74505805969E-08  0.93827000000E+00  0.93827000000E+00 0.  1.
     999902    2    1    2    0    0 -0.87116896651E-02  0.19859140806E-01  0.10485138561E-01  0.10198423031E+01  0.10195577993E+01 0.  0.
     999903    2    3    3    0    0  0.94346300102E-02 -0.27234961701E-01 -0.12348664753E+00  0.12827313425E+00  0.19346562199E-01 0.  0.
         14    1    1    2    0    0  0.87116896651E-02 -0.19859140806E-01 -0.10485138561E-01  0.24087696881E-01  0.00000000000E+00 0. -1.
     999901    1    3    3    0    0 -0.18146319675E-01  0.47094102507E-01  0.13397178609E+00  0.89156916887E+00  0.88000000000E+00 0. -1.
        -11    1    4    4    0    0  0.41149651736E-02 -0.26642174679E-02 -0.45510647333E-02  0.67085247486E-02  0.51100000000E-03 0.  1.
         11    1    4    4    0    0  0.53196648366E-02 -0.24570744233E-01 -0.11893558280E+00  0.12156460950E+00  0.51100000000E-03 0. -1.
</event>
<event>
 8    1  0.1115874E+005  0.1043930E+01  0.7957747E-01            NaN
         13   -1    0    0    0    0  0.00000000000E+00  0.00000000000E+00  0.74505805969E-08  0.10566000000E+00  0.10566000000E+00 0. -1.
     999900   -1    0    0    0    0 -0.00000000000E+00 -0.00000000000E+00 -0.74505805969E-08  0.93827000000E+00  0.93827000000E+00 0.  1.
     999902    2    1    2    0    0 -0.13884426312E-01 -0.21592124368E-01 -0.10572146410E-01  0.10161673019E+01  0.10157879788E+01 0.  0.
     999903    2    3    3    0    0 -0.75499267105E-01 -0.93639301415E-01  0.43602171869E-01  0.12941928743E+00  0.19487033212E-01 0.  0.
         14    1    1    2    0    0  0.13884426312E-01  0.21592124368E-01  0.10572146410E-01  0.27762698148E-01  0.00000000000E+00 0. -1.
     999901    1    3    3    0    0  0.61614840793E-01  0.72047177046E-01 -0.54174318279E-01  0.88674801443E+00  0.88000000000E+00 0.  1.
        -11    1    4    4    0    0 -0.33399318262E-01 -0.34029389944E-01  0.26142966333E-01  0.54380416052E-01  0.51100000000E-03 0. -1.
         11    1    4    4    0    0 -0.42099948843E-01 -0.59609911471E-01  0.17459205536E-01  0.75038871374E-01  0.51100000000E-03 0.  1.
</event>
<event>
 8    1  0.1115874E+005  0.1043930E+01  0.7957747E-01            NaN
         13   -1    0    0    0    0  0.00000000000E+00  0.00000000000E+00  0.74505805969E-08  0.10566000000E+00  0.10566000000E+00 0.  1.
     999900   -1    0    0    0    0 -0.00000000000E+00 -0.00000000000E+00 -0.74505805969E-08  0.93827000000E+00  0.93827000000E+00 0.  1.
     999902    2    1    2    0    0  0.18925237604E-01  0.59751274245E-02 -0.13799298614E-01  0.10197579623E+01  0.10194714386E+01 0.  0.
     999903    2    3    3    0    0 -0.46253473693E-01  0.57088467317E-01 -0.10669945617E+00  0.13099968399E+00  0.19433639134E-01 0.  0.
         14    1    1    2    0    0 -0.18925237604E-01 -0.59751274245E-02  0.13799298614E-01  0.24172037737E-01  0.00000000000E+00 0.  1.
     999901    1    3    3    0    0  0.65178711298E-01 -0.51113339892E-01  0.92900157555E-01  0.88875827827E+00  0.88000000000E+00 0. -1.
        -11    1    4    4    0    0 -0.34855893085E-01  0.33471657152E-01 -0.56404116699E-01  0.74276312623E-01  0.51100000000E-03 0.  1.
         11    1    4    4    0    0 -0.11397580608E-01  0.23616810165E-01 -0.50295339470E-01  0.56723371369E-01  0.51100000000E-03 0. -1.
</event>
<event>
 8    1  0.1115874E+005  0.1043930E+01  0.7957747E-01            NaN
         13   -1    0    0    0    0  0.00000000000E+00  0.00000000000E+00  0.74505805969E-08  0.10566000000E+00  0.10566000000E+00 0.  1.
     999900   -1    0    0    0    0 -0.00000000000E+00 -0.00000000000E+00 -0.74505805969E-08  0.93827000000E+00  0.93827000000E+00 0.  1.
     999902    2    1    2    0    0 -0.23622560611E-02  0.10243344611E-01  0.20885905111E-01  0.10205477975E+01  0.10202799025E+01 0.  0.
     999903    2    3    3    0    0  0.41636393096E-01 -0.10145284458E+00  0.65551556250E-01  0.13127453228E+00  0.30161687526E-01 0.  0.
         14    1    1    2    0    0  0.23622560611E-02 -0.10243344611E-01 -0.20885905111E-01  0.23382202523E-01  0.00000000000E+00 0. -1.
     999901    1    3    3    0    0 -0.43998649157E-01  0.11169618919E+00 -0.44665651139E-01  0.88927326520E+00  0.88000000000E+00 0.  1.
        -11    1    4    4    0    0  0.40956000833E-01 -0.64408778454E-01  0.48911507707E-01  0.90655840702E-01  0.51100000000E-03 0.  1.
         11    1    4    4    0    0  0.68039226257E-03 -0.37044066126E-01  0.16640048543E-01  0.40618691576E-01  0.51100000000E-03 0. -1.
</event>
<event>
 8    1  0.1115874E+005  0.1043930E+01  0.7957747E-01            NaN
         13   -1    0    0    0    0  0.00000000000E+00  0.00000000000E+00  0.74505805969E-08  0.10566000000E+00  0.10566000000E+00 0.  1.
     999900   -1    0    0    0    0 -0.00000000000E+00 -0.00000000000E+00 -0.74505805969E-08  0.93827000000E+00  0.93827000000E+00 0.  1.
     999902    2    1    2    0    0 -0.94619683146E-02 -0.19288481055E-01 -0.10579239407E-01  0.10199822516E+01  0.10197010832E+01 0.  0.
     999903    2    3    3    0    0 -0.24587300337E-01 -0.11249552472E+00  0.60455585538E-01  0.13208458015E+00  0.23058188792E-01 0.  0.
         14    1    1    2    0    0  0.94619683146E-02  0.19288481055E-01  0.10579239407E-01  0.23947748375E-01  0.00000000000E+00 0.  1.
     999901    1    3    3    0    0  0.15125332022E-01  0.93207043667E-01 -0.71034824945E-01  0.88789767148E+00  0.88000000000E+00 0.  1.
        -11    1    4    4    0    0  0.14613946111E-02 -0.26994301464E-01  0.21664690425E-01  0.34647480687E-01  0.51100000000E-03 0.  1.
         11    1    4    4    0    0 -0.26048694948E-01 -0.85501223257E-01  0.38790895112E-01  0.97437099462E-01  0.51100000000E-03 0. -1.
</event>
<event>
 8    1  0.1115874E+005  0.1043930E+01  0.7957747E-01            NaN
         13   -1    0    0    0    0  0.00000000000E+00  0.00000000000E+00  0.74505805969E-08  0.10566000000E+00  0.10566000000E+00 0. -1.
     999900   -1    0    0    0    0 -0.00000000000E+00 -0.00000000000E+00 -0.74505805969E-08  0.93827000000E+00  0.93827000000E+00 0.  1.
     999902    2    1    2    0    0 -0.44390535843E-03  0.73226973762E-02 -0.22130902351E-01  0.10206148593E+01  0.10203485165E+01 0.  0.
     999903    2    3    3    0    0 -0.91946497085E-01  0.89103007814E-01 -0.25832457845E-01  0.13209111451E+00  0.19678473698E-01 0.  0.
         14    1    1    2    0    0  0.44390535843E-03 -0.73226973762E-02  0.22130902351E-01  0.23315140740E-01  0.00000000000E+00 0.  1.
     999901    1    3    3    0    0  0.91502591727E-01 -0.81780310438E-01  0.37015554937E-02  0.88852374475E+00  0.88000000000E+00 0. -1.
        -11    1    4    4    0    0 -0.25941229157E-01  0.30571037158E-01  0.24001771172E-03  0.40098059960E-01  0.51100000000E-03 0.  1.
         11    1    4    4    0    0 -0.66005267928E-01  0.58531970656E-01 -0.26072475557E-01  0.91993054552E-01  0.51100000000E-03 0. -1.
</event>
<event>
 8    1  0.1115874E+005  0.1043930E+01  0.7957747E-01            NaN
         13   -1    0    0    0    0  0.00000000000E+00  0.00000000000E+00  0.74505805969E-08  0.10566000000E+00  0.10566000000E+00 0. -1.
     999900   -1    0    0    0    0 -0.00000000000E+00 -0.00000000000E+00 -0.74505805969E-08  0.93827000000E+00  0.93827000000E+00 0. -1.
     999902    2    1    2    0    0  0.75413570722E-02 -0.16532191224E-01  0.66087917784E-02  0.10245945005E+01  0.10244120406E+01 0.  0.
     999903    2    3    3    0    0 -0.57723390274E-01 -0.10033215651E+00  0.68674497042E-01  0.13603720170E+00  0.19783889633E-01 0.  0.
         14    1    1    2    0    0 -0.75413570722E-02  0.16532191224E-01 -0.66087917784E-02  0.19335499526E-01  0.00000000000E+00 0.  1.
     999901    1    3    3    0    0  0.65264747346E-01  0.83799965285E-01 -0.62065705264E-01  0.88855729877E+00  0.88000000000E+00 0. -1.
        -11    1    4    4    0    0 -0.42101161563E-01 -0.76344832765E-01  0.60966933326E-01  0.10638735533E+00  0.51100000000E-03 0.  1.
         11    1    4    4    0    0 -0.15622228710E-01 -0.23987323744E-01  0.77075637156E-02  0.29649846369E-01  0.51100000000E-03 0. -1.
</event>
<event>
 8    1  0.1115874E+005  0.1043930E+01  0.7957747E-01            NaN
         13   -1    0    0    0    0  0.00000000000E+00  0.00000000000E+00  0.74505805969E-08  0.10566000000E+00  0.10566000000E+00 0. -1.
     999900   -1    0    0    0    0 -0.00000000000E+00 -0.00000000000E+00 -0.74505805969E-08  0.93827000000E+00  0.93827000000E+00 0. -1.
     999902    2    1    2    0    0  0.13635046003E-01 -0.14477498342E-01 -0.12488192223E-01  0.10204466573E+01  0.10201764127E+01 0.  0.
     999903    2    3    3    0    0  0.32933760494E-01 -0.76049921139E-01  0.99433547994E-01  0.13101420933E+00  0.20235352581E-01 0.  0.
         14    1    1    2    0    0 -0.13635046003E-01  0.14477498342E-01  0.12488192223E-01  0.23483342666E-01  0.00000000000E+00 0. -1.
     999901    1    3    3    0    0 -0.19298714490E-01  0.61572422797E-01 -0.11192174022E+00  0.88943244800E+00  0.88000000000E+00 0. -1.
        -11    1    4    4    0    0  0.12779173723E-01 -0.19703704711E-01  0.41696464174E-01  0.47858118496E-01  0.51100000000E-03 0.  1.
         11    1    4    4    0    0  0.20154586771E-01 -0.56346216428E-01  0.57737083819E-01  0.83156090833E-01  0.51100000000E-03 0. -1.
</event>
<event>
 8    1  0.1115874E+005  0.1043930E+01  0.7957747E-01            NaN
         13   -1    0    0    0    0  0.00000000000E+00  0.00000000000E+00  0.74505805969E-08  0.10566000000E+00  0.10566000000E+00 0.  1.
     999900   -1    0    0    0    0 -0.00000000000E+00 -0.00000000000E+00 -0.74505805969E-08  0.93827000000E+00  0.93827000000E+00 0.  1.
     999902    2    1    2    0    0 -0.12875947402E-02  0.36177482344E-02  0.23318409494E-01  0.10202975176E+01  0.10200237890E+01 0.  0.
     999903    2    3    3    0    0  0.12076600812E+00 -0.42032793942E-02 -0.42018539889E-01  0.12943997154E+00  0.19673643815E-01 0.  0.
         14    1    1    2    0    0  0.12875947402E-02 -0.36177482344E-02 -0.23318409494E-01  0.23632482388E-01  0.00000000000E+00 0. -1.
     999901    1    3    3    0    0 -0.12205360286E+00  0.78210276286E-02  0.65336949383E-01  0.89085754608E+00  0.88000000000E+00 0. -1.
        -11    1    4    4    0    0  0.67086729872E-01  0.74285011365E-02 -0.22643295491E-01  0.71195448631E-01  0.51100000000E-03 0.  1.
         11    1    4    4    0    0  0.53679278253E-01 -0.11631780531E-01 -0.19375244398E-01  0.58244522906E-01  0.51100000000E-03 0. -1.
</event>
<event>
 8    1  0.1115874E+005  0.1043930E+01  0.7957747E-01            NaN
         13   -1    0    0    0    0  0.00000000000E+00  0.00000000000E+00  0.74505805969E-08  0.10566000000E+00  0.10566000000E+00 0.  1.
     999900   -1    0    0    0    0 -0.00000000000E+00 -0.00000000000E+00 -0.74505805969E-08  0.93827000000E+00  0.93827000000E+00 0. -1.
     999902    2    1    2    0    0  0.49711150362E-02 -0.63604778126E-02  0.23649393377E-01  0.10189407729E+01  0.10186343001E+01 0.  0.
     999903    2    3    3    0    0 -0.12538887517E+00 -0.23874435617E-01  0.75030003452E-02  0.12901876973E+00  0.17239177377E-01 0.  0.
         14    1    1    2    0    0 -0.49711150362E-02  0.63604778126E-02 -0.23649393377E-01  0.24989227075E-01  0.00000000000E+00 0. -1.
     999901    1    3    3    0    0  0.13035999020E+00  0.17513957805E-01  0.16146393032E-01  0.88992200320E+00  0.88000000000E+00 0.  1.
        -11    1    4    4    0    0 -0.56830887688E-01 -0.95684378947E-02 -0.50964246275E-02  0.57857924817E-01  0.51100000000E-03 0.  1.
         11    1    4    4    0    0 -0.68557987478E-01 -0.14305997723E-01  0.12599424973E-01  0.71160844912E-01  0.51100000000E-03 0. -1.
</event>
<event>
 8    1  0.1115874E+005  0.1043930E+01  0.7957747E-01            NaN
         13   -1    0    0    0    0  0.00000000000E+00  0.00000000000E+00  0.74505805969E-08  0.10566000000E+00  0.10566000000E+00 0.  1.
     999900   -1    0    0    0    0 -0.00000000000E+00 -0.00000000000E+00 -0.74505805969E-08  0.93827000000E+00  0.93827000000E+00 0.  1.
     999902    2    1    2    0    0 -0.19512454008E-01 -0.11110336514E-01  0.77181941361E-02  0.10201866649E+01  0.10199103320E+01 0.  0.
     999903    2    3    3    0    0  0.88053596580E-01  0.64408618621E-01  0.60066730042E-01  0.12888764832E+00  0.33198009097E-01 0.  0.
         14    1    1    2    0    0  0.19512454008E-01  0.11110336514E-01 -0.77181941361E-02  0.23743335056E-01  0.00000000000E+00 0. -1.
     999901    1    3    3    0    0 -0.10756605059E+00 -0.75518955135E-01 -0.52348535906E-01  0.89129901662E+00  0.88000000000E+00 0.  1.
        -11    1    4    4    0    0  0.50942993358E-01  0.17022763267E-01  0.25252301538E-01  0.59354047002E-01  0.51100000000E-03 0.  1.
         11    1    4    4    0    0  0.37110603222E-01  0.47385855354E-01  0.34814428504E-01  0.69533601318E-01  0.51100000000E-03 0. -1.
</event>
<event>
 8    1  0.1115874E+005  0.1043930E+01  0.7957747E-01            NaN
         13   -1    0    0    0    0  0.00000000000E+00  0.00000000000E+00  0.74505805969E-08  0.10566000000E+00  0.10566000000E+00 0.  1.
     999900   -1    0    0    0    0 -0.00000000000E+00 -0.00000000000E+00 -0.74505805969E-08  0.93827000000E+00  0.93827000000E+00 0.  1.
     999902    2    1    2    0    0  0.10688613077E-01 -0.69927275859E-02 -0.12448826912E-02  0.10310966676E+01  0.10310168008E+01 0.  0.
     999903    2    3    3    0    0  0.32473244486E-01 -0.10840995695E+00 -0.82047934840E-01  0.14132750771E+00  0.20841555904E-01 0.  0.
         14    1    1    2    0    0 -0.10688613077E-01  0.69927275859E-02  0.12448826912E-02  0.12833332440E-01  0.00000000000E+00 0.  1.
     999901    1    3    3    0    0 -0.21784631410E-01  0.10141722936E+00  0.80803052148E-01  0.88976915985E+00  0.88000000000E+00 0.  1.
        -11    1    4    4    0    0  0.15688519996E-01 -0.29249279761E-01 -0.32416509700E-01  0.46397642702E-01  0.51100000000E-03 0. -1.
         11    1    4    4    0    0  0.16784724490E-01 -0.79160677186E-01 -0.49631425140E-01  0.94929865012E-01  0.51100000000E-03 0.  1.
</event>
<event>
 7    1  0.1115874E+005  0.1043930E+01  0.7957747E-01            NaN
         13   -1    0    0    0    0  0.00000000000E+00  0.00000000000E+00  0.74505805969E-08  0.10566000000E+00  0.10566000000E+00 0. -1.
     999900   -1    0    0    0    0 -0.00000000000E+00 -0.00000000000E+00 -0.74505805969E-08  0.93827000000E+00  0.93827000000E+00 0.  1.
     999902    2    1    2    0    0  0.20273631980E-01  0.10373642806E-01 -0.81191597564E-02  0.10197524614E+01  0.10194658058E+01 0.  0.
         14    1    1    2    0    0 -0.20273631980E-01 -0.10373642806E-01  0.81191597564E-02  0.24177538623E-01  0.00000000000E+00 0.  1.
     999901    1    3    3    0    0 -0.14803068801E-01  0.11210938190E+00 -0.69617917479E-01  0.88996308844E+00  0.88000000000E+00 0. -1.
        -11    1    3    3    0    0  0.11727017710E-01 -0.71295748333E-01  0.23991725357E-01  0.76134556420E-01  0.51100000000E-03 0. -1.
         11    1    3    3    0    0  0.23349683070E-01 -0.30439990765E-01  0.37507032366E-01  0.53654816514E-01  0.51100000000E-03 0.  1.
</event>
<event>
 8    1  0.1115874E+005  0.1043930E+01  0.7957747E-01            NaN
         13   -1    0    0    0    0  0.00000000000E+00  0.00000000000E+00  0.74505805969E-08  0.10566000000E+00  0.10566000000E+00 0.  1.
     999900   -1    0    0    0    0 -0.00000000000E+00 -0.00000000000E+00 -0.74505805969E-08  0.93827000000E+00  0.93827000000E+00 0. -1.
     999902    2    1    2    0    0 -0.13599143850E-01  0.58274147759E-02  0.18952938476E-01  0.10198860953E+01  0.10196026373E+01 0.  0.
     999903    2    3    3    0    0 -0.25016682303E-01 -0.12596052812E+00  0.37735857479E-02  0.12986989611E+00  0.18975271493E-01 0.  0.
         14    1    1    2    0    0  0.13599143850E-01 -0.58274147759E-02 -0.18952938476E-01  0.24043904702E-01  0.00000000000E+00 0. -1.
     999901    1    3    3    0    0  0.11417538453E-01  0.13178794289E+00  0.15179352728E-01  0.89001619919E+00  0.88000000000E+00 0.  1.
        -11    1    4    4    0    0 -0.44390463319E-02 -0.44799133458E-01  0.92432422685E-02  0.45960484544E-01  0.51100000000E-03 0.  1.
         11    1    4    4    0    0 -0.20577635971E-01 -0.81161394659E-01 -0.54696565206E-02  0.83909411561E-01  0.51100000000E-03 0. -1.
</event>
<event>
 8    1  0.1115874E+005  0.1043930E+01  0.7957747E-01            NaN
         13   -1    0    0    0    0  0.00000000000E+00  0.00000000000E+00  0.74505805969E-08  0.10566000000E+00  0.10566000000E+00 0. -1.
     999900   -1    0    0    0    0 -0.00000000000E+00 -0.00000000000E+00 -0.74505805969E-08  0.93827000000E+00  0.93827000000E+00 0. -1.
     999902    2    1    2    0    0  0.16389505813E-01  0.66377707610E-03 -0.17670838702E-01  0.10198195242E+01  0.10195344756E+01 0.  0.
     999903    2    3    3    0    0 -0.45744156258E-01 -0.52239717991E-01 -0.11001779281E+00  0.13123225690E+00  0.17218436326E-01 0.  0.
         14    1    1    2    0    0 -0.16389505813E-01 -0.66377707610E-03  0.17670838702E-01  0.24110475757E-01  0.00000000000E+00 0. -1.
     999901    1    3    3    0    0  0.62133662071E-01  0.52903495067E-01  0.92346954104E-01  0.88858726734E+00  0.88000000000E+00 0. -1.
        -11    1    4    4    0    0 -0.12224126485E-01 -0.20147632784E-01 -0.24916789931E-01  0.34299619773E-01  0.51100000000E-03 0.  1.
         11    1    4    4    0    0 -0.33520029773E-01 -0.32092085207E-01 -0.85101002875E-01  0.96932637127E-01  0.51100000000E-03 0. -1.
</event>
<event>
 8    1  0.1115874E+005  0.1043930E+01  0.7957747E-01            NaN
         13   -1    0    0    0    0  0.00000000000E+00  0.00000000000E+00  0.74505805969E-08  0.10566000000E+00  0.10566000000E+00 0. -1.
     999900   -1    0    0    0    0 -0.00000000000E+00 -0.00000000000E+00 -0.74505805969E-08  0.93827000000E+00  0.93827000000E+00 0.  1.
     999902    2    1    2    0    0  0.29040370510E-01  0.58668329474E-02  0.27393076004E-02  0.10141765690E+01  0.10137400291E+01 0.  0.
     999903    2    3    3    0    0 -0.94325562083E-01 -0.52478943176E-01  0.53647766930E-01  0.12220400547E+00  0.20109324139E-01 0.  0.
         14    1    1    2    0    0 -0.29040370510E-01 -0.58668329474E-02 -0.27393076004E-02  0.29753430967E-01  0.00000000000E+00 0.  1.
     999901    1    3    3    0    0  0.12336593259E+00  0.58345776123E-01 -0.50908459330E-01  0.89197256356E+00  0.88000000000E+00 0. -1.
        -11    1    4    4    0    0 -0.79343789137E-01 -0.48628577552E-01  0.52091774177E-01  0.10664890758E+00  0.51100000000E-03 0.  1.
         11    1    4    4    0    0 -0.14981772946E-01 -0.38503656239E-02  0.15559927529E-02  0.15555097894E-01  0.51100000000E-03 0. -1.
</event>
<event>
 8    1  0.1115874E+005  0.1043930E+01  0.7957747E-01            NaN
         13   -1    0    0    0    0  0.00000000000E+00  0.00000000000E+00  0.74505805969E-08  0.10566000000E+00  0.10566000000E+00 0. -1.
     999900   -1    0    0    0    0 -0.00000000000E+00 -0.00000000000E+00 -0.74505805969E-08  0.93827000000E+00  0.93827000000E+00 0.  1.
     999902    2    1    2    0    0  0.22146389893E-01 -0.46587488713E-02  0.66915495299E-02  0.10203303525E+01  0.10200573929E+01 0.  0.
     999903    2    3    3    0    0 -0.22080826459E-01  0.11713573576E+00  0.50603458531E-01  0.12975851437E+00  0.82594519612E-02 0.  0.
         14    1    1    2    0    0 -0.22146389893E-01  0.46587488713E-02 -0.66915495299E-02  0.23599647486E-01  0.00000000000E+00 0. -1.
     999901    1    3    3    0    0  0.44227216352E-01 -0.12179448463E+00 -0.43911909001E-01  0.89057183815E+00  0.88000000000E+00 0. -1.
        -11    1    4    4    0    0 -0.16027860985E-01  0.10038926740E+00  0.42506388723E-01  0.11019052382E+00  0.51100000000E-03 0. -1.
         11    1    4    4    0    0 -0.60529654735E-02  0.16746468358E-01  0.80970698079E-02  0.19567990545E-01  0.51100000000E-03 0.  1.
</event>
<event>
 8    1  0.1115874E+005  0.1043930E+01  0.7957747E-01            NaN
         13   -1    0    0    0    0  0.00000000000E+00  0.00000000000E+00  0.74505805969E-08  0.10566000000E+00  0.10566000000E+00 0.  1.
     999900   -1    0    0    0    0 -0.00000000000E+00 -0.00000000000E+00 -0.74505805969E-08  0.93827000000E+00  0.93827000000E+00 0. -1.
     999902    2    1    2    0    0  0.14588660128E-01  0.11688524114E-01  0.13791131975E-01  0.10206997197E+01  0.10204353345E+01 0.  0.
     999903    2    3    3    0    0 -0.45715475711E-01  0.87167115731E-01 -0.82985939374E-01  0.13013843148E+00  0.19008798740E-01 0.  0.
         14    1    1    2    0    0 -0.14588660128E-01 -0.11688524114E-01 -0.13791131975E-01  0.23230280270E-01  0.00000000000E+00 0. -1.
     999901    1    3    3    0    0  0.60304135839E-01 -0.75478591618E-01  0.96777071350E-01  0.89056128825E+00  0.88000000000E+00 0.  1.
        -11    1    4    4    0    0 -0.37418138649E-01  0.75605535183E-01 -0.61645616190E-01  0.10448328654E+00  0.51100000000E-03 0.  1.
         11    1    4    4    0    0 -0.82973370621E-02  0.11561580548E-01 -0.21340323185E-01  0.25655144937E-01  0.51100000000E-03 0. -1.
</event>
<event>
 8    1  0.1115874E+005  0.1043930E+01  0.7957747E-01            NaN
         13   -1    0    0    0    0  0.00000000000E+00  0.00000000000E+00  0.74505805969E-08  0.10566000000E+00  0.10566000000E+00 0.  1.
     999900   -1    0    0    0    0 -0.00000000000E+00 -0.00000000000E+00 -0.74505805969E-08  0.93827000000E+00  0.93827000000E+00 0.  1.
     999902    2    1    2    0    0 -0.26562245649E-02  0.21680555644E-01 -0.95490579378E-02  0.10200912389E+01  0.10198126540E+01 0.  0.
     999903    2    3    3    0    0  0.50966979857E-01  0.11994947596E+00  0.13005867708E-01  0.13271254106E+00  0.21399909858E-01 0.  0.
         14    1    1    2    0    0  0.26562245649E-02 -0.21680555644E-01  0.95490579378E-02  0.23838761073E-01  0.00000000000E+00 0.  1.
     999901    1    3    3    0    0 -0.53623204422E-01 -0.98268920315E-01 -0.22554925646E-01  0.88737869786E+00  0.88000000000E+00 0.  1.
        -11    1    4    4    0    0  0.44736243284E-01  0.10879881882E+00  0.17962217367E-01  0.11900175130E+00  0.51100000000E-03 0. -1.
         11    1    4    4    0    0  0.62307365730E-02  0.11150657144E-01 -0.49563496587E-02  0.13710789763E-01  0.51100000000E-03 0.  1.
</event>
<event>
 8    1  0.1115874E+005  0.1043930E+01  0.7957747E-01            NaN
         13   -1    0    0    0    0  0.00000000000E+00  0.00000000000E+00  0.74505805969E-08  0.10566000000E+00  0.10566000000E+00 0. -1.
     999900   -1    0    0    0    0 -0.00000000000E+00 -0.00000000000E+00 -0.74505805969E-08  0.93827000000E+00  0.93827000000E+00 0.  1.
     999902    2    1    2    0    0  0.23156124926E-01 -0.47338362348E-03  0.32385508650E-02  0.10205437129E+01  0.10202757233E+01 0.  0.
     999903    2    3    3    0    0 -0.92098306884E-01  0.40014439103E-01 -0.77618856625E-01  0.12843342363E+00  0.19677498141E-01 0.  0.
         14    1    1    2    0    0 -0.23156124926E-01  0.47338362348E-03 -0.32385508650E-02  0.23386287122E-01  0.00000000000E+00 0.  1.
     999901    1    3    3    0    0  0.11525443181E+00 -0.40487822727E-01  0.80857407490E-01  0.89211028925E+00  0.88000000000E+00 0. -1.
        -11    1    4    4    0    0 -0.14759519946E-01  0.12558910071E-01 -0.86338747944E-02  0.21222030209E-01  0.51100000000E-03 0.  1.
         11    1    4    4    0    0 -0.77338786938E-01  0.27455529032E-01 -0.68984981831E-01  0.10721139342E+00  0.51100000000E-03 0. -1.
</event>
<event>
 8    1  0.1115874E+005  0.1043930E+01  0.7957747E-01            NaN
         13   -1    0    0    0    0  0.00000000000E+00  0.00000000000E+00  0.74505805969E-08  0.10566000000E+00  0.10566000000E+00 0. -1.
     999900   -1    0    0    0    0 -0.00000000000E+00 -0.00000000000E+00 -0.74505805969E-08  0.93827000000E+00  0.93827000000E+00 0.  1.
     999902    2    1    2    0    0  0.56975691582E-02  0.11396888535E-01  0.21628190254E-01  0.10188276101E+01  0.10185183205E+01 0.  0.
     999903    2    3    3    0    0  0.84566090869E-01 -0.82842443449E-01  0.44529358430E-01  0.12999367801E+00  0.30019966688E-01 0.  0.
         14    1    1    2    0    0 -0.56975691582E-02 -0.11396888535E-01 -0.21628190254E-01  0.25102389852E-01  0.00000000000E+00 0.  1.
     999901    1    3    3    0    0 -0.78868521711E-01  0.94239331984E-01 -0.22901168176E-01  0.88883393213E+00  0.88000000000E+00 0.  1.
        -11    1    4    4    0    0  0.11180075377E-01 -0.16126040947E-01  0.19575199427E-01  0.27721703333E-01  0.51100000000E-03 0.  1.
         11    1    4    4    0    0  0.73386015492E-01 -0.66716402502E-01  0.24954159003E-01  0.10227197468E+00  0.51100000000E-03 0. -1.
</event>
<event>
 8    1  0.1115874E+005  0.1043930E+01  0.7957747E-01            NaN
         13   -1    0    0    0    0  0.00000000000E+00  0.00000000000E+00  0.74505805969E-08  0.10566000000E+00  0.10566000000E+00 0.  1.
     999900   -1    0    0    0    0 -0.00000000000E+00 -0.00000000000E+00 -0.74505805969E-08  0.93827000000E+00  0.93827000000E+00 0.  1.
     999902    2    1    2    0    0  0.26041252981E-02  0.19207125016E-01  0.11900119503E-01  0.10211855949E+01  0.10209322755E+01 0.  0.
     999903    2    3    3    0    0  0.91355284922E-01  0.85418632258E-01 -0.39772283689E-01  0.13274270461E+00  0.19916331417E-01 0.  0.
         14    1    1    2    0    0 -0.26041252981E-02 -0.19207125016E-01 -0.11900119503E-01  0.22744405117E-01  0.00000000000E+00 0. -1.
     999901    1    3    3    0    0 -0.88751159624E-01 -0.66211507241E-01  0.51672403192E-01  0.88844289027E+00  0.88000000000E+00 0. -1.
        -11    1    4    4    0    0  0.17359233740E-01  0.18096597526E-01  0.14159398211E-04  0.25081689727E-01  0.51100000000E-03 0.  1.
         11    1    4    4    0    0  0.73996051182E-01  0.67322034731E-01 -0.39786443087E-01  0.10766101488E+00  0.51100000000E-03 0. -1.
</event>
<event>
 8    1  0.1115874E+005  0.1043930E+01  0.7957747E-01            NaN
         13   -1    0    0    0    0  0.00000000000E+00  0.00000000000E+00  0.74505805969E-08  0.10566000000E+00  0.10566000000E+00 0. -1.
     999900   -1    0    0    0    0 -0.00000000000E+00 -0.00000000000E+00 -0.74505805969E-08  0.93827000000E+00  0.93827000000E+00 0. -1.
     999902    2    1    2    0    0 -0.85490470621E-02  0.49988956386E-02  0.21879182186E-01  0.10199138851E+01  0.10196310897E+01 0.  0.
     999903    2    3    3    0    0 -0.26644450265E-01 -0.11587527103E+00 -0.45670331291E-01  0.12890269291E+00  0.19827251796E-01 0.  0.
         14    1    1    2    0    0  0.85490470621E-02 -0.49988956386E-02 -0.21879182186E-01  0.24016114931E-01  0.00000000000E+00 0.  1.
     999901    1    3    3    0    0  0.18095403203E-01  0.12087416666E+00  0.67549513477E-01  0.89101119216E+00  0.88000000000E+00 0.  1.
        -11    1    4    4    0    0 -0.76019113971E-02 -0.89643710752E-02 -0.66247124226E-02  0.13501738456E-01  0.51100000000E-03 0. -1.
         11    1    4    4    0    0 -0.19042538868E-01 -0.10691089995E+00 -0.39045618868E-01  0.11540095445E+00  0.51100000000E-03 0.  1.
</event>
<event>
 8    1  0.1115874E+005  0.1043930E+01  0.7957747E-01            NaN
         13   -1    0    0    0    0  0.00000000000E+00  0.00000000000E+00  0.74505805969E-08  0.10566000000E+00  0.10566000000E+00 0. -1.
     999900   -1    0    0    0    0 -0.00000000000E+00 -0.00000000000E+00 -0.74505805969E-08  0.93827000000E+00  0.93827000000E+00 0. -1.
     999902    2    1    2    0    0 -0.17891483363E-01 -0.93108052096E-02  0.12462039816E-01  0.10202213791E+01  0.10199458631E+01 0.  0.
     999903    2    3    3    0    0 -0.25643375906E-01 -0.11055690942E+00 -0.62578919877E-01  0.13120956188E+00  0.20479623207E-01 0.  0.
         14    1    1    2    0    0  0.17891483363E-01  0.93108052096E-02 -0.12462039816E-01  0.23708620941E-01  0.00000000000E+00 0.  1.
     999901    1    3    3    0    0  0.77518925433E-02  0.10124610421E+00  0.75040959693E-01  0.88901181718E+00  0.88000000000E+00 0. -1.
        -11    1    4    4    0    0 -0.23826668519E-01 -0.88664306662E-01 -0.41481936421E-01  0.10074761327E+00  0.51100000000E-03 0.  1.
         11    1    4    4    0    0 -0.18167073867E-02 -0.21892602759E-01 -0.21096983456E-01  0.30461948612E-01  0.51100000000E-03 0. -1.
</event>
<event>
 8    1  0.1115874E+005  0.1043930E+01  0.7957747E-01            NaN
         13   -1    0    0    0    0  0.00000000000E+00  0.00000000000E+00  0.74505805969E-08  0.10566000000E+00  0.10566000000E+00 0. -1.
     999900   -1    0    0    0    0 -0.00000000000E+00 -0.00000000000E+00 -0.74505805969E-08  0.93827000000E+00  0.93827000000E+00 0. -1.
     999902    2    1    2    0    0 -0.12359693608E-02  0.34778447741E-02 -0.22362350315E-01  0.10212650990E+01  0.10210135674E+01 0.  0.
     999903    2    3    3    0    0 -0.60028763037E-01  0.10786022032E+00 -0.44784583547E-01  0.13286483481E+00  0.20251565037E-01 0.  0.
         14    1    1    2    0    0  0.12359693608E-02 -0.34778447741E-02  0.22362350315E-01  0.22664900974E-01  0.00000000000E+00 0. -1.
     999901    1    3    3    0    0  0.58792793676E-01 -0.10438237555E+00  0.22422233231E-01  0.88840026421E+00  0.88000000000E+00 0.  1.
        -11    1    4    4    0    0 -0.55272030507E-01  0.88764140310E-01 -0.43117515148E-01  0.11310813938E+00  0.51100000000E-03 0.  1.
         11    1    4    4    0    0 -0.47567325303E-02  0.19096080012E-01 -0.16670683985E-02  0.19756695428E-01  0.51100000000E-03 0. -1.
</event>
<event>
 8    1  0.1115874E+005  0.1043930E+01  0.7957747E-01            NaN
         13   -1    0    0    0    0  0.00000000000E+00  0.00000000000E+00  0.74505805969E-08  0.10566000000E+00  0.10566000000E+00 0. -1.
     999900   -1    0    0    0    0 -0.00000000000E+00 -0.00000000000E+00 -0.74505805969E-08  0.93827000000E+00  0.93827000000E+00 0. -1.
     999902    2    1    2    0    0  0.22270315620E-01  0.11176947575E-01  0.76843755451E-02  0.10178543266E+01  0.10175202649E+01 0.  0.
     999903    2    3    3    0    0  0.72735133867E-01 -0.82045147057E-01  0.66334985499E-01  0.12955429236E+00  0.19030988256E-01 0.  0.
         14    1    1    2    0    0 -0.22270315620E-01 -0.11176947575E-01 -0.76843755451E-02  0.26075673384E-01  0.00000000000E+00 0. -1.
     999901    1    3    3    0    0 -0.50464818247E-01  0.93222094632E-01 -0.58650609954E-01  0.88830003425E+00  0.88000000000E+00 0. -1.
        -11    1    4    4    0    0  0.19797973964E-01 -0.23160475599E-01  0.28783451570E-01  0.41917962836E-01  0.51100000000E-03 0. -1.
         11    1    4    4    0    0  0.52937159903E-01 -0.58884671458E-01  0.37551533929E-01  0.87636329526E-01  0.51100000000E-03 0.  1.
</event>
<event>
 8    1  0.1115874E+005  0.1043930E+01  0.7957747E-01            NaN
         13   -1    0    0    0    0  0.00000000000E+00  0.00000000000E+00  0.74505805969E-08  0.10566000000E+00  0.10566000000E+00 0.  1.
     999900   -1    0    0    0    0 -0.00000000000E+00 -0.00000000000E+00 -0.74505805969E-08  0.93827000000E+00  0.93827000000E+00 0. -1.
     999902    2    1    2    0    0 -0.26238149230E-02  0.42292990642E-02 -0.22494308070E-01  0.10208916565E+01  0.10206316716E+01 0.  0.
     999903    2    3    3    0    0 -0.95222201257E-01  0.72377430495E-01 -0.48110648715E-01  0.13304323145E+00  0.32864979200E-01 0.  0.
         14    1    1    2    0    0  0.26238149230E-02 -0.42292990642E-02  0.22494308070E-01  0.23038343492E-01  0.00000000000E+00 0.  1.
     999901    1    3    3    0    0  0.92598386334E-01 -0.68148131430E-01  0.25616340645E-01  0.88784842506E+00  0.88000000000E+00 0.  1.
        -11    1    4    4    0    0 -0.26585144080E-01  0.18844709403E-01 -0.29652114099E-01  0.44061343032E-01  0.51100000000E-03 0.  1.
         11    1    4    4    0    0 -0.68637057177E-01  0.53532721092E-01 -0.18458534616E-01  0.88981888419E-01  0.51100000000E-03 0. -1.
</event>
<event>
 8    1  0.1115874E+005  0.1043930E+01  0.7957747E-01            NaN
         13   -1    0    0    0    0  0.00000000000E+00  0.00000000000E+00  0.74505805969E-08  0.10566000000E+00  0.10566000000E+00 0. -1.
     999900   -1    0    0    0    0 -0.00000000000E+00 -0.00000000000E+00 -0.74505805969E-08  0.93827000000E+00  0.93827000000E+00 0.  1.
     999902    2    1    2    0    0  0.12422561568E-01  0.70268572242E-02 -0.20807959720E-01  0.10186977202E+01  0.10183851811E+01 0.  0.
     999903    2    3    3    0    0 -0.12582813634E+00 -0.57926094167E-02 -0.23461463550E-03  0.12757435231E+00  0.20220932302E-01 0.  0.
         14    1    1    2    0    0 -0.12422561568E-01 -0.70268572242E-02  0.20807959720E-01  0.25232279843E-01  0.00000000000E+00 0. -1.
     999901    1    3    3    0    0  0.13825069791E+00  0.12819466641E-01 -0.20573345085E-01  0.89112336785E+00  0.88000000000E+00 0. -1.
        -11    1    4    4    0    0 -0.11223335526E+00 -0.21779919092E-02 -0.58766157359E-02  0.11240936534E+00  0.51100000000E-03 0.  1.
         11    1    4    4    0    0 -0.13594781081E-01 -0.36146175075E-02  0.56420011004E-02  0.15164986970E-01  0.51100000000E-03 0. -1.
</event>
<event>
 8    1  0.1130426E+005  0.1043930E+01  0.7957747E-01            NaN
         13   -1    0    0    0    0  0.00000000000E+00  0.00000000000E+00  0.74505805969E-08  0.10566000000E+00  0.10566000000E+00 0.  1.
     999900   -1    0    0    0    0 -0.00000000000E+00 -0.00000000000E+00 -0.74505805969E-08  0.93827000000E+00  0.93827000000E+00 0.  1.
     999902    2    1    2    0    0 -0.20248779379E-01 -0.47454047766E-02  0.31040760967E-01  0.10065661033E+01  0.10058723873E+01 0.  0.
     999903    2    3    3    0    0  0.10810614566E+00 -0.28617055363E-01 -0.21212572724E-01  0.11540099328E+00  0.19014242611E-01 0.  0.
         14    1    1    2    0    0  0.20248779379E-01  0.47454047766E-02 -0.31040760967E-01  0.37363896668E-01  0.00000000000E+00 0. -1.
     999901    1    3    3    0    0 -0.12835492504E+00  0.23871650587E-01  0.52253333691E-01  0.89116511005E+00  0.88000000000E+00 0.  1.
        -11    1    4    4    0    0  0.59735282102E-01 -0.73216644061E-02 -0.64784786624E-02  0.60532160908E-01  0.51100000000E-03 0.  1.
         11    1    4    4    0    0  0.48370863559E-01 -0.21295390957E-01 -0.14734094062E-01  0.54868832376E-01  0.51100000000E-03 0. -1.
</event>
<event>
 8    1  0.1115874E+005  0.1043930E+01  0.7957747E-01            NaN
         13   -1    0    0    0    0  0.00000000000E+00  0.00000000000E+00  0.74505805969E-08  0.10566000000E+00  0.10566000000E+00 0.  1.
     999900   -1    0    0    0    0 -0.00000000000E+00 -0.00000000000E+00 -0.74505805969E-08  0.93827000000E+00  0.93827000000E+00 0. -1.
     999902    2    1    2    0    0 -0.13953355416E-01  0.14182340121E-01  0.11653549721E-01  0.10208726775E+01  0.10206122592E+01 0.  0.
     999903    2    3    3    0    0 -0.41066134562E-01  0.64405282365E-01 -0.10506964569E+00  0.13133248671E+00  0.19342280540E-01 0.  0.
         14    1    1    2    0    0  0.13953355416E-01 -0.14182340121E-01 -0.11653549721E-01  0.23057322476E-01  0.00000000000E+00 0. -1.
     999901    1    3    3    0    0  0.27112779146E-01 -0.50222942244E-01  0.11672319541E+00  0.88954019081E+00  0.88000000000E+00 0.  1.
        -11    1    4    4    0    0 -0.34084475576E-01  0.48926240642E-01 -0.67293716419E-01  0.89912367832E-01  0.51100000000E-03 0.  1.
         11    1    4    4    0    0 -0.69816589861E-02  0.15479041723E-01 -0.37775929271E-01  0.41420118881E-01  0.51100000000E-03 0. -1.
</event>
<event>
 8    1  0.1115874E+005  0.1043930E+01  0.7957747E-01            NaN
         13   -1    0    0    0    0  0.00000000000E+00  0.00000000000E+00  0.74505805969E-08  0.10566000000E+00  0.10566000000E+00 0. -1.
     999900   -1    0    0    0    0 -0.00000000000E+00 -0.00000000000E+00 -0.74505805969E-08  0.93827000000E+00  0.93827000000E+00 0.  1.
     999902    2    1    2    0    0 -0.64534416786E-02  0.22423991941E-01 -0.64289558741E-02  0.10197264094E+01  0.10194391283E+01 0.  0.
     999903    2    3    3    0    0  0.11279351166E+00  0.51687244199E-01 -0.35834589317E-01  0.13071523676E+00  0.20209102997E-01 0.  0.
         14    1    1    2    0    0  0.64534416786E-02 -0.22423991941E-01  0.64289558741E-02  0.24203590595E-01  0.00000000000E+00 0. -1.
     999901    1    3    3    0    0 -0.11924695334E+00 -0.29263252258E-01  0.29405633443E-01  0.88901117265E+00  0.88000000000E+00 0.  1.
        -11    1    4    4    0    0  0.25000845297E-01  0.37123622127E-02 -0.11376617425E-01  0.27722056991E-01  0.51100000000E-03 0.  1.
         11    1    4    4    0    0  0.87792666362E-01  0.47974881986E-01 -0.24457971893E-01  0.10299317977E+00  0.51100000000E-03 0. -1.
</event>
<event>
 8    1  0.1115874E+005  0.1043930E+01  0.7957747E-01            NaN
         13   -1    0    0    0    0  0.00000000000E+00  0.00000000000E+00  0.74505805969E-08  0.10566000000E+00  0.10566000000E+00 0.  1.
     999900   -1    0    0    0    0 -0.00000000000E+00 -0.00000000000E+00 -0.74505805969E-08  0.93827000000E+00  0.93827000000E+00 0. -1.
     999902    2    1    2    0    0 -0.21647150161E-02 -0.12110858622E-01 -0.20164825895E-01  0.10203084190E+01  0.10200349458E+01 0.  0.
     999903    2    3    3    0    0  0.72885000065E-01  0.10044002350E+00 -0.26954894810E-01  0.12994542229E+00  0.27546775920E-01 0.  0.
         14    1    1    2    0    0  0.21647150161E-02  0.12110858622E-01  0.20164825895E-01  0.23621581045E-01  0.00000000000E+00 0.  1.
     999901    1    3    3    0    0 -0.75049715081E-01 -0.11255088212E+00  0.67900689144E-02  0.89036299667E+00  0.88000000000E+00 0. -1.
        -11    1    4    4    0    0  0.27545231251E-01  0.17744363429E-01 -0.55580528758E-02  0.33237859001E-01  0.51100000000E-03 0.  1.
         11    1    4    4    0    0  0.45339768814E-01  0.82695660073E-01 -0.21396841934E-01  0.96707563286E-01  0.51100000000E-03 0. -1.
</event>
<event>
 8    1  0.1115874E+005  0.1043930E+01  0.7957747E-01            NaN
         13   -1    0    0    0    0  0.00000000000E+00  0.00000000000E+00  0.74505805969E-08  0.10566000000E+00  0.10566000000E+00 0. -1.
     999900   -1    0    0    0    0 -0.00000000000E+00 -0.00000000000E+00 -0.74505805969E-08  0.93827000000E+00  0.93827000000E+00 0. -1.
     999902    2    1    2    0    0 -0.19847397716E-01 -0.67361404685E-02  0.12604107294E-01  0.10194727249E+01  0.10191793162E+01 0.  0.
     999903    2    3    3    0    0 -0.10008278814E+00  0.73926800594E-01 -0.31292006946E-01  0.13106341789E+00  0.26771131512E-01 0.  0.
         14    1    1    2    0    0  0.19847397716E-01  0.67361404685E-02 -0.12604107294E-01  0.24457275097E-01  0.00000000000E+00 0.  1.
     999901    1    3    3    0    0  0.80235390427E-01 -0.80662941063E-01  0.43896114240E-01  0.88840930701E+00  0.88000000000E+00 0. -1.
        -11    1    4    4    0    0 -0.70620636649E-01  0.37792705482E-01 -0.25606936026E-01  0.84092444381E-01  0.51100000000E-03 0. -1.
         11    1    4    4    0    0 -0.29462151494E-01  0.36134095113E-01 -0.56850709195E-02  0.46970973511E-01  0.51100000000E-03 0.  1.
</event>
<event>
 8    1  0.1115874E+005  0.1043930E+01  0.7957747E-01            NaN
         13   -1    0    0    0    0  0.00000000000E+00  0.00000000000E+00  0.74505805969E-08  0.10566000000E+00  0.10566000000E+00 0.  1.
     999900   -1    0    0    0    0 -0.00000000000E+00 -0.00000000000E+00 -0.74505805969E-08  0.93827000000E+00  0.93827000000E+00 0. -1.
     999902    2    1    2    0    0 -0.15168252216E-01  0.14769258417E-01  0.10565822273E-01  0.10202689884E+01  0.10199945908E+01 0.  0.
     999903    2    3    3    0    0 -0.13288751425E-01 -0.97531299512E-01 -0.80098514022E-01  0.12850950866E+00  0.20247878130E-01 0.  0.
         14    1    1    2    0    0  0.15168252216E-01 -0.14769258417E-01 -0.10565822273E-01  0.23661011597E-01  0.00000000000E+00 0.  1.
     999901    1    3    3    0    0 -0.18795007907E-02  0.11230055793E+00  0.90664336296E-01  0.89175947974E+00  0.88000000000E+00 0.  1.
        -11    1    4    4    0    0 -0.39535196267E-03 -0.66281379380E-01 -0.58358147910E-01  0.88313714134E-01  0.51100000000E-03 0.  1.
         11    1    4    4    0    0 -0.12893399462E-01 -0.31249920132E-01 -0.21740366113E-01  0.40195794527E-01  0.51100000000E-03 0. -1.
</event>
<event>
 8    1  0.1115874E+005  0.1043930E+01  0.7957747E-01            NaN
         13   -1    0    0    0    0  0.00000000000E+00  0.00000000000E+00  0.74505805969E-08  0.10566000000E+00  0.10566000000E+00 0. -1.
     999900   -1    0    0    0    0 -0.00000000000E+00 -0.00000000000E+00 -0.74505805969E-08  0.93827000000E+00  0.93827000000E+00 0.  1.
     999902    2    1    2    0    0 -0.14779520177E-01 -0.11570024819E-01 -0.13346622715E-01  0.10208988900E+01  0.10206390702E+01 0.  0.
     999903    2    3    3    0    0 -0.18108085846E-01 -0.11502388687E+00  0.58605941317E-01  0.13191578980E+00  0.20216872108E-01 0.  0.
         14    1    1    2    0    0  0.14779520177E-01  0.11570024819E-01  0.13346622715E-01  0.23031110023E-01  0.00000000000E+00 0. -1.
     999901    1    3    3    0    0  0.33285656689E-02  0.10345386205E+00 -0.71952564033E-01  0.88898310017E+00  0.88000000000E+00 0.  1.
        -11    1    4    4    0    0  0.21210804815E-02 -0.49696409662E-01  0.22815498744E-01  0.54726960628E-01  0.51100000000E-03 0. -1.
         11    1    4    4    0    0 -0.20229166327E-01 -0.65327477210E-01  0.35790442574E-01  0.77188829176E-01  0.51100000000E-03 0.  1.
</event>
<event>
 8    1  0.1115874E+005  0.1043930E+01  0.7957747E-01            NaN
         13   -1    0    0    0    0  0.00000000000E+00  0.00000000000E+00  0.74505805969E-08  0.10566000000E+00  0.10566000000E+00 0.  1.
     999900   -1    0    0    0    0 -0.00000000000E+00 -0.00000000000E+00 -0.74505805969E-08  0.93827000000E+00  0.93827000000E+00 0. -1.
     999902    2    1    2    0    0 -0.26391659519E-01 -0.75715536823E-02  0.13587135563E-02  0.10164401070E+01  0.10160683032E+01 0.  0.
     999903    2    3    3    0    0  0.80362664613E-01  0.38749555407E-01  0.85322344484E-01  0.12481685569E+00  0.18429842340E-01 0.  0.
         14    1    1    2    0    0  0.26391659519E-01  0.75715536823E-02 -0.13587135563E-02  0.27489893049E-01  0.00000000000E+00 0. -1.
     999901    1    3    3    0    0 -0.10675432413E+00 -0.46321109090E-01 -0.83963630927E-01  0.89162325126E+00  0.88000000000E+00 0. -1.
        -11    1    4    4    0    0  0.50568641718E-01  0.17974991541E-01  0.41173127880E-01  0.67644478168E-01  0.51100000000E-03 0. -1.
         11    1    4    4    0    0  0.29794022894E-01  0.20774563867E-01  0.44149216603E-01  0.57172377524E-01  0.51100000000E-03 0.  1.
</event>
<event>
 8    1  0.1115874E+005  0.1043930E+01  0.7957747E-01            NaN
         13   -1    0    0    0    0  0.00000000000E+00  0.00000000000E+00  0.74505805969E-08  0.10566000000E+00  0.10566000000E+00 0.  1.
     999900   -1    0    0    0    0 -0.00000000000E+00 -0.00000000000E+00 -0.74505805969E-08  0.93827000000E+00  0.93827000000E+00 0. -1.
     999902    2    1    2    0    0  0.20702712926E-01 -0.13938195256E-01 -0.66934748854E-03  0.10189635498E+01  0.10186576423E+01 0.  0.
     999903    2    3    3    0    0 -0.12317864616E+00  0.35222168054E-02  0.21630674598E-01  0.12682902941E+00  0.20792588504E-01 0.  0.
         14    1    1    2    0    0 -0.20702712926E-01  0.13938195256E-01  0.66934748854E-03  0.24966450199E-01  0.00000000000E+00 0. -1.
     999901    1    3    3    0    0  0.14388135909E+00 -0.17460412062E-01 -0.22300022087E-01  0.89213452039E+00  0.88000000000E+00 0. -1.
        -11    1    4    4    0    0 -0.84832689555E-01 -0.22880168220E-02  0.23301924633E-01  0.88006028491E-01  0.51100000000E-03 0.  1.
         11    1    4    4    0    0 -0.38345956607E-01  0.58102336275E-02 -0.16712500348E-02  0.38823000922E-01  0.51100000000E-03 0. -1.
</event>
<event>
 8    1  0.1115874E+005  0.1043930E+01  0.7957747E-01            NaN
         13   -1    0    0    0    0  0.00000000000E+00  0.00000000000E+00  0.74505805969E-08  0.10566000000E+00  0.10566000000E+00 0. -1.
     999900   -1    0    0    0    0 -0.00000000000E+00 -0.00000000000E+00 -0.74505805969E-08  0.93827000000E+00  0.93827000000E+00 0.  1.
     999902    2    1    2    0    0  0.42778275308E-02  0.19992234648E-01 -0.10476395653E-01  0.10209573180E+01  0.10206988297E+01 0.  0.
     999903    2    3    3    0    0  0.54853840153E-01  0.51952203463E-01 -0.10830970654E+00  0.13351676818E+00  0.19691613174E-01 0.  0.
         14    1    1    2    0    0 -0.42778275308E-02 -0.19992234648E-01  0.10476395653E-01  0.22972682048E-01  0.00000000000E+00 0.  1.
     999901    1    3    3    0    0 -0.50576012623E-01 -0.31959968815E-01  0.97833310891E-01  0.88744054977E+00  0.88000000000E+00 0. -1.
        -11    1    4    4    0    0  0.16512578971E-01  0.10495147930E-01 -0.15892975899E-01  0.25212322349E-01  0.51100000000E-03 0. -1.
         11    1    4    4    0    0  0.38341261183E-01  0.41457055533E-01 -0.92416730645E-01  0.10830444583E+00  0.51100000000E-03 0.  1.
</event>
<event>
 8    1  0.1115874E+005  0.1043930E+01  0.7957747E-01            NaN
         13   -1    0    0    0    0  0.00000000000E+00  0.00000000000E+00  0.74505805969E-08  0.10566000000E+00  0.10566000000E+00 0. -1.
     999900   -1    0    0    0    0 -0.00000000000E+00 -0.00000000000E+00 -0.74505805969E-08  0.93827000000E+00  0.93827000000E+00 0.  1.
     999902    2    1    2    0    0  0.20669086317E-01  0.18048675177E-02  0.75026375236E-02  0.10218674017E+01  0.10216292029E+01 0.  0.
     999903    2    3    3    0    0  0.15992467253E-01 -0.76944126185E-01 -0.10343223032E+00  0.13140133286E+00  0.19797132226E-01 0.  0.
         14    1    1    2    0    0 -0.20669086317E-01 -0.18048675177E-02 -0.75026375236E-02  0.22062598345E-01  0.00000000000E+00 0.  1.
     999901    1    3    3    0    0  0.46766190638E-02  0.78748993703E-01  0.11093486785E+00  0.89046606880E+00  0.88000000000E+00 0.  1.
        -11    1    4    4    0    0  0.15103639616E-01 -0.35906730312E-01 -0.60866660452E-01  0.72266345465E-01  0.51100000000E-03 0.  1.
         11    1    4    4    0    0  0.88882763683E-03 -0.41037395873E-01 -0.42565569869E-01  0.59134987393E-01  0.51100000000E-03 0. -1.
</event>
<event>
 8    1  0.1115874E+005  0.1043930E+01  0.7957747E-01            NaN
         13   -1    0    0    0    0  0.00000000000E+00  0.00000000000E+00  0.74505805969E-08  0.10566000000E+00  0.10566000000E+00 0. -1.
     999900   -1    0    0    0    0 -0.00000000000E+00 -0.00000000000E+00 -0.74505805969E-08  0.93827000000E+00  0.93827000000E+00 0. -1.
     999902    2    1    2    0    0  0.14691377496E-01  0.18199062155E-02 -0.18454061499E-01  0.10202719989E+01  0.10199976719E+01 0.  0.
     999903    2    3    3    0    0 -0.98649590960E-01  0.78266506108E-01 -0.26998563588E-01  0.12967485859E+00  0.15141292556E-01 0.  0.
         14    1    1    2    0    0 -0.14691377496E-01 -0.18199062155E-02  0.18454061499E-01  0.23658001124E-01  0.00000000000E+00 0. -1.
     999901    1    3    3    0    0  0.11334096846E+00 -0.76446599893E-01  0.85445020888E-02  0.89059714028E+00  0.88000000000E+00 0. -1.
        -11    1    4    4    0    0 -0.88381995417E-01  0.66758375830E-01 -0.19305392600E-01  0.11243227811E+00  0.51100000000E-03 0.  1.
         11    1    4    4    0    0 -0.10267595543E-01  0.11508130278E-01 -0.76931709876E-02  0.17242580479E-01  0.51100000000E-03 0. -1.
</event>
<event>
 8    1  0.1115874E+005  0.1043930E+01  0.7957747E-01            NaN
         13   -1    0    0    0    0  0.00000000000E+00  0.00000000000E+00  0.74505805969E-08  0.10566000000E+00  0.10566000000E+00 0. -1.
     999900   -1    0    0    0    0 -0.00000000000E+00 -0.00000000000E+00 -0.74505805969E-08  0.93827000000E+00  0.93827000000E+00 0. -1.
     999902    2    1    2    0    0 -0.14731085442E-01 -0.81405128232E-02 -0.16264424676E-01  0.10205247797E+01  0.10202563509E+01 0.  0.
     999903    2    3    3    0    0  0.62905286442E-01  0.85426436836E-02  0.10937780508E+00  0.12806094074E+00  0.20150644523E-01 0.  0.
         14    1    1    2    0    0  0.14731085442E-01  0.81405128232E-02  0.16264424676E-01  0.23405220302E-01  0.00000000000E+00 0.  1.
     999901    1    3    3    0    0 -0.77636371883E-01 -0.16683156507E-01 -0.12564222976E+00  0.89246383896E+00  0.88000000000E+00 0. -1.
        -11    1    4    4    0    0  0.44836202822E-01 -0.26494194357E-02  0.80748859595E-01  0.92400995415E-01  0.51100000000E-03 0. -1.
         11    1    4    4    0    0  0.18069083620E-01  0.11192063119E-01  0.28628945489E-01  0.35659945324E-01  0.51100000000E-03 0.  1.
</event>
<event>
 8    1  0.1115874E+005  0.1043930E+01  0.7957747E-01            NaN
         13   -1    0    0    0    0  0.00000000000E+00  0.00000000000E+00  0.74505805969E-08  0.10566000000E+00  0.10566000000E+00 0. -1.
     999900   -1    0    0    0    0 -0.00000000000E+00 -0.00000000000E+00 -0.74505805969E-08  0.93827000000E+00  0.93827000000E+00 0. -1.
     999902    2    1    2    0    0 -0.12317727238E-01  0.51833480788E-02 -0.19149637810E-01  0.10205782949E+01  0.10203111064E+01 0.  0.
     999903    2    3    3    0    0 -0.29049732069E-01 -0.12578707175E+00 -0.16093110197E-02  0.13055533235E+00  0.19386350049E-01 0.  0.
         14    1    1    2    0    0  0.12317727238E-01 -0.51833480788E-02  0.19149637810E-01  0.23351705074E-01  0.00000000000E+00 0. -1.
     999901    1    3    3    0    0  0.16732004831E-01  0.13097041983E+00 -0.17540326790E-01  0.89002296258E+00  0.88000000000E+00 0.  1.
        -11    1    4    4    0    0 -0.11361204055E-01 -0.24438801423E-01  0.51854651061E-02  0.27449629176E-01  0.51100000000E-03 0.  1.
         11    1    4    4    0    0 -0.17688528014E-01 -0.10134827033E+00 -0.67947761258E-02  0.10310570317E+00  0.51100000000E-03 0. -1.
</event>
<event>
 8    1  0.1115874E+005  0.1043930E+01  0.7957747E-01            NaN
         13   -1    0    0    0    0  0.00000000000E+00  0.00000000000E+00  0.74505805969E-08  0.10566000000E+00  0.10566000000E+00 0. -1.
     999900   -1    0    0    0    0 -0.00000000000E+00 -0.00000000000E+00 -0.74505805969E-08  0.93827000000E+00  0.93827000000E+00 0.  1.
     999902    2    1    2    0    0  0.20072386470E-01  0.75898380073E-02  0.10798501456E-01  0.10199068034E+01  0.10196238393E+01 0.  0.
     999903    2    3    3    0    0 -0.70420911537E-01  0.98853388070E-01 -0.39239956788E-01  0.12916446142E+00  0.20312232038E-01 0.  0.
         14    1    1    2    0    0 -0.20072386470E-01 -0.75898380073E-02 -0.10798501456E-01  0.24023196566E-01  0.00000000000E+00 0.  1.
     999901    1    3    3    0    0  0.90493298007E-01 -0.91263550062E-01  0.50038458244E-01  0.89074234201E+00  0.88000000000E+00 0. -1.
        -11    1    4    4    0    0 -0.24144645532E-01  0.21498078043E-01 -0.48942141006E-02  0.32700851978E-01  0.51100000000E-03 0.  1.
         11    1    4    4    0    0 -0.46276266005E-01  0.77355310026E-01 -0.34345742687E-01  0.96463609441E-01  0.51100000000E-03 0. -1.
</event>
<event>
 8    1  0.1115874E+005  0.1043930E+01  0.7957747E-01            NaN
         13   -1    0    0    0    0  0.00000000000E+00  0.00000000000E+00  0.74505805969E-08  0.10566000000E+00  0.10566000000E+00 0. -1.
     999900   -1    0    0    0    0 -0.00000000000E+00 -0.00000000000E+00 -0.74505805969E-08  0.93827000000E+00  0.93827000000E+00 0. -1.
     999902    2    1    2    0    0 -0.96450038187E-02  0.15187819555E-01  0.15811801904E-01  0.10199777759E+01  0.10196965010E+01 0.  0.
     999903    2    3    3    0    0  0.36558216281E-03  0.58699098028E-01 -0.11343045894E+00  0.12941783674E+00  0.20899514171E-01 0.  0.
         14    1    1    2    0    0  0.96450038187E-02 -0.15187819555E-01 -0.15811801904E-01  0.23952224134E-01  0.00000000000E+00 0.  1.
     999901    1    3    3    0    0 -0.10010585981E-01 -0.43511278473E-01  0.12924226084E+00  0.89055993912E+00  0.88000000000E+00 0.  1.
        -11    1    4    4    0    0 -0.77806816375E-02  0.16129618750E-01 -0.23162797954E-01  0.29282758371E-01  0.51100000000E-03 0. -1.
         11    1    4    4    0    0  0.81462638003E-02  0.42569479279E-01 -0.90267660983E-01  0.10013507837E+00  0.51100000000E-03 0.  1.
</event>
<event>
 8    1  0.1115874E+005  0.1043930E+01  0.7957747E-01            NaN
         13   -1    0    0    0    0  0.00000000000E+00  0.00000000000E+00  0.74505805969E-08  0.10566000000E+00  0.10566000000E+00 0.  1.
     999900   -1    0    0    0    0 -0.00000000000E+00 -0.00000000000E+00 -0.74505805969E-08  0.93827000000E+00  0.93827000000E+00 0.  1.
     999902    2    1    2    0    0  0.16652346609E-02  0.24410733714E-01 -0.11681948282E-02  0.10194346615E+01  0.10191403277E+01 0.  0.
     999903    2    3    3    0    0 -0.55480434472E-01 -0.85373596255E-01 -0.74419990527E-01  0.12775980366E+00  0.20432887576E-01 0.  0.
         14    1    1    2    0    0 -0.16652346609E-02 -0.24410733714E-01  0.11681948282E-02  0.24495338456E-01  0.00000000000E+00 0.  1.
     999901    1    3    3    0    0  0.57145669133E-01  0.10978432997E+00  0.73251795699E-01  0.89167485788E+00  0.88000000000E+00 0. -1.
        -11    1    4    4    0    0 -0.48857111029E-02 -0.10809348792E-01 -0.17601129608E-01  0.21231417257E-01  0.51100000000E-03 0. -1.
         11    1    4    4    0    0 -0.50594723369E-01 -0.74564247463E-01 -0.56818860919E-01  0.10652838640E+00  0.51100000000E-03 0.  1.
</event>
<event>
 8    1  0.1115874E+005  0.1043930E+01  0.7957747E-01            NaN
         13   -1    0    0    0    0  0.00000000000E+00  0.00000000000E+00  0.74505805969E-08  0.10566000000E+00  0.10566000000E+00 0.  1.
     999900   -1    0    0    0    0 -0.00000000000E+00 -0.00000000000E+00 -0.74505805969E-08  0.93827000000E+00  0.93827000000E+00 0.  1.
     999902    2    1    2    0    0 -0.10357993507E-01 -0.10554977445E-01  0.17791442344E-01  0.10207949400E+01  0.10205327426E+01 0.  0.
     999903    2    3    3    0    0  0.24211812840E-01 -0.73036410673E-01  0.10721133902E+00  0.13338583544E+00  0.19415991314E-01 0.  0.
         14    1    1    2    0    0  0.10357993507E-01  0.10554977445E-01 -0.17791442344E-01  0.23135059953E-01  0.00000000000E+00 0. -1.
     999901    1    3    3    0    0 -0.34569806347E-01  0.62481433227E-01 -0.89419896673E-01  0.88740910460E+00  0.88000000000E+00 0.  1.
        -11    1    4    4    0    0  0.10517306708E-01 -0.27395752684E-01  0.25920671787E-01  0.39157162211E-01  0.51100000000E-03 0.  1.
         11    1    4    4    0    0  0.13694506132E-01 -0.45640657988E-01  0.81290667230E-01  0.94228673234E-01  0.51100000000E-03 0. -1.
</event>
<event>
 8    1  0.1115874E+005  0.1043930E+01  0.7957747E-01            NaN
         13   -1    0    0    0    0  0.00000000000E+00  0.00000000000E+00  0.74505805969E-08  0.10566000000E+00  0.10566000000E+00 0.  1.
     999900   -1    0    0    0    0 -0.00000000000E+00 -0.00000000000E+00 -0.74505805969E-08  0.93827000000E+00  0.93827000000E+00 0. -1.
     999902    2    1    2    0    0  0.10751051776E-01 -0.16096125243E-01 -0.11955564748E-01  0.10211790464E+01  0.10209255795E+01 0.  0.
     999903    2    3    3    0    0  0.63563253409E-01  0.90875813829E-01 -0.67311425258E-01  0.13140581927E+00  0.20927509281E-01 0.  0.
         14    1    1    2    0    0 -0.10751051776E-01  0.16096125243E-01  0.11955564748E-01  0.22750953619E-01  0.00000000000E+00 0. -1.
     999901    1    3    3    0    0 -0.52812201633E-01 -0.10697193907E+00  0.55355860509E-01  0.88977322711E+00  0.88000000000E+00 0.  1.
        -11    1    4    4    0    0  0.19945255740E-01  0.23406162448E-01 -0.29476316103E-01  0.42600187782E-01  0.51100000000E-03 0. -1.
         11    1    4    4    0    0  0.43617997669E-01  0.67469651382E-01 -0.37835109155E-01  0.88805631488E-01  0.51100000000E-03 0.  1.
</event>
<event>
 8    1  0.1115874E+005  0.1043930E+01  0.7957747E-01            NaN
         13   -1    0    0    0    0  0.00000000000E+00  0.00000000000E+00  0.74505805969E-08  0.10566000000E+00  0.10566000000E+00 0.  1.
     999900   -1    0    0    0    0 -0.00000000000E+00 -0.00000000000E+00 -0.74505805969E-08  0.93827000000E+00  0.93827000000E+00 0.  1.
     999902    2    1    2    0    0 -0.35473181368E-02  0.18792008258E-02  0.23045019342E-01  0.10205379548E+01  0.10202698317E+01 0.  0.
     999903    2    3    3    0    0  0.12335564103E+00  0.36875251937E-01  0.85179802982E-02  0.13062777985E+00  0.20363263521E-01 0.  0.
         14    1    1    2    0    0  0.35473181368E-02 -0.18792008258E-02 -0.23045019342E-01  0.23392045190E-01  0.00000000000E+00 0. -1.
     999901    1    3    3    0    0 -0.12690295916E+00 -0.34996051112E-01  0.14527039044E-01  0.88991017496E+00  0.88000000000E+00 0.  1.
        -11    1    4    4    0    0  0.55794723818E-01  0.15978179318E-01  0.13969384793E-01  0.59697221483E-01  0.51100000000E-03 0. -1.
         11    1    4    4    0    0  0.67560917207E-01  0.20897072619E-01 -0.54514044948E-02  0.70930558365E-01  0.51100000000E-03 0.  1.
</event>
<event>
 8    1  0.1115874E+005  0.1043930E+01  0.7957747E-01            NaN
         13   -1    0    0    0    0  0.00000000000E+00  0.00000000000E+00  0.74505805969E-08  0.10566000000E+00  0.10566000000E+00 0. -1.
     999900   -1    0    0    0    0 -0.00000000000E+00 -0.00000000000E+00 -0.74505805969E-08  0.93827000000E+00  0.93827000000E+00 0.  1.
     999902    2    1    2    0    0  0.19051090500E-01 -0.14478751326E-01  0.10604115434E-01  0.10177570072E+01  0.10174204146E+01 0.  0.
     999903    2    3    3    0    0 -0.10830967201E+00  0.48319054715E-01  0.37352485878E-01  0.12597238991E+00  0.20201948411E-01 0.  0.
         14    1    1    2    0    0 -0.19051090500E-01  0.14478751326E-01 -0.10604115434E-01  0.26172992823E-01  0.00000000000E+00 0. -1.
     999901    1    3    3    0    0  0.12736076251E+00 -0.62797806041E-01 -0.26748370444E-01  0.89178461727E+00  0.88000000000E+00 0.  1.
        -11    1    4    4    0    0 -0.53599256244E-01  0.26283213232E-01  0.84691888448E-02  0.60296565809E-01  0.51100000000E-03 0.  1.
         11    1    4    4    0    0 -0.54710415765E-01  0.22035841483E-01  0.28883297033E-01  0.65675824102E-01  0.51100000000E-03 0. -1.
</event>
<event>
 8    1  0.1115874E+005  0.1043930E+01  0.7957747E-01            NaN
         13   -1    0    0    0    0  0.00000000000E+00  0.00000000000E+00  0.74505805969E-08  0.10566000000E+00  0.10566000000E+00 0. -1.
     999900   -1    0    0    0    0 -0.00000000000E+00 -0.00000000000E+00 -0.74505805969E-08  0.93827000000E+00  0.93827000000E+00 0.  1.
     999902    2    1    2    0    0  0.37663170729E-03 -0.20522734164E-01  0.11704070160E-01  0.10203014214E+01  0.10200277843E+01 0.  0.
     999903    2    3    3    0    0  0.16930670891E-01 -0.12442695641E+00  0.40768729724E-01  0.13355744591E+00  0.20168959703E-01 0.  0.
         14    1    1    2    0    0 -0.37663170729E-03  0.20522734164E-01 -0.11704070160E-01  0.23628578614E-01  0.00000000000E+00 0.  1.
     999901    1    3    3    0    0 -0.16554039183E-01  0.10390422224E+00 -0.29064659564E-01  0.88674397548E+00  0.88000000000E+00 0.  1.
        -11    1    4    4    0    0  0.18808948831E-01 -0.80752741986E-01  0.32538764381E-01  0.89071960812E-01  0.51100000000E-03 0. -1.
         11    1    4    4    0    0 -0.18782779409E-02 -0.43674214423E-01  0.82299653433E-02  0.44485485094E-01  0.51100000000E-03 0.  1.
</event>
<event>
 8    1  0.1115874E+005  0.1043930E+01  0.7957747E-01            NaN
         13   -1    0    0    0    0  0.00000000000E+00  0.00000000000E+00  0.74505805969E-08  0.10566000000E+00  0.10566000000E+00 0. -1.
     999900   -1    0    0    0    0 -0.00000000000E+00 -0.00000000000E+00 -0.74505805969E-08  0.93827000000E+00  0.93827000000E+00 0. -1.
     999902    2    1    2    0    0 -0.14614845164E-01  0.15218645771E-01  0.16862358155E-01  0.10169200018E+01  0.10165612378E+01 0.  0.
     999903    2    3    3    0    0  0.23303264791E-01 -0.12129354498E+00 -0.73984765395E-02  0.12525753802E+00  0.19481970404E-01 0.  0.
         14    1    1    2    0    0  0.14614845164E-01 -0.15218645771E-01 -0.16862358155E-01  0.27009998164E-01  0.00000000000E+00 0. -1.
     999901    1    3    3    0    0 -0.37918109955E-01  0.13651219075E+00  0.24260834694E-01  0.89166246382E+00  0.88000000000E+00 0. -1.
        -11    1    4    4    0    0  0.15645986866E-01 -0.72476761743E-01  0.49777297319E-02  0.74314983766E-01  0.51100000000E-03 0.  1.
         11    1    4    4    0    0  0.76572779247E-02 -0.48816783237E-01 -0.12376206271E-01  0.50942554250E-01  0.51100000000E-03 0. -1.
</event>
<event>
 8    1  0.1115874E+005  0.1043930E+01  0.7957747E-01            NaN
         13   -1    0    0    0    0  0.00000000000E+00  0.00000000000E+00  0.74505805969E-08  0.10566000000E+00  0.10566000000E+00 0.  1.
     999900   -1    0    0    0    0 -0.00000000000E+00 -0.00000000000E+00 -0.74505805969E-08  0.93827000000E+00  0.93827000000E+00 0.  1.
     999902    2    1    2    0    0  0.41104875341E-02  0.21622928511E-01  0.86119984566E-02  0.10202949907E+01  0.10200212030E+01 0.  0.
     999903    2    3    3    0    0  0.55732061871E-01  0.94710167602E-01  0.73195832203E-01  0.13340288736E+00  0.19042634736E-01 0.  0.
         14    1    1    2    0    0 -0.41104875341E-02 -0.21622928511E-01 -0.86119984566E-02  0.23635009257E-01  0.00000000000E+00 0. -1.
     999901    1    3    3    0    0 -0.51621574337E-01 -0.73087239091E-01 -0.64583833747E-01  0.88689210338E+00  0.88000000000E+00 0.  1.
        -11    1    4    4    0    0  0.11880706502E-01  0.25415574238E-01  0.28553422276E-01  0.40033256743E-01  0.51100000000E-03 0. -1.
         11    1    4    4    0    0  0.43851355369E-01  0.69294593363E-01  0.44642409928E-01  0.93369630621E-01  0.51100000000E-03 0.  1.
</event>
<event>
 8    1  0.1115874E+005  0.1043930E+01  0.7957747E-01            NaN
         13   -1    0    0    0    0  0.00000000000E+00  0.00000000000E+00  0.74505805969E-08  0.10566000000E+00  0.10566000000E+00 0. -1.
     999900   -1    0    0    0    0 -0.00000000000E+00 -0.00000000000E+00 -0.74505805969E-08  0.93827000000E+00  0.93827000000E+00 0.  1.
     999902    2    1    2    0    0 -0.14755237596E-01  0.43528469603E-02 -0.17715897727E-01  0.10204668940E+01  0.10201971203E+01 0.  0.
     999903    2    3    3    0    0 -0.12109510840E+00  0.50613076327E-01  0.64847352197E-04  0.13268069681E+00  0.19453902600E-01 0.  0.
         14    1    1    2    0    0  0.14755237596E-01 -0.43528469603E-02  0.17715897727E-01  0.23463106049E-01  0.00000000000E+00 0. -1.
     999901    1    3    3    0    0  0.10633987080E+00 -0.46260229367E-01 -0.17780745080E-01  0.88778619714E+00  0.88000000000E+00 0.  1.
        -11    1    4    4    0    0 -0.15988725846E-01  0.29500192554E-03  0.20650679876E-02  0.16132328013E-01  0.51100000000E-03 0. -1.
         11    1    4    4    0    0 -0.10510638255E+00  0.50318074402E-01 -0.20002206354E-02  0.11654836879E+00  0.51100000000E-03 0.  1.
</event>
<event>
 8    1  0.1115874E+005  0.1043930E+01  0.7957747E-01            NaN
         13   -1    0    0    0    0  0.00000000000E+00  0.00000000000E+00  0.74505805969E-08  0.10566000000E+00  0.10566000000E+00 0. -1.
     999900   -1    0    0    0    0 -0.00000000000E+00 -0.00000000000E+00 -0.74505805969E-08  0.93827000000E+00  0.93827000000E+00 0. -1.
     999902    2    1    2    0    0 -0.78716799573E-02  0.17977454585E-01  0.12900063102E-01  0.10204446035E+01  0.10201743111E+01 0.  0.
     999903    2    3    3    0    0  0.77555401354E-01 -0.99131213457E-01 -0.15690813503E-01  0.12812758332E+00  0.18128381581E-01 0.  0.
         14    1    1    2    0    0  0.78716799573E-02 -0.17977454585E-01 -0.12900063102E-01  0.23485396457E-01  0.00000000000E+00 0.  1.
     999901    1    3    3    0    0 -0.85427081311E-01  0.11710866804E+00  0.28590876605E-01  0.89231702022E+00  0.88000000000E+00 0.  1.
        -11    1    4    4    0    0  0.54197588312E-01 -0.56478293020E-01 -0.57449458038E-02  0.78488481222E-01  0.51100000000E-03 0. -1.
         11    1    4    4    0    0  0.23357813042E-01 -0.42652920437E-01 -0.99458676991E-02  0.49639102100E-01  0.51100000000E-03 0.  1.
</event>
<event>
 8    1  0.1115874E+005  0.1043930E+01  0.7957747E-01            NaN
         13   -1    0    0    0    0  0.00000000000E+00  0.00000000000E+00  0.74505805969E-08  0.10566000000E+00  0.10566000000E+00 0. -1.
     999900   -1    0    0    0    0 -0.00000000000E+00 -0.00000000000E+00 -0.74505805969E-08  0.93827000000E+00  0.93827000000E+00 0.  1.
     999902    2    1    2    0    0 -0.90181611619E-02  0.18425792968E-01  0.86792048345E-02  0.10216552234E+01  0.10214123701E+01 0.  0.
     999903    2    3    3    0    0 -0.11604460750E+00 -0.42675785542E-01 -0.40200812358E-01  0.13172414784E+00  0.21155902491E-01 0.  0.
         14    1    1    2    0    0  0.90181611619E-02 -0.18425792968E-01 -0.86792048345E-02  0.22274776627E-01  0.00000000000E+00 0. -1.
     999901    1    3    3    0    0  0.10702644633E+00  0.61101578510E-01  0.48880017192E-01  0.88993107553E+00  0.88000000000E+00 0. -1.
        -11    1    4    4    0    0 -0.37199750276E-01 -0.23504631814E-01 -0.18437200046E-01  0.47712478492E-01  0.51100000000E-03 0. -1.
         11    1    4    4    0    0 -0.78844857220E-01 -0.19171153728E-01 -0.21763612312E-01  0.84011669352E-01  0.51100000000E-03 0.  1.
</event>
<event>
 8    1  0.1115874E+005  0.1043930E+01  0.7957747E-01            NaN
         13   -1    0    0    0    0  0.00000000000E+00  0.00000000000E+00  0.74505805969E-08  0.10566000000E+00  0.10566000000E+00 0.  1.
     999900   -1    0    0    0    0 -0.00000000000E+00 -0.00000000000E+00 -0.74505805969E-08  0.93827000000E+00  0.93827000000E+00 0.  1.
     999902    2    1    2    0    0 -0.49790042175E-02  0.21309721031E-01 -0.10526628497E-01  0.10196461659E+01  0.10193569536E+01 0.  0.
     999903    2    3    3    0    0  0.55223569944E-01  0.14347531991E-01 -0.11641675259E+00  0.13122872996E+00  0.20313171417E-01 0.  0.
         14    1    1    2    0    0  0.49790042175E-02 -0.21309721031E-01  0.10526628497E-01  0.24283834148E-01  0.00000000000E+00 0. -1.
     999901    1    3    3    0    0 -0.60202574162E-01  0.69621890400E-02  0.10589012409E+00  0.88841743589E+00  0.88000000000E+00 0. -1.
        -11    1    4    4    0    0  0.15755287417E-01  0.18436167304E-02 -0.54341796046E-01  0.56612012177E-01  0.51100000000E-03 0.  1.
         11    1    4    4    0    0  0.39468282527E-01  0.12503915260E-01 -0.62074956542E-01  0.74616717786E-01  0.51100000000E-03 0. -1.
</event>
<event>
 8    1  0.1115874E+005  0.1043930E+01  0.7957747E-01            NaN
         13   -1    0    0    0    0  0.00000000000E+00  0.00000000000E+00  0.74505805969E-08  0.10566000000E+00  0.10566000000E+00 0.  1.
     999900   -1    0    0    0    0 -0.00000000000E+00 -0.00000000000E+00 -0.74505805969E-08  0.93827000000E+00  0.93827000000E+00 0. -1.
     999902    2    1    2    0    0  0.13088361178E-01  0.16768568503E-01  0.97261408428E-02  0.10205400897E+01  0.10202720161E+01 0.  0.
     999903    2    3    3    0    0 -0.19233268041E-01 -0.11427181778E+00 -0.50306001934E-01  0.12822841281E+00  0.21996933511E-01 0.  0.
         14    1    1    2    0    0 -0.13088361178E-01 -0.16768568503E-01 -0.97261408428E-02  0.23389910296E-01  0.00000000000E+00 0. -1.
     999901    1    3    3    0    0  0.32321629219E-01  0.13104038628E+00  0.60032142777E-01  0.89231167689E+00  0.88000000000E+00 0.  1.
        -11    1    4    4    0    0 -0.46489003591E-02 -0.38964145859E-01 -0.61618077598E-02  0.39724626278E-01  0.51100000000E-03 0. -1.
         11    1    4    4    0    0 -0.14584367682E-01 -0.75307671918E-01 -0.44144194174E-01  0.88503786533E-01  0.51100000000E-03 0.  1.
</event>
<event>
 8    1  0.1115874E+005  0.1043930E+01  0.7957747E-01            NaN
         13   -1    0    0    0    0  0.00000000000E+00  0.00000000000E+00  0.74505805969E-08  0.10566000000E+00  0.10566000000E+00 0. -1.
     999900   -1    0    0    0    0 -0.00000000000E+00 -0.00000000000E+00 -0.74505805969E-08  0.93827000000E+00  0.93827000000E+00 0. -1.
     999902    2    1    2    0    0 -0.34827683236E-02 -0.16397846826E-01 -0.14825682204E-01  0.10215509940E+01  0.10213058374E+01 0.  0.
     999903    2    3    3    0    0  0.60950143153E-01  0.11215556044E+00  0.80030923115E-02  0.12958758023E+00  0.20859093313E-01 0.  0.
         14    1    1    2    0    0  0.34827683236E-02  0.16397846826E-01  0.14825682204E-01  0.22379005977E-01  0.00000000000E+00 0.  1.
     999901    1    3    3    0    0 -0.64432911477E-01 -0.12855340727E+00 -0.22828774516E-01  0.89196341379E+00  0.88000000000E+00 0. -1.
        -11    1    4    4    0    0  0.32110316662E-01  0.57982934293E-01 -0.62645757769E-02  0.66577767581E-01  0.51100000000E-03 0.  1.
         11    1    4    4    0    0  0.28839826491E-01  0.54172626151E-01  0.14267668088E-01  0.63009812647E-01  0.51100000000E-03 0. -1.
</event>
<event>
 8    1  0.1115874E+005  0.1043930E+01  0.7957747E-01            NaN
         13   -1    0    0    0    0  0.00000000000E+00  0.00000000000E+00  0.74505805969E-08  0.10566000000E+00  0.10566000000E+00 0. -1.
     999900   -1    0    0    0    0 -0.00000000000E+00 -0.00000000000E+00 -0.74505805969E-08  0.93827000000E+00  0.93827000000E+00 0. -1.
     999902    2    1    2    0    0  0.13034286573E-01 -0.19718412437E-01  0.36627413591E-02  0.10200108844E+01  0.10197303959E+01 0.  0.
     999903    2    3    3    0    0 -0.11316727414E+00  0.34074404075E-01  0.46239159757E-01  0.12836451258E+00  0.19274108122E-01 0.  0.
         14    1    1    2    0    0 -0.13034286573E-01  0.19718412437E-01 -0.36627413591E-02  0.23919115572E-01  0.00000000000E+00 0.  1.
     999901    1    3    3    0    0  0.12620156071E+00 -0.53792816511E-01 -0.42576418397E-01  0.89164637185E+00  0.88000000000E+00 0.  1.
        -11    1    4    4    0    0 -0.64255239769E-01  0.16574759883E-01  0.35705686888E-01  0.75356590290E-01  0.51100000000E-03 0. -1.
         11    1    4    4    0    0 -0.48912034373E-01  0.17499644192E-01  0.10533472868E-01  0.53007922285E-01  0.51100000000E-03 0.  1.
</event>
<event>
 8    1  0.1115874E+005  0.1043930E+01  0.7957747E-01            NaN
         13   -1    0    0    0    0  0.00000000000E+00  0.00000000000E+00  0.74505805969E-08  0.10566000000E+00  0.10566000000E+00 0. -1.
     999900   -1    0    0    0    0 -0.00000000000E+00 -0.00000000000E+00 -0.74505805969E-08  0.93827000000E+00  0.93827000000E+00 0.  1.
     999902    2    1    2    0    0  0.19926790333E-01  0.63355646339E-02 -0.79635772606E-02  0.10215551276E+01  0.10213100625E+01 0.  0.
     999903    2    3    3    0    0  0.65279441613E-02  0.10475963815E-01  0.12758080634E+00  0.13106708618E+00  0.27374423459E-01 0.  0.
         14    1    1    2    0    0 -0.19926790333E-01 -0.63355646339E-02  0.79635772606E-02  0.22374872402E-01  0.00000000000E+00 0. -1.
     999901    1    3    3    0    0  0.13398846172E-01 -0.41403991811E-02 -0.13554438360E+00  0.89048804142E+00  0.88000000000E+00 0.  1.
        -11    1    4    4    0    0  0.12535628803E-01 -0.43550523505E-02  0.72519155157E-01  0.73725148058E-01  0.51100000000E-03 0. -1.
         11    1    4    4    0    0 -0.60076846417E-02  0.14831016166E-01  0.55061651185E-01  0.57341938121E-01  0.51100000000E-03 0.  1.
</event>
<event>
 8    1  0.1115874E+005  0.1043930E+01  0.7957747E-01            NaN
         13   -1    0    0    0    0  0.00000000000E+00  0.00000000000E+00  0.74505805969E-08  0.10566000000E+00  0.10566000000E+00 0. -1.
     999900   -1    0    0    0    0 -0.00000000000E+00 -0.00000000000E+00 -0.74505805969E-08  0.93827000000E+00  0.93827000000E+00 0.  1.
     999902    2    1    2    0    0  0.15079978022E-01 -0.16453214668E-01 -0.93484361234E-02  0.10197327426E+01  0.10194456135E+01 0.  0.
     999903    2    3    3    0    0  0.10779997876E-01  0.70763080545E-01  0.10434524782E+00  0.12813225705E+00  0.20157446035E-01 0.  0.
         14    1    1    2    0    0 -0.15079978022E-01  0.16453214668E-01  0.93484361234E-02  0.24197257448E-01  0.00000000000E+00 0. -1.
     999901    1    3    3    0    0  0.42999801469E-02 -0.87216295212E-01 -0.11369368395E+00  0.89160048550E+00  0.88000000000E+00 0.  1.
        -11    1    4    4    0    0  0.16043047970E-01  0.39186878713E-01  0.59108607324E-01  0.72712305920E-01  0.51100000000E-03 0.  1.
         11    1    4    4    0    0 -0.52630500941E-02  0.31576201832E-01  0.45236640500E-01  0.55419951129E-01  0.51100000000E-03 0. -1.
</event>
<event>
 8    1  0.1115874E+005  0.1043930E+01  0.7957747E-01            NaN
         13   -1    0    0    0    0  0.00000000000E+00  0.00000000000E+00  0.74505805969E-08  0.10566000000E+00  0.10566000000E+00 0. -1.
     999900   -1    0    0    0    0 -0.00000000000E+00 -0.00000000000E+00 -0.74505805969E-08  0.93827000000E+00  0.93827000000E+00 0. -1.
     999902    2    1    2    0    0  0.75056437145E-02  0.21547556942E-01 -0.63569977050E-02  0.10202436470E+01  0.10199686544E+01 0.  0.
     999903    2    3    3    0    0  0.10098390908E+00 -0.23027311293E-01  0.76309640576E-01  0.13032293254E+00  0.20806214036E-01 0.  0.
         14    1    1    2    0    0 -0.75056437145E-02 -0.21547556942E-01  0.63569977050E-02  0.23686352982E-01  0.00000000000E+00 0.  1.
     999901    1    3    3    0    0 -0.93478265365E-01  0.44574868236E-01 -0.82666638281E-01  0.88992071448E+00  0.88000000000E+00 0. -1.
        -11    1    4    4    0    0  0.59430582319E-01 -0.22934569894E-01  0.40695676058E-01  0.75593569712E-01  0.51100000000E-03 0.  1.
         11    1    4    4    0    0  0.41553326760E-01 -0.92741399943E-04  0.35613964519E-01  0.54729362827E-01  0.51100000000E-03 0. -1.
</event>
<event>
 8    1  0.1115874E+005  0.1043930E+01  0.7957747E-01            NaN
         13   -1    0    0    0    0  0.00000000000E+00  0.00000000000E+00  0.74505805969E-08  0.10566000000E+00  0.10566000000E+00 0.  1.
     999900   -1    0    0    0    0 -0.00000000000E+00 -0.00000000000E+00 -0.74505805969E-08  0.93827000000E+00  0.93827000000E+00 0. -1.
     999902    2    1    2    0    0  0.18086790268E-01  0.86643919738E-02 -0.11730457848E-01  0.10206962463E+01  0.10204317811E+01 0.  0.
     999903    2    3    3    0    0 -0.11027130409E+00  0.78783228642E-02 -0.65104280009E-01  0.12978368986E+00  0.19580868272E-01 0.  0.
         14    1    1    2    0    0 -0.18086790268E-01 -0.86643919738E-02  0.11730457848E-01  0.23233753717E-01  0.00000000000E+00 0.  1.
     999901    1    3    3    0    0  0.12835809436E+00  0.78606910967E-03  0.53373822161E-01  0.89091255642E+00  0.88000000000E+00 0.  1.
        -11    1    4    4    0    0 -0.54652858887E-01  0.11845303644E-01 -0.39225065490E-01  0.68308953195E-01  0.51100000000E-03 0.  1.
         11    1    4    4    0    0 -0.55618445204E-01 -0.39669807799E-02 -0.25879214518E-01  0.61474736669E-01  0.51100000000E-03 0. -1.
</event>
<event>
 8    1  0.1115874E+005  0.1043930E+01  0.7957747E-01            NaN
         13   -1    0    0    0    0  0.00000000000E+00  0.00000000000E+00  0.74505805969E-08  0.10566000000E+00  0.10566000000E+00 0. -1.
     999900   -1    0    0    0    0 -0.00000000000E+00 -0.00000000000E+00 -0.74505805969E-08  0.93827000000E+00  0.93827000000E+00 0. -1.
     999902    2    1    2    0    0 -0.10252329134E-01 -0.10132609638E-01  0.19996398122E-01  0.10192797268E+01  0.10189816120E+01 0.  0.
     999903    2    3    3    0    0 -0.81262137272E-01 -0.76002711528E-01  0.69271652524E-01  0.13259527681E+00  0.20074821893E-01 0.  0.
         14    1    1    2    0    0  0.10252329134E-01  0.10132609638E-01 -0.19996398122E-01  0.24650273195E-01  0.00000000000E+00 0. -1.
     999901    1    3    3    0    0  0.71009808139E-01  0.65870101890E-01 -0.49275254402E-01  0.88668445000E+00  0.88000000000E+00 0. -1.
        -11    1    4    4    0    0 -0.47148591396E-01 -0.30606195336E-01  0.36623944626E-01  0.67091752880E-01  0.51100000000E-03 0. -1.
         11    1    4    4    0    0 -0.34113545876E-01 -0.45396516192E-01  0.32647707898E-01  0.65503523925E-01  0.51100000000E-03 0.  1.
</event>
<event>
 8    1  0.1115874E+005  0.1043930E+01  0.7957747E-01            NaN
         13   -1    0    0    0    0  0.00000000000E+00  0.00000000000E+00  0.74505805969E-08  0.10566000000E+00  0.10566000000E+00 0.  1.
     999900   -1    0    0    0    0 -0.00000000000E+00 -0.00000000000E+00 -0.74505805969E-08  0.93827000000E+00  0.93827000000E+00 0.  1.
     999902    2    1    2    0    0 -0.22659668911E-01 -0.38992598043E-02  0.39018358503E-02  0.10206085690E+01  0.10203420808E+01 0.  0.
     999903    2    3    3    0    0  0.83974818558E-01 -0.92902136155E-01 -0.23875019248E-01  0.12928147997E+00  0.21473412968E-01 0.  0.
         14    1    1    2    0    0  0.22659668911E-01  0.38992598043E-02 -0.39018358503E-02  0.23321431027E-01  0.00000000000E+00 0. -1.
     999901    1    3    3    0    0 -0.10663448747E+00  0.89002876350E-01  0.27776855098E-01  0.89132708901E+00  0.88000000000E+00 0. -1.
        -11    1    4    4    0    0  0.28138864764E-01 -0.33275460198E-01 -0.18712303859E-01  0.47428508287E-01  0.51100000000E-03 0.  1.
         11    1    4    4    0    0  0.55835953794E-01 -0.59626675957E-01 -0.51627153884E-02  0.81852971681E-01  0.51100000000E-03 0. -1.
</event>
<event>
 8    1  0.1115874E+005  0.1043930E+01  0.7957747E-01            NaN
         13   -1    0    0    0    0  0.00000000000E+00  0.00000000000E+00  0.74505805969E-08  0.10566000000E+00  0.10566000000E+00 0.  1.
     999900   -1    0    0    0    0 -0.00000000000E+00 -0.00000000000E+00 -0.74505805969E-08  0.93827000000E+00  0.93827000000E+00 0.  1.
     999902    2    1    2    0    0  0.62047847581E-02  0.91320898585E-02  0.19314314579E-01  0.10216828167E+01  0.10214405713E+01 0.  0.
     999903    2    3    3    0    0 -0.55133935795E-01  0.82236777760E-01 -0.82306005945E-01  0.13070951539E+00  0.22540193108E-01 0.  0.
         14    1    1    2    0    0 -0.62047847581E-02 -0.91320898585E-02 -0.19314314579E-01  0.22247183344E-01  0.00000000000E+00 0. -1.
     999901    1    3    3    0    0  0.61338720553E-01 -0.73104687901E-01  0.10162032052E+00  0.89097330127E+00  0.88000000000E+00 0. -1.
        -11    1    4    4    0    0 -0.25602942571E-01  0.23926724839E-01 -0.19717557243E-01  0.40212460935E-01  0.51100000000E-03 0. -1.
         11    1    4    4    0    0 -0.29530993223E-01  0.58310052921E-01 -0.62588448702E-01  0.90497054451E-01  0.51100000000E-03 0.  1.
</event>
<event>
 8    1  0.1115874E+005  0.1043930E+01  0.7957747E-01            NaN
         13   -1    0    0    0    0  0.00000000000E+00  0.00000000000E+00  0.74505805969E-08  0.10566000000E+00  0.10566000000E+00 0.  1.
     999900   -1    0    0    0    0 -0.00000000000E+00 -0.00000000000E+00 -0.74505805969E-08  0.93827000000E+00  0.93827000000E+00 0.  1.
     999902    2    1    2    0    0 -0.13434599152E-01 -0.92479636314E-02 -0.17535776453E-01  0.10199817904E+01  0.10197006110E+01 0.  0.
     999903    2    3    3    0    0  0.57676346915E-02 -0.12552227684E+00 -0.35329059976E-01  0.13194742024E+00  0.19309884434E-01 0.  0.
         14    1    1    2    0    0  0.13434599152E-01  0.92479636314E-02  0.17535776453E-01  0.23948209568E-01  0.00000000000E+00 0.  1.
     999901    1    3    3    0    0 -0.19202233843E-01  0.11627431321E+00  0.17793283522E-01  0.88803437019E+00  0.88000000000E+00 0.  1.
        -11    1    4    4    0    0 -0.39187709095E-02 -0.37733286967E-01 -0.36501055529E-02  0.38114854090E-01  0.51100000000E-03 0. -1.
         11    1    4    4    0    0  0.96864056009E-02 -0.87788989875E-01 -0.31678954423E-01  0.93832566154E-01  0.51100000000E-03 0.  1.
</event>
<event>
 8    1  0.1115874E+005  0.1043930E+01  0.7957747E-01            NaN
         13   -1    0    0    0    0  0.00000000000E+00  0.00000000000E+00  0.74505805969E-08  0.10566000000E+00  0.10566000000E+00 0.  1.
     999900   -1    0    0    0    0 -0.00000000000E+00 -0.00000000000E+00 -0.74505805969E-08  0.93827000000E+00  0.93827000000E+00 0. -1.
     999902    2    1    2    0    0 -0.24867585576E-02  0.43970867219E-02 -0.21336654969E-01  0.10220035050E+01  0.10217682677E+01 0.  0.
     999903    2    3    3    0    0  0.74408842118E-01  0.80347159635E-01  0.69294829102E-01  0.13077098037E+00  0.17519535345E-01 0.  0.
         14    1    1    2    0    0  0.24867585576E-02 -0.43970867219E-02  0.21336654969E-01  0.21926495046E-01  0.00000000000E+00 0.  1.
     999901    1    3    3    0    0 -0.76895600676E-01 -0.75950072913E-01 -0.90631484071E-01  0.89123252459E+00  0.88000000000E+00 0. -1.
        -11    1    4    4    0    0  0.12785677484E-01  0.11515144063E-01  0.40987591889E-02  0.17695565529E-01  0.51100000000E-03 0. -1.
         11    1    4    4    0    0  0.61623164634E-01  0.68832015572E-01  0.65196069913E-01  0.11307541484E+00  0.51100000000E-03 0.  1.
</event>
<event>
 8    1  0.1115874E+005  0.1043930E+01  0.7957747E-01            NaN
         13   -1    0    0    0    0  0.00000000000E+00  0.00000000000E+00  0.74505805969E-08  0.10566000000E+00  0.10566000000E+00 0. -1.
     999900   -1    0    0    0    0 -0.00000000000E+00 -0.00000000000E+00 -0.74505805969E-08  0.93827000000E+00  0.93827000000E+00 0.  1.
     999902    2    1    2    0    0 -0.40162835682E-02  0.20922384191E-03  0.23356347512E-01  0.10202299309E+01  0.10199546159E+01 0.  0.
     999903    2    3    3    0    0 -0.88315409370E-01  0.43780701072E-01  0.86187947135E-01  0.13290100303E+00  0.22758582065E-01 0.  0.
         14    1    1    2    0    0  0.40162835682E-02 -0.20922384191E-03 -0.23356347512E-01  0.23700069143E-01  0.00000000000E+00 0.  1.
     999901    1    3    3    0    0  0.84299125802E-01 -0.43571477230E-01 -0.62831599623E-01  0.88732892782E+00  0.88000000000E+00 0.  1.
        -11    1    4    4    0    0 -0.59124464337E-01  0.40749527241E-01  0.61698303461E-01  0.94674009234E-01  0.51100000000E-03 0. -1.
         11    1    4    4    0    0 -0.29190945033E-01  0.30311738310E-02  0.24489643674E-01  0.38226993801E-01  0.51100000000E-03 0.  1.
</event>
<event>
 8    1  0.1115874E+005  0.1043930E+01  0.7957747E-01            NaN
         13   -1    0    0    0    0  0.00000000000E+00  0.00000000000E+00  0.74505805969E-08  0.10566000000E+00  0.10566000000E+00 0. -1.
     999900   -1    0    0    0    0 -0.00000000000E+00 -0.00000000000E+00 -0.74505805969E-08  0.93827000000E+00  0.93827000000E+00 0.  1.
     999902    2    1    2    0    0 -0.99436218490E-02 -0.74040649049E-02  0.24527135053E-01  0.10164477121E+01  0.10160761169E+01 0.  0.
     999903    2    3    3    0    0 -0.48932287398E-01 -0.93459994236E-01 -0.67128497400E-01  0.12665757172E+00  0.20168441640E-01 0.  0.
         14    1    1    2    0    0  0.99436218490E-02  0.74040649049E-02 -0.24527135053E-01  0.27482287869E-01  0.00000000000E+00 0.  1.
     999901    1    3    3    0    0  0.38988665549E-01  0.86055929331E-01  0.91655632453E-01  0.88979014041E+00  0.88000000000E+00 0.  1.
        -11    1    4    4    0    0 -0.40850450705E-01 -0.88756679712E-01 -0.63919962469E-01  0.11675842685E+00  0.51100000000E-03 0.  1.
         11    1    4    4    0    0 -0.80818366928E-02 -0.47033145236E-02 -0.32085349305E-02  0.98991448740E-02  0.51100000000E-03 0. -1.
</event>
<event>
 8    1  0.1115874E+005  0.1043930E+01  0.7957747E-01            NaN
         13   -1    0    0    0    0  0.00000000000E+00  0.00000000000E+00  0.74505805969E-08  0.10566000000E+00  0.10566000000E+00 0. -1.
     999900   -1    0    0    0    0 -0.00000000000E+00 -0.00000000000E+00 -0.74505805969E-08  0.93827000000E+00  0.93827000000E+00 0. -1.
     999902    2    1    2    0    0  0.52960050004E-02 -0.93303142090E-02 -0.21830996716E-01  0.10196052215E+01  0.10193150214E+01 0.  0.
     999903    2    3    3    0    0 -0.43300601767E-02 -0.11831231761E+00  0.49690166953E-01  0.12995078574E+00  0.20038465598E-01 0.  0.
         14    1    1    2    0    0 -0.52960050004E-02  0.93303142090E-02  0.21830996716E-01  0.24324778515E-01  0.00000000000E+00 0. -1.
     999901    1    3    3    0    0  0.96260651771E-02  0.10898200340E+00 -0.71521163668E-01  0.88965443575E+00  0.88000000000E+00 0.  1.
        -11    1    4    4    0    0 -0.11182571611E-01 -0.72877511819E-01  0.35675800657E-01  0.81909740021E-01  0.51100000000E-03 0. -1.
         11    1    4    4    0    0  0.68525114345E-02 -0.45434805786E-01  0.14014366296E-01  0.48041045716E-01  0.51100000000E-03 0.  1.
</event>
<event>
 8    1  0.1115874E+005  0.1043930E+01  0.7957747E-01            NaN
         13   -1    0    0    0    0  0.00000000000E+00  0.00000000000E+00  0.74505805969E-08  0.10566000000E+00  0.10566000000E+00 0. -1.
     999900   -1    0    0    0    0 -0.00000000000E+00 -0.00000000000E+00 -0.74505805969E-08  0.93827000000E+00  0.93827000000E+00 0. -1.
     999902    2    1    2    0    0 -0.13811115784E-01  0.18610333633E-01  0.54963125356E-02  0.10201119210E+01  0.10198338249E+01 0.  0.
     999903    2    3    3    0    0 -0.10048075018E+00  0.38571581541E-01 -0.74146667781E-01  0.13205050347E+00  0.18853622042E-01 0.  0.
         14    1    1    2    0    0  0.13811115784E-01 -0.18610333633E-01 -0.54963125356E-02  0.23818079029E-01  0.00000000000E+00 0.  1.
     999901    1    3    3    0    0  0.86669634395E-01 -0.19961247908E-01  0.79642980316E-01  0.88806141750E+00  0.88000000000E+00 0.  1.
        -11    1    4    4    0    0 -0.87818860272E-02  0.95180479764E-02 -0.68998858498E-02  0.14682789422E-01  0.51100000000E-03 0. -1.
         11    1    4    4    0    0 -0.91698864152E-01  0.29053533564E-01 -0.67246781931E-01  0.11736771405E+00  0.51100000000E-03 0.  1.
</event>
<event>
 8    1  0.1115874E+005  0.1043930E+01  0.7957747E-01            NaN
         13   -1    0    0    0    0  0.00000000000E+00  0.00000000000E+00  0.74505805969E-08  0.10566000000E+00  0.10566000000E+00 0. -1.
     999900   -1    0    0    0    0 -0.00000000000E+00 -0.00000000000E+00 -0.74505805969E-08  0.93827000000E+00  0.93827000000E+00 0. -1.
     999902    2    1    2    0    0 -0.17960655931E-01 -0.11888993120E-01  0.87301348771E-02  0.10206889033E+01  0.10204242690E+01 0.  0.
     999903    2    3    3    0    0 -0.46895056774E-01  0.11672929441E+00  0.28789159111E-01  0.13064270910E+00  0.20342743990E-01 0.  0.
         14    1    1    2    0    0  0.17960655931E-01  0.11888993120E-01 -0.87301348771E-02  0.23241096658E-01  0.00000000000E+00 0. -1.
     999901    1    3    3    0    0  0.28934400843E-01 -0.12861828753E+00 -0.20059024234E-01  0.89004619425E+00  0.88000000000E+00 0. -1.
        -11    1    4    4    0    0 -0.28412754682E-01  0.83976254658E-01  0.28184407532E-01  0.93026436694E-01  0.51100000000E-03 0.  1.
         11    1    4    4    0    0 -0.18482302092E-01  0.32753039756E-01  0.60475157961E-03  0.37616272401E-01  0.51100000000E-03 0. -1.
</event>
<event>
 8    1  0.1115874E+005  0.1043930E+01  0.7957747E-01            NaN
         13   -1    0    0    0    0  0.00000000000E+00  0.00000000000E+00  0.74505805969E-08  0.10566000000E+00  0.10566000000E+00 0. -1.
     999900   -1    0    0    0    0 -0.00000000000E+00 -0.00000000000E+00 -0.74505805969E-08  0.93827000000E+00  0.93827000000E+00 0.  1.
     999902    2    1    2    0    0  0.11703095315E-01  0.10218819917E-01  0.17889456309E-01  0.10202357102E+01  0.10199605311E+01 0.  0.
     999903    2    3    3    0    0  0.59474768162E-01  0.89566089748E-01 -0.72703978623E-01  0.13074973935E+00  0.15820662136E-01 0.  0.
         14    1    1    2    0    0 -0.11703095315E-01 -0.10218819917E-01 -0.17889456309E-01  0.23694289765E-01  0.00000000000E+00 0.  1.
     999901    1    3    3    0    0 -0.47771672848E-01 -0.79347269831E-01  0.90593434933E-01  0.88948597089E+00  0.88000000000E+00 0.  1.
        -11    1    4    4    0    0  0.35249523364E-01  0.64411395569E-01 -0.53864188253E-01  0.91065738199E-01  0.51100000000E-03 0. -1.
         11    1    4    4    0    0  0.24225244798E-01  0.25154694179E-01 -0.18839790370E-01  0.39684001146E-01  0.51100000000E-03 0.  1.
</event>
<event>
 8    1  0.1115874E+005  0.1043930E+01  0.7957747E-01            NaN
         13   -1    0    0    0    0  0.00000000000E+00  0.00000000000E+00  0.74505805969E-08  0.10566000000E+00  0.10566000000E+00 0.  1.
     999900   -1    0    0    0    0 -0.00000000000E+00 -0.00000000000E+00 -0.74505805969E-08  0.93827000000E+00  0.93827000000E+00 0. -1.
     999902    2    1    2    0    0  0.21824743085E-01  0.78031639680E-02 -0.61496441277E-02  0.10199502815E+01  0.10196683528E+01 0.  0.
     999903    2    3    3    0    0 -0.11774072988E+00 -0.44215372052E-01 -0.88790461824E-02  0.12743031027E+00  0.18486966072E-01 0.  0.
         14    1    1    2    0    0 -0.21824743085E-01 -0.78031639680E-02  0.61496441277E-02  0.23979718546E-01  0.00000000000E+00 0. -1.
     999901    1    3    3    0    0  0.13956547297E+00  0.52018536020E-01  0.27294020548E-02  0.89251997119E+00  0.88000000000E+00 0.  1.
        -11    1    4    4    0    0 -0.10298357278E+00 -0.31669363654E-01 -0.75927079389E-02  0.10801145861E+00  0.51100000000E-03 0.  1.
         11    1    4    4    0    0 -0.14757157102E-01 -0.12546008399E-01 -0.12863382435E-02  0.19418851654E-01  0.51100000000E-03 0. -1.
</event>
<event>
 8    1  0.1115874E+005  0.1043930E+01  0.7957747E-01            NaN
         13   -1    0    0    0    0  0.00000000000E+00  0.00000000000E+00  0.74505805969E-08  0.10566000000E+00  0.10566000000E+00 0.  1.
     999900   -1    0    0    0    0 -0.00000000000E+00 -0.00000000000E+00 -0.74505805969E-08  0.93827000000E+00  0.93827000000E+00 0. -1.
     999902    2    1    2    0    0  0.18793813472E-01 -0.67995574660E-02  0.97586047895E-02  0.10216887821E+01  0.10214466681E+01 0.  0.
     999903    2    3    3    0    0  0.21410004608E-01 -0.70471931477E-01  0.10955346622E+00  0.13375858774E+00  0.21557282060E-01 0.  0.
         14    1    1    2    0    0 -0.18793813472E-01  0.67995574660E-02 -0.97586047895E-02  0.22241217908E-01  0.00000000000E+00 0. -1.
     999901    1    3    3    0    0 -0.26161911353E-02  0.63672374011E-01 -0.99794861435E-01  0.88793019435E+00  0.88000000000E+00 0. -1.
        -11    1    4    4    0    0  0.23423099559E-01 -0.59309353174E-01  0.10138141079E+00  0.11976933055E+00  0.51100000000E-03 0.  1.
         11    1    4    4    0    0 -0.20130949513E-02 -0.11162578304E-01  0.81720554363E-02  0.13989257190E-01  0.51100000000E-03 0. -1.
</event>
<event>
 8    1  0.1115874E+005  0.1043930E+01  0.7957747E-01            NaN
         13   -1    0    0    0    0  0.00000000000E+00  0.00000000000E+00  0.74505805969E-08  0.10566000000E+00  0.10566000000E+00 0. -1.
     999900   -1    0    0    0    0 -0.00000000000E+00 -0.00000000000E+00 -0.74505805969E-08  0.93827000000E+00  0.93827000000E+00 0. -1.
     999902    2    1    2    0    0 -0.18039946245E-01  0.55688935137E-02 -0.13962553271E-01  0.10204479829E+01  0.10201777691E+01 0.  0.
     999903    2    3    3    0    0  0.95553932944E-01  0.84976411574E-01 -0.67915533662E-02  0.12957170269E+00  0.19777672163E-01 0.  0.
         14    1    1    2    0    0  0.18039946245E-01 -0.55688935137E-02  0.13962553271E-01  0.23482017148E-01  0.00000000000E+00 0.  1.
     999901    1    3    3    0    0 -0.11359387919E+00 -0.79407518060E-01 -0.71709999051E-02  0.89087628016E+00  0.88000000000E+00 0. -1.
        -11    1    4    4    0    0  0.91683639738E-01  0.74424127133E-01 -0.51530689139E-02  0.11820175860E+00  0.51100000000E-03 0.  1.
         11    1    4    4    0    0  0.38702932060E-02  0.10552284440E-01 -0.16384844524E-02  0.11369944094E-01  0.51100000000E-03 0. -1.
</event>
<event>
 8    1  0.1115874E+005  0.1043930E+01  0.7957747E-01            NaN
         13   -1    0    0    0    0  0.00000000000E+00  0.00000000000E+00  0.74505805969E-08  0.10566000000E+00  0.10566000000E+00 0. -1.
     999900   -1    0    0    0    0 -0.00000000000E+00 -0.00000000000E+00 -0.74505805969E-08  0.93827000000E+00  0.93827000000E+00 0.  1.
     999902    2    1    2    0    0  0.36594725344E-02  0.23157791240E-01  0.28650644113E-02  0.10203104397E+01  0.10200370139E+01 0.  0.
     999903    2    3    3    0    0 -0.98101803711E-01  0.31763537627E-02  0.85279163408E-01  0.13039656809E+00  0.98324027027E-02 0.  0.
         14    1    1    2    0    0 -0.36594725344E-02 -0.23157791240E-01 -0.28650644113E-02  0.23619560293E-01  0.00000000000E+00 0. -1.
     999901    1    3    3    0    0  0.10176127625E+00  0.19981437478E-01 -0.82414098997E-01  0.88991387162E+00  0.88000000000E+00 0. -1.
        -11    1    4    4    0    0 -0.66752886887E-01 -0.17064319895E-02  0.54558750176E-01  0.86230958243E-01  0.51100000000E-03 0. -1.
         11    1    4    4    0    0 -0.31348916825E-01  0.48827857522E-02  0.30720413232E-01  0.44165609844E-01  0.51100000000E-03 0.  1.
</event>
<event>
 8    1  0.1115874E+005  0.1043930E+01  0.7957747E-01            NaN
         13   -1    0    0    0    0  0.00000000000E+00  0.00000000000E+00  0.74505805969E-08  0.10566000000E+00  0.10566000000E+00 0. -1.
     999900   -1    0    0    0    0 -0.00000000000E+00 -0.00000000000E+00 -0.74505805969E-08  0.93827000000E+00  0.93827000000E+00 0. -1.
     999902    2    1    2    0    0 -0.44682027266E-02  0.18308435010E-01 -0.14634070554E-01  0.10200695799E+01  0.10197904825E+01 0.  0.
     999903    2    3    3    0    0 -0.72095685318E-01  0.98121346841E-01 -0.49908294401E-01  0.13317170064E+00  0.20451832557E-01 0.  0.
         14    1    1    2    0    0  0.44682027266E-02 -0.18308435010E-01  0.14634070554E-01  0.23860420137E-01  0.00000000000E+00 0.  1.
     999901    1    3    3    0    0  0.67627482591E-01 -0.79812911831E-01  0.35274223847E-01  0.88689787922E+00  0.88000000000E+00 0.  1.
        -11    1    4    4    0    0 -0.27837135646E-01  0.54934749717E-01 -0.26575384848E-01  0.67076412011E-01  0.51100000000E-03 0.  1.
         11    1    4    4    0    0 -0.44258549672E-01  0.43186597123E-01 -0.23332909552E-01  0.66095288632E-01  0.51100000000E-03 0. -1.
</event>
<event>
 8    1  0.1115874E+005  0.1043930E+01  0.7957747E-01            NaN
         13   -1    0    0    0    0  0.00000000000E+00  0.00000000000E+00  0.74505805969E-08  0.10566000000E+00  0.10566000000E+00 0.  1.
     999900   -1    0    0    0    0 -0.00000000000E+00 -0.00000000000E+00 -0.74505805969E-08  0.93827000000E+00  0.93827000000E+00 0. -1.
     999902    2    1    2    0    0 -0.20803695761E-01  0.27112059555E-02  0.10970007708E-01  0.10202554258E+01  0.10199807098E+01 0.  0.
     999903    2    3    3    0    0 -0.12730544036E+00 -0.20398385056E-01 -0.24221518392E-01  0.13283494016E+00  0.20872712265E-01 0.  0.
         14    1    1    2    0    0  0.20803695761E-01 -0.27112059555E-02 -0.10970007708E-01  0.23674574213E-01  0.00000000000E+00 0.  1.
     999901    1    3    3    0    0  0.10650174460E+00  0.23109591012E-01  0.35191526100E-01  0.88742048563E+00  0.88000000000E+00 0. -1.
        -11    1    4    4    0    0 -0.11251787214E+00 -0.22331249647E-01 -0.16076626779E-01  0.11583468958E+00  0.51100000000E-03 0. -1.
         11    1    4    4    0    0 -0.14787568218E-01  0.19328645911E-02 -0.81448916125E-02  0.17000250578E-01  0.51100000000E-03 0.  1.
</event>
<event>
 8    1  0.1115874E+005  0.1043930E+01  0.7957747E-01            NaN
         13   -1    0    0    0    0  0.00000000000E+00  0.00000000000E+00  0.74505805969E-08  0.10566000000E+00  0.10566000000E+00 0.  1.
     999900   -1    0    0    0    0 -0.00000000000E+00 -0.00000000000E+00 -0.74505805969E-08  0.93827000000E+00  0.93827000000E+00 0.  1.
     999902    2    1    2    0    0 -0.82045311963E-02 -0.22266096750E-01 -0.35107507168E-03  0.10201978140E+01  0.10199217436E+01 0.  0.
     999903    2    3    3    0    0 -0.93726682243E-01  0.79941226191E-01  0.34905558997E-01  0.12946586478E+00  0.19176065450E-01 0.  0.
         14    1    1    2    0    0  0.82045311963E-02  0.22266096750E-01  0.35107507168E-03  0.23732185958E-01  0.00000000000E+00 0. -1.
     999901    1    3    3    0    0  0.85522151047E-01 -0.10220732294E+00 -0.35256634069E-01  0.89073194926E+00  0.88000000000E+00 0.  1.
        -11    1    4    4    0    0 -0.30235588161E-01  0.35686468480E-01  0.75604727103E-02  0.47382873410E-01  0.51100000000E-03 0.  1.
         11    1    4    4    0    0 -0.63491094082E-01  0.44254757711E-01  0.27345086287E-01  0.82082991374E-01  0.51100000000E-03 0. -1.
</event>
<event>
 8    1  0.1115874E+005  0.1043930E+01  0.7957747E-01            NaN
         13   -1    0    0    0    0  0.00000000000E+00  0.00000000000E+00  0.74505805969E-08  0.10566000000E+00  0.10566000000E+00 0.  1.
     999900   -1    0    0    0    0 -0.00000000000E+00 -0.00000000000E+00 -0.74505805969E-08  0.93827000000E+00  0.93827000000E+00 0. -1.
     999902    2    1    2    0    0  0.47659927889E-03  0.60005556319E-02 -0.20062049400E-01  0.10229843646E+01  0.10227699109E+01 0.  0.
     999903    2    3    3    0    0 -0.12294088409E+00  0.15546194938E-01 -0.46749788035E-01  0.13392012071E+00  0.19821980007E-01 0.  0.
         14    1    1    2    0    0 -0.47659927889E-03 -0.60005556319E-02  0.20062049400E-01  0.20945635366E-01  0.00000000000E+00 0.  1.
     999901    1    3    3    0    0  0.12341748337E+00 -0.95456393057E-02  0.26687738636E-01  0.88906424392E+00  0.88000000000E+00 0.  1.
        -11    1    4    4    0    0 -0.58484555992E-01  0.13489371864E-02 -0.30366035058E-01  0.65913732463E-01  0.51100000000E-03 0.  1.
         11    1    4    4    0    0 -0.64456328100E-01  0.14197257751E-01 -0.16383752977E-01  0.68006388247E-01  0.51100000000E-03 0. -1.
</event>
<event>
 8    1  0.1115874E+005  0.1043930E+01  0.7957747E-01            NaN
         13   -1    0    0    0    0  0.00000000000E+00  0.00000000000E+00  0.74505805969E-08  0.10566000000E+00  0.10566000000E+00 0.  1.
     999900   -1    0    0    0    0 -0.00000000000E+00 -0.00000000000E+00 -0.74505805969E-08  0.93827000000E+00  0.93827000000E+00 0.  1.
     999902    2    1    2    0    0 -0.16022397160E-02 -0.13008145004E-01  0.18084195341E-01  0.10215957857E+01  0.10213516202E+01 0.  0.
     999903    2    3    3    0    0 -0.43748596921E-01  0.64548221487E-01  0.10579604599E+00  0.13284122217E+00  0.19328071025E-01 0.  0.
         14    1    1    2    0    0  0.16022397160E-02  0.13008145004E-01 -0.18084195341E-01  0.22334214329E-01  0.00000000000E+00 0. -1.
     999901    1    3    3    0    0  0.42146357205E-01 -0.77556366491E-01 -0.87711850649E-01  0.88875456351E+00  0.88000000000E+00 0.  1.
        -11    1    4    4    0    0 -0.36403898429E-01  0.48104294321E-01  0.67574463046E-01  0.90586070286E-01  0.51100000000E-03 0.  1.
         11    1    4    4    0    0 -0.73446984920E-02  0.16443927166E-01  0.38221582944E-01  0.42255151879E-01  0.51100000000E-03 0. -1.
</event>
<event>
 7    1  0.1115874E+005  0.1043930E+01  0.7957747E-01            NaN
         13   -1    0    0    0    0  0.00000000000E+00  0.00000000000E+00  0.74505805969E-08  0.10566000000E+00  0.10566000000E+00 0.  1.
     999900   -1    0    0    0    0 -0.00000000000E+00 -0.00000000000E+00 -0.74505805969E-08  0.93827000000E+00  0.93827000000E+00 0.  1.
     999903    2    1    2    0    0 -0.88293729130E-02  0.65100156164E-01  0.74571685138E-01  0.10142679732E+00  0.20260079753E-01 0.  0.
         14    1    1    2    0    0  0.28051780904E-01 -0.43309033471E-01 -0.32575854877E-01  0.61022627877E-01  0.00000000000E+00 0. -1.
     999901    1    1    2    0    0 -0.19222407991E-01 -0.21791122693E-01 -0.41995830260E-01  0.88148057480E+00  0.88000000000E+00 0.  1.
        -11    1    3    3    0    0 -0.47885412277E-02  0.38783199678E-01  0.58402281356E-01  0.70272002198E-01  0.51100000000E-03 0.  1.
         11    1    3    3    0    0 -0.40408316853E-02  0.26316956485E-01  0.16169403781E-01  0.31154795121E-01  0.51100000000E-03 0. -1.
</event>
<event>
 8    1  0.1115874E+005  0.1043930E+01  0.7957747E-01            NaN
         13   -1    0    0    0    0  0.00000000000E+00  0.00000000000E+00  0.74505805969E-08  0.10566000000E+00  0.10566000000E+00 0.  1.
     999900   -1    0    0    0    0 -0.00000000000E+00 -0.00000000000E+00 -0.74505805969E-08  0.93827000000E+00  0.93827000000E+00 0.  1.
     999902    2    1    2    0    0  0.90969444908E-02  0.21961093286E-01 -0.51568131788E-02  0.10196064160E+01  0.10193162447E+01 0.  0.
     999903    2    3    3    0    0 -0.35274860786E-01 -0.67670179038E-03  0.12253117117E+00  0.12899676624E+00  0.19532128967E-01 0.  0.
         14    1    1    2    0    0 -0.90969444908E-02 -0.21961093286E-01  0.51568131788E-02  0.24323584019E-01  0.00000000000E+00 0. -1.
     999901    1    3    3    0    0  0.44371805277E-01  0.22637795076E-01 -0.12768798435E+00  0.89060964974E+00  0.88000000000E+00 0.  1.
        -11    1    4    4    0    0 -0.13103537585E-01 -0.70045618062E-02  0.28103758067E-01  0.31793850377E-01  0.51100000000E-03 0.  1.
         11    1    4    4    0    0 -0.22171323202E-01  0.63278600158E-02  0.94427413105E-01  0.97202915860E-01  0.51100000000E-03 0. -1.
</event>
<event>
 8    1  0.1115874E+005  0.1043930E+01  0.7957747E-01            NaN
         13   -1    0    0    0    0  0.00000000000E+00  0.00000000000E+00  0.74505805969E-08  0.10566000000E+00  0.10566000000E+00 0.  1.
     999900   -1    0    0    0    0 -0.00000000000E+00 -0.00000000000E+00 -0.74505805969E-08  0.93827000000E+00  0.93827000000E+00 0. -1.
     999902    2    1    2    0    0 -0.22307194143E-01  0.83534827500E-02 -0.43956473538E-02  0.10197078345E+01  0.10194201070E+01 0.  0.
     999903    2    3    3    0    0  0.67195860528E-01 -0.22118925887E-01  0.10480640105E+00  0.12793182461E+00  0.19432948616E-01 0.  0.
         14    1    1    2    0    0  0.22307194143E-01 -0.83534827500E-02  0.43956473538E-02  0.24222165474E-01  0.00000000000E+00 0.  1.
     999901    1    3    3    0    0 -0.89503054671E-01  0.30472408637E-01 -0.10920204841E+00  0.89177600992E+00  0.88000000000E+00 0.  1.
        -11    1    4    4    0    0  0.15623156136E-01 -0.12972285444E-01  0.21948943715E-01  0.29906194149E-01  0.51100000000E-03 0. -1.
         11    1    4    4    0    0  0.51572704393E-01 -0.91466404426E-02  0.82857457339E-01  0.98025630462E-01  0.51100000000E-03 0.  1.
</event>
<event>
 8    1  0.1115874E+005  0.1043930E+01  0.7957747E-01            NaN
         13   -1    0    0    0    0  0.00000000000E+00  0.00000000000E+00  0.74505805969E-08  0.10566000000E+00  0.10566000000E+00 0.  1.
     999900   -1    0    0    0    0 -0.00000000000E+00 -0.00000000000E+00 -0.74505805969E-08  0.93827000000E+00  0.93827000000E+00 0. -1.
     999902    2    1    2    0    0  0.21528094463E-01 -0.55533116284E-02  0.84939416625E-02  0.10201298915E+01  0.10198522198E+01 0.  0.
     999903    2    3    3    0    0 -0.78749510494E-01  0.94509889062E-01 -0.29238178535E-01  0.12800212310E+00  0.19901454757E-01 0.  0.
         14    1    1    2    0    0 -0.21528094463E-01  0.55533116284E-02 -0.84939416625E-02  0.23800108534E-01  0.00000000000E+00 0. -1.
     999901    1    3    3    0    0  0.10027760496E+00 -0.10006320069E+00  0.37732120198E-01  0.89212776836E+00  0.88000000000E+00 0. -1.
        -11    1    4    4    0    0 -0.69996266277E-01  0.71877762627E-01 -0.22711834510E-01  0.10286874453E+00  0.51100000000E-03 0.  1.
         11    1    4    4    0    0 -0.87532442176E-02  0.22632126436E-01 -0.65263440251E-02  0.25133378576E-01  0.51100000000E-03 0. -1.
</event>
<event>
 8    1  0.1115874E+005  0.1043930E+01  0.7957747E-01            NaN
         13   -1    0    0    0    0  0.00000000000E+00  0.00000000000E+00  0.74505805969E-08  0.10566000000E+00  0.10566000000E+00 0. -1.
     999900   -1    0    0    0    0 -0.00000000000E+00 -0.00000000000E+00 -0.74505805969E-08  0.93827000000E+00  0.93827000000E+00 0.  1.
     999902    2    1    2    0    0 -0.17091916867E-01  0.14636453167E-01 -0.10034082219E-01  0.10192917738E+01  0.10189939538E+01 0.  0.
     999903    2    3    3    0    0  0.36597301283E-01 -0.57924160143E-01  0.10448322857E+00  0.12729301304E+00  0.24335063766E-01 0.  0.
         14    1    1    2    0    0  0.17091916867E-01 -0.14636453167E-01  0.10034082219E-01  0.24638226183E-01  0.00000000000E+00 0.  1.
     999901    1    3    3    0    0 -0.53689218150E-01  0.72560613310E-01 -0.11451731079E+00  0.89199876077E+00  0.88000000000E+00 0.  1.
        -11    1    4    4    0    0  0.32301558692E-01 -0.28920355526E-01  0.63994513875E-01  0.77300301324E-01  0.51100000000E-03 0. -1.
         11    1    4    4    0    0  0.42957425908E-02 -0.29003804617E-01  0.40488714693E-01  0.49992711720E-01  0.51100000000E-03 0.  1.
</event>
<event>
 8    1  0.1115874E+005  0.1043930E+01  0.7957747E-01            NaN
         13   -1    0    0    0    0  0.00000000000E+00  0.00000000000E+00  0.74505805969E-08  0.10566000000E+00  0.10566000000E+00 0.  1.
     999900   -1    0    0    0    0 -0.00000000000E+00 -0.00000000000E+00 -0.74505805969E-08  0.93827000000E+00  0.93827000000E+00 0.  1.
     999902    2    1    2    0    0  0.15146392973E-01 -0.15012962582E-01  0.92231447472E-02  0.10206949260E+01  0.10204304304E+01 0.  0.
     999903    2    3    3    0    0  0.22964331021E-01  0.11143331669E-01 -0.12580079630E+00  0.12997794706E+00  0.20417934097E-01 0.  0.
         14    1    1    2    0    0 -0.15146392973E-01  0.15012962582E-01 -0.92231447472E-02  0.23235074018E-01  0.00000000000E+00 0. -1.
     999901    1    3    3    0    0 -0.78179380480E-02 -0.26156294250E-01  0.13502394105E+00  0.89071697892E+00  0.88000000000E+00 0. -1.
        -11    1    4    4    0    0  0.13461714511E-02  0.10965090622E-01 -0.43350486377E-01  0.44738922428E-01  0.51100000000E-03 0. -1.
         11    1    4    4    0    0  0.21618159570E-01  0.17824104637E-03 -0.82450309922E-01  0.85239024632E-01  0.51100000000E-03 0.  1.
</event>
<event>
 8    1  0.1115874E+005  0.1043930E+01  0.7957747E-01            NaN
         13   -1    0    0    0    0  0.00000000000E+00  0.00000000000E+00  0.74505805969E-08  0.10566000000E+00  0.10566000000E+00 0. -1.
     999900   -1    0    0    0    0 -0.00000000000E+00 -0.00000000000E+00 -0.74505805969E-08  0.93827000000E+00  0.93827000000E+00 0. -1.
     999902    2    1    2    0    0 -0.61160763534E-02 -0.19964962561E-01 -0.10111133425E-01  0.10207299754E+01  0.10204662864E+01 0.  0.
     999903    2    3    3    0    0 -0.88372001276E-01 -0.14524693988E-01 -0.95920783690E-01  0.13272156908E+00  0.19840383313E-01 0.  0.
         14    1    1    2    0    0  0.61160763534E-02  0.19964962561E-01  0.10111133425E-01  0.23200024551E-01  0.00000000000E+00 0.  1.
     999901    1    3    3    0    0  0.82255924922E-01 -0.54402685732E-02  0.85809650265E-01  0.88800840637E+00  0.88000000000E+00 0.  1.
        -11    1    4    4    0    0 -0.25262500489E-01 -0.40240373030E-02 -0.15346977954E-01  0.29835845229E-01  0.51100000000E-03 0.  1.
         11    1    4    4    0    0 -0.63109500786E-01 -0.10500656685E-01 -0.80573805736E-01  0.10288572385E+00  0.51100000000E-03 0. -1.
</event>
<event>
 8    1  0.1115874E+005  0.1043930E+01  0.7957747E-01            NaN
         13   -1    0    0    0    0  0.00000000000E+00  0.00000000000E+00  0.74505805969E-08  0.10566000000E+00  0.10566000000E+00 0. -1.
     999900   -1    0    0    0    0 -0.00000000000E+00 -0.00000000000E+00 -0.74505805969E-08  0.93827000000E+00  0.93827000000E+00 0.  1.
     999902    2    1    2    0    0 -0.15264441792E-01  0.39798768657E-02  0.15106185584E-01  0.10220887673E+01  0.10218553757E+01 0.  0.
     999903    2    3    3    0    0  0.41829392083E-01  0.70398680404E-01 -0.99469668430E-01  0.13034957356E+00  0.19776858807E-01 0.  0.
         14    1    1    2    0    0  0.15264441792E-01 -0.39798768657E-02 -0.15106185584E-01  0.21841232703E-01  0.00000000000E+00 0.  1.
     999901    1    3    3    0    0 -0.57093833875E-01 -0.66418803538E-01  0.11457585401E+00  0.89173919374E+00  0.88000000000E+00 0. -1.
        -11    1    4    4    0    0  0.15140901262E-01  0.18338294236E-01 -0.17006554809E-01  0.29240792636E-01  0.51100000000E-03 0.  1.
         11    1    4    4    0    0  0.26688490821E-01  0.52060386167E-01 -0.82463113621E-01  0.10110878092E+00  0.51100000000E-03 0. -1.
</event>
<event>
 8    1  0.1115874E+005  0.1043930E+01  0.7957747E-01            NaN
         13   -1    0    0    0    0  0.00000000000E+00  0.00000000000E+00  0.74505805969E-08  0.10566000000E+00  0.10566000000E+00 0.  1.
     999900   -1    0    0    0    0 -0.00000000000E+00 -0.00000000000E+00 -0.74505805969E-08  0.93827000000E+00  0.93827000000E+00 0. -1.
     999902    2    1    2    0    0  0.12753003895E-02  0.22187539542E-01  0.90757345039E-02  0.10199241203E+01  0.10196415689E+01 0.  0.
     999903    2    3    3    0    0 -0.45017250387E-03 -0.10127596761E+00  0.77026584624E-01  0.12870948126E+00  0.19391017434E-01 0.  0.
         14    1    1    2    0    0 -0.12753003895E-02 -0.22187539542E-01 -0.90757345039E-02  0.24005879672E-01  0.00000000000E+00 0. -1.
     999901    1    3    3    0    0  0.17254728933E-02  0.12346350715E+00 -0.67950850120E-01  0.89121463907E+00  0.88000000000E+00 0.  1.
        -11    1    4    4    0    0 -0.74884603047E-02 -0.80955979804E-01  0.64795912047E-01  0.10396498950E+00  0.51100000000E-03 0. -1.
         11    1    4    4    0    0  0.70382878009E-02 -0.20319987806E-01  0.12230672577E-01  0.24744491757E-01  0.51100000000E-03 0.  1.
</event>
<event>
 8    1  0.1115874E+005  0.1043930E+01  0.7957747E-01            NaN
         13   -1    0    0    0    0  0.00000000000E+00  0.00000000000E+00  0.74505805969E-08  0.10566000000E+00  0.10566000000E+00 0.  1.
     999900   -1    0    0    0    0 -0.00000000000E+00 -0.00000000000E+00 -0.74505805969E-08  0.93827000000E+00  0.93827000000E+00 0. -1.
     999902    2    1    2    0    0  0.18024882843E-01  0.12500549699E-01 -0.74873429485E-02  0.10207519835E+01  0.10204888002E+01 0.  0.
     999903    2    3    3    0    0 -0.98764211176E-01 -0.48449478732E-01  0.62393730665E-01  0.12820620714E+00  0.21026947605E-01 0.  0.
         14    1    1    2    0    0 -0.18024882843E-01 -0.12500549699E-01  0.74873429485E-02  0.23178016496E-01  0.00000000000E+00 0.  1.
     999901    1    3    3    0    0  0.11678909402E+00  0.60950028431E-01 -0.69881073614E-01  0.89254577636E+00  0.88000000000E+00 0. -1.
        -11    1    4    4    0    0 -0.68549937298E-01 -0.32639174269E-01  0.31538746816E-01  0.82215346939E-01  0.51100000000E-03 0.  1.
         11    1    4    4    0    0 -0.30214273877E-01 -0.15810304463E-01  0.30854983849E-01  0.45990860206E-01  0.51100000000E-03 0. -1.
</event>
<event>
 8    1  0.1115874E+005  0.1043930E+01  0.7957747E-01            NaN
         13   -1    0    0    0    0  0.00000000000E+00  0.00000000000E+00  0.74505805969E-08  0.10566000000E+00  0.10566000000E+00 0.  1.
     999900   -1    0    0    0    0 -0.00000000000E+00 -0.00000000000E+00 -0.74505805969E-08  0.93827000000E+00  0.93827000000E+00 0. -1.
     999902    2    1    2    0    0  0.12120746962E-01 -0.97428296422E-02 -0.16404104008E-01  0.10213262422E+01  0.10210760810E+01 0.  0.
     999903    2    3    3    0    0 -0.11001020611E+00 -0.67201867605E-01 -0.12603858047E-01  0.13102744262E+00  0.19773644661E-01 0.  0.
         14    1    1    2    0    0 -0.12120746962E-01  0.97428296422E-02  0.16404104008E-01  0.22603757755E-01  0.00000000000E+00 0.  1.
     999901    1    3    3    0    0  0.12213095308E+00  0.57459037963E-01 -0.38002459611E-02  0.89029879962E+00  0.88000000000E+00 0.  1.
        -11    1    4    4    0    0 -0.33580133636E-01 -0.18157774032E-01  0.50584115808E-02  0.38512060208E-01  0.51100000000E-03 0.  1.
         11    1    4    4    0    0 -0.76430072478E-01 -0.49044093573E-01 -0.17662269628E-01  0.92515382412E-01  0.51100000000E-03 0. -1.
</event>
<event>
 8    1  0.1115874E+005  0.1043930E+01  0.7957747E-01            NaN
         13   -1    0    0    0    0  0.00000000000E+00  0.00000000000E+00  0.74505805969E-08  0.10566000000E+00  0.10566000000E+00 0.  1.
     999900   -1    0    0    0    0 -0.00000000000E+00 -0.00000000000E+00 -0.74505805969E-08  0.93827000000E+00  0.93827000000E+00 0.  1.
     999902    2    1    2    0    0  0.57594152486E-02 -0.23687809773E-01 -0.17298248199E-02  0.10194907797E+01  0.10191978092E+01 0.  0.
     999903    2    3    3    0    0 -0.43412731784E-01 -0.11839245902E+00 -0.35004970440E-01  0.13242026053E+00  0.20207370197E-01 0.  0.
         14    1    1    2    0    0 -0.57594152486E-02  0.23687809773E-01  0.17298248199E-02  0.24439220318E-01  0.00000000000E+00 0. -1.
     999901    1    3    3    0    0  0.49172147033E-01  0.94704649244E-01  0.33275145620E-01  0.88707051915E+00  0.88000000000E+00 0. -1.
        -11    1    4    4    0    0 -0.35362865607E-01 -0.67805023720E-01 -0.21733204112E-01  0.79502495481E-01  0.51100000000E-03 0. -1.
         11    1    4    4    0    0 -0.80498661769E-02 -0.50587435296E-01 -0.13271766328E-01  0.52917765049E-01  0.51100000000E-03 0.  1.
</event>
<event>
 8    1  0.1115874E+005  0.1043930E+01  0.7957747E-01            NaN
         13   -1    0    0    0    0  0.00000000000E+00  0.00000000000E+00  0.74505805969E-08  0.10566000000E+00  0.10566000000E+00 0. -1.
     999900   -1    0    0    0    0 -0.00000000000E+00 -0.00000000000E+00 -0.74505805969E-08  0.93827000000E+00  0.93827000000E+00 0.  1.
     999902    2    1    2    0    0 -0.15899154863E-01 -0.15848550737E-01 -0.70129886515E-02  0.10204110354E+01  0.10201399607E+01 0.  0.
     999903    2    3    3    0    0 -0.61356361064E-01 -0.25830256139E-01 -0.11291223120E+00  0.13284095839E+00  0.21581081936E-01 0.  0.
         14    1    1    2    0    0  0.15899154863E-01  0.15848550737E-01  0.70129886515E-02  0.23518964596E-01  0.00000000000E+00 0. -1.
     999901    1    3    3    0    0  0.45457206202E-01  0.99817054019E-02  0.10589924254E+00  0.88757007701E+00  0.88000000000E+00 0. -1.
        -11    1    4    4    0    0 -0.17661067644E-01 -0.66261844133E-02 -0.52876278728E-01  0.56142511552E-01  0.51100000000E-03 0. -1.
         11    1    4    4    0    0 -0.43695293420E-01 -0.19204071726E-01 -0.60035952467E-01  0.76698446839E-01  0.51100000000E-03 0.  1.
</event>
<event>
 8    1  0.1115874E+005  0.1043930E+01  0.7957747E-01            NaN
         13   -1    0    0    0    0  0.00000000000E+00  0.00000000000E+00  0.74505805969E-08  0.10566000000E+00  0.10566000000E+00 0. -1.
     999900   -1    0    0    0    0 -0.00000000000E+00 -0.00000000000E+00 -0.74505805969E-08  0.93827000000E+00  0.93827000000E+00 0.  1.
     999902    2    1    2    0    0 -0.40993133400E-02 -0.25493752276E-01 -0.20415887846E-03  0.10181079657E+01  0.10177804539E+01 0.  0.
     999903    2    3    3    0    0  0.77497766885E-02  0.12718267194E-01 -0.12573138456E+00  0.12830032145E+00  0.20755193589E-01 0.  0.
         14    1    1    2    0    0  0.40993133400E-02  0.25493752276E-01  0.20415887846E-03  0.25822034308E-01  0.00000000000E+00 0. -1.
     999901    1    3    3    0    0 -0.11849090029E-01 -0.38212019470E-01  0.12552722568E+00  0.88980764424E+00  0.88000000000E+00 0. -1.
        -11    1    4    4    0    0 -0.33604290613E-02  0.13106116928E-01 -0.52000902783E-01  0.53734698246E-01  0.51100000000E-03 0. -1.
         11    1    4    4    0    0  0.11110205750E-01 -0.38784973388E-03 -0.73730481779E-01  0.74565623202E-01  0.51100000000E-03 0.  1.
</event>
<event>
 8    1  0.1115874E+005  0.1043930E+01  0.7957747E-01            NaN
         13   -1    0    0    0    0  0.00000000000E+00  0.00000000000E+00  0.74505805969E-08  0.10566000000E+00  0.10566000000E+00 0.  1.
     999900   -1    0    0    0    0 -0.00000000000E+00 -0.00000000000E+00 -0.74505805969E-08  0.93827000000E+00  0.93827000000E+00 0. -1.
     999902    2    1    2    0    0 -0.14328239406E-01  0.17641187316E-01 -0.68796317533E-02  0.10201847001E+01  0.10199083209E+01 0.  0.
     999903    2    3    3    0    0 -0.12546520225E+00  0.22054286641E-01 -0.31924599376E-01  0.13283012026E+00  0.19918641233E-01 0.  0.
         14    1    1    2    0    0  0.14328239406E-01 -0.17641187316E-01  0.68796317533E-02  0.23745299902E-01  0.00000000000E+00 0.  1.
     999901    1    3    3    0    0  0.11113696284E+00 -0.44130993258E-02  0.25044967623E-01  0.88735457984E+00  0.88000000000E+00 0.  1.
        -11    1    4    4    0    0 -0.57263226414E-01  0.20007303646E-01 -0.13330813592E-01  0.62107495607E-01  0.51100000000E-03 0. -1.
         11    1    4    4    0    0 -0.68201975834E-01  0.20469829951E-02 -0.18593785784E-01  0.70722624653E-01  0.51100000000E-03 0.  1.
</event>
<event>
 8    1  0.1115874E+005  0.1043930E+01  0.7957747E-01            NaN
         13   -1    0    0    0    0  0.00000000000E+00  0.00000000000E+00  0.74505805969E-08  0.10566000000E+00  0.10566000000E+00 0.  1.
     999900   -1    0    0    0    0 -0.00000000000E+00 -0.00000000000E+00 -0.74505805969E-08  0.93827000000E+00  0.93827000000E+00 0. -1.
     999902    2    1    2    0    0  0.31318403582E-02  0.16622252328E-01  0.17713913739E-01  0.10194373391E+01  0.10191430704E+01 0.  0.
     999903    2    3    3    0    0 -0.59348157215E-01 -0.10935830004E+00  0.23636154521E-01  0.12825277766E+00  0.20215479779E-01 0.  0.
         14    1    1    2    0    0 -0.31318403582E-02 -0.16622252328E-01 -0.17713913739E-01  0.24492660869E-01  0.00000000000E+00 0. -1.
     999901    1    3    3    0    0  0.62479997573E-01  0.12598055237E+00 -0.59222407813E-02  0.89118456147E+00  0.88000000000E+00 0. -1.
        -11    1    4    4    0    0 -0.29609695024E-01 -0.62080704412E-01  0.22558567854E-01  0.72387139771E-01  0.51100000000E-03 0. -1.
         11    1    4    4    0    0 -0.29738462192E-01 -0.47277595633E-01  0.10775866672E-02  0.55865637886E-01  0.51100000000E-03 0.  1.
</event>
<event>
 8    1  0.1115874E+005  0.1043930E+01  0.7957747E-01            NaN
         13   -1    0    0    0    0  0.00000000000E+00  0.00000000000E+00  0.74505805969E-08  0.10566000000E+00  0.10566000000E+00 0.  1.
     999900   -1    0    0    0    0 -0.00000000000E+00 -0.00000000000E+00 -0.74505805969E-08  0.93827000000E+00  0.93827000000E+00 0.  1.
     999902    2    1    2    0    0 -0.19360917586E-03 -0.19936981318E-01 -0.13274161982E-01  0.10199774618E+01  0.10196961795E+01 0.  0.
     999903    2    3    3    0    0 -0.47907148359E-01  0.10834692523E+00  0.43188126698E-01  0.12760907795E+00  0.19614061737E-01 0.  0.
         14    1    1    2    0    0  0.19360917586E-03  0.19936981318E-01  0.13274161982E-01  0.23952538173E-01  0.00000000000E+00 0. -1.
     999901    1    3    3    0    0  0.47713539183E-01 -0.12828390654E+00 -0.56462288681E-01  0.89236838388E+00  0.88000000000E+00 0. -1.
        -11    1    4    4    0    0 -0.26279676133E-01  0.36055154447E-01  0.16169281502E-01  0.47458427335E-01  0.51100000000E-03 0.  1.
         11    1    4    4    0    0 -0.21627472226E-01  0.72291770779E-01  0.27018845197E-01  0.80150650615E-01  0.51100000000E-03 0. -1.
</event>
<event>
 8    1  0.1115874E+005  0.1043930E+01  0.7957747E-01            NaN
         13   -1    0    0    0    0  0.00000000000E+00  0.00000000000E+00  0.74505805969E-08  0.10566000000E+00  0.10566000000E+00 0.  1.
     999900   -1    0    0    0    0 -0.00000000000E+00 -0.00000000000E+00 -0.74505805969E-08  0.93827000000E+00  0.93827000000E+00 0. -1.
     999902    2    1    2    0    0  0.49979327083E-02 -0.24787671482E-01  0.12050047451E-02  0.10186147867E+01  0.10183001638E+01 0.  0.
     999903    2    3    3    0    0  0.12597499956E+00 -0.21621333728E-01 -0.14709123861E-01  0.13018992442E+00  0.19896620521E-01 0.  0.
         14    1    1    2    0    0 -0.49979327083E-02  0.24787671482E-01 -0.12050047451E-02  0.25315213317E-01  0.00000000000E+00 0. -1.
     999901    1    3    3    0    0 -0.12097706686E+00 -0.31663377547E-02  0.15914128606E-01  0.88842486226E+00  0.88000000000E+00 0.  1.
        -11    1    4    4    0    0  0.65804517246E-01 -0.49926660980E-02  0.24379564819E-03  0.65996073838E-01  0.51100000000E-03 0. -1.
         11    1    4    4    0    0  0.60170482317E-01 -0.16628667630E-01 -0.14952919510E-01  0.64193850580E-01  0.51100000000E-03 0.  1.
</event>
<event>
 8    1  0.1115874E+005  0.1043930E+01  0.7957747E-01            NaN
         13   -1    0    0    0    0  0.00000000000E+00  0.00000000000E+00  0.74505805969E-08  0.10566000000E+00  0.10566000000E+00 0.  1.
     999900   -1    0    0    0    0 -0.00000000000E+00 -0.00000000000E+00 -0.74505805969E-08  0.93827000000E+00  0.93827000000E+00 0.  1.
     999902    2    1    2    0    0 -0.95611292768E-02 -0.22483014855E-01 -0.11766980532E-02  0.10194701192E+01  0.10191766472E+01 0.  0.
     999903    2    3    3    0    0  0.12325386383E+00  0.21309162395E-01 -0.22092922882E-01  0.12818168910E+00  0.17229417495E-01 0.  0.
         14    1    1    2    0    0  0.95611292768E-02  0.22483014855E-01  0.11766980532E-02  0.24459880791E-01  0.00000000000E+00 0. -1.
     999901    1    3    3    0    0 -0.13281499311E+00 -0.43792177249E-01  0.20916224829E-01  0.89128843011E+00  0.88000000000E+00 0. -1.
        -11    1    4    4    0    0  0.86862226586E-01  0.22793904832E-01 -0.17048922465E-01  0.91408617663E-01  0.51100000000E-03 0. -1.
         11    1    4    4    0    0  0.36391637249E-01 -0.14847424372E-02 -0.50440004170E-02  0.36773071437E-01  0.51100000000E-03 0.  1.
</event>
<event>
 8    1  0.1115874E+005  0.1043930E+01  0.7957747E-01            NaN
         13   -1    0    0    0    0  0.00000000000E+00  0.00000000000E+00  0.74505805969E-08  0.10566000000E+00  0.10566000000E+00 0.  1.
     999900   -1    0    0    0    0 -0.00000000000E+00 -0.00000000000E+00 -0.74505805969E-08  0.93827000000E+00  0.93827000000E+00 0.  1.
     999902    2    1    2    0    0  0.55481083628E-02  0.18870247625E-01 -0.16000320011E-01  0.10185749612E+01  0.10182593351E+01 0.  0.
     999903    2    3    3    0    0 -0.17236897445E-02 -0.97932655980E-02 -0.12897009220E+00  0.13086067977E+00  0.19807919357E-01 0.  0.
         14    1    1    2    0    0 -0.55481083628E-02 -0.18870247625E-01  0.16000320011E-01  0.25355038795E-01  0.00000000000E+00 0. -1.
     999901    1    3    3    0    0  0.72717981073E-02  0.28663513223E-01  0.11296977219E+00  0.88771428144E+00  0.88000000000E+00 0. -1.
        -11    1    4    4    0    0 -0.65204169601E-02 -0.14028659274E-01 -0.99750015741E-01  0.10094377583E+00  0.51100000000E-03 0.  1.
         11    1    4    4    0    0  0.47967272155E-02  0.42353936757E-02 -0.29220076461E-01  0.29916903934E-01  0.51100000000E-03 0. -1.
</event>
<event>
 8    1  0.1115874E+005  0.1043930E+01  0.7957747E-01            NaN
         13   -1    0    0    0    0  0.00000000000E+00  0.00000000000E+00  0.74505805969E-08  0.10566000000E+00  0.10566000000E+00 0.  1.
     999900   -1    0    0    0    0 -0.00000000000E+00 -0.00000000000E+00 -0.74505805969E-08  0.93827000000E+00  0.93827000000E+00 0.  1.
     999902    2    1    2    0    0  0.20567357494E-01 -0.94625661584E-02 -0.84075441483E-02  0.10197795724E+01  0.10194935670E+01 0.  0.
     999903    2    3    3    0    0 -0.27465013176E-01  0.77430768121E-01  0.96412092089E-01  0.12801462790E+00  0.18509528761E-01 0.  0.
         14    1    1    2    0    0 -0.20567357494E-01  0.94625661584E-02  0.84075441483E-02  0.24150427557E-01  0.00000000000E+00 0.  1.
     999901    1    3    3    0    0  0.48032370670E-01 -0.86893334279E-01 -0.10481963624E+00  0.89176494454E+00  0.88000000000E+00 0.  1.
        -11    1    4    4    0    0 -0.18111363646E-01  0.37584500632E-01  0.60913893850E-01  0.73833459664E-01  0.51100000000E-03 0.  1.
         11    1    4    4    0    0 -0.93536495302E-02  0.39846267489E-01  0.35498198238E-01  0.54181168236E-01  0.51100000000E-03 0. -1.
</event>
<event>
 8    1  0.1115874E+005  0.1043930E+01  0.7957747E-01            NaN
         13   -1    0    0    0    0  0.00000000000E+00  0.00000000000E+00  0.74505805969E-08  0.10566000000E+00  0.10566000000E+00 0. -1.
     999900   -1    0    0    0    0 -0.00000000000E+00 -0.00000000000E+00 -0.74505805969E-08  0.93827000000E+00  0.93827000000E+00 0. -1.
     999902    2    1    2    0    0 -0.18099147146E-01  0.65684419451E-02  0.12335009735E-01  0.10210635175E+01  0.10208074406E+01 0.  0.
     999903    2    3    3    0    0 -0.66265939839E-02  0.12775738196E+00 -0.24901119267E-01  0.13190385356E+00  0.20315030174E-01 0.  0.
         14    1    1    2    0    0  0.18099147146E-01 -0.65684419451E-02 -0.12335009735E-01  0.22866482505E-01  0.00000000000E+00 0. -1.
     999901    1    3    3    0    0 -0.11472553162E-01 -0.12118894002E+00  0.37236129002E-01  0.88915966393E+00  0.88000000000E+00 0. -1.
        -11    1    4    4    0    0 -0.34137653564E-02  0.53406505439E-01 -0.20639558610E-01  0.57359926061E-01  0.51100000000E-03 0. -1.
         11    1    4    4    0    0 -0.32128286275E-02  0.74350876522E-01 -0.42615606573E-02  0.74543927503E-01  0.51100000000E-03 0.  1.
</event>
<event>
 8    1  0.1115874E+005  0.1043930E+01  0.7957747E-01            NaN
         13   -1    0    0    0    0  0.00000000000E+00  0.00000000000E+00  0.74505805969E-08  0.10566000000E+00  0.10566000000E+00 0. -1.
     999900   -1    0    0    0    0 -0.00000000000E+00 -0.00000000000E+00 -0.74505805969E-08  0.93827000000E+00  0.93827000000E+00 0. -1.
     999902    2    1    2    0    0  0.67237211249E-03  0.14390611995E-02 -0.23760277457E-01  0.10201166893E+01  0.10198387059E+01 0.  0.
     999903    2    3    3    0    0  0.25874029086E-01  0.11525776868E+00  0.49060849664E-01  0.12944686370E+00  0.19892333479E-01 0.  0.
         14    1    1    2    0    0 -0.67237211249E-03 -0.14390611995E-02  0.23760277457E-01  0.23813310695E-01  0.00000000000E+00 0. -1.
     999901    1    3    3    0    0 -0.25201656974E-01 -0.11381870748E+00 -0.72821127121E-01  0.89066982560E+00  0.88000000000E+00 0. -1.
        -11    1    4    4    0    0  0.21199256527E-01  0.54526640893E-01  0.29132356884E-01  0.65356854140E-01  0.51100000000E-03 0.  1.
         11    1    4    4    0    0  0.46747725593E-02  0.60731127782E-01  0.19928492779E-01  0.64090009562E-01  0.51100000000E-03 0. -1.
</event>
<event>
 8    1  0.1115874E+005  0.1043930E+01  0.7957747E-01            NaN
         13   -1    0    0    0    0  0.00000000000E+00  0.00000000000E+00  0.74505805969E-08  0.10566000000E+00  0.10566000000E+00 0.  1.
     999900   -1    0    0    0    0 -0.00000000000E+00 -0.00000000000E+00 -0.74505805969E-08  0.93827000000E+00  0.93827000000E+00 0. -1.
     999902    2    1    2    0    0 -0.16048465524E-02  0.23682387903E-01 -0.30177928723E-02  0.10200022315E+01  0.10197215376E+01 0.  0.
     999903    2    3    3    0    0 -0.65538880851E-01  0.44905204047E-01 -0.10314940826E+00  0.13176560257E+00  0.20262066564E-01 0.  0.
         14    1    1    2    0    0  0.16048465524E-02 -0.23682387903E-01  0.30177928723E-02  0.23927768452E-01  0.00000000000E+00 0. -1.
     999901    1    3    3    0    0  0.63934034299E-01 -0.21222816144E-01  0.10013161539E+00  0.88823662898E+00  0.88000000000E+00 0.  1.
        -11    1    4    4    0    0 -0.36204570042E-01  0.34639046588E-01 -0.72346361405E-01  0.88005065592E-01  0.51100000000E-03 0. -1.
         11    1    4    4    0    0 -0.29334310809E-01  0.10266157459E-01 -0.30803046855E-01  0.43760536973E-01  0.51100000000E-03 0.  1.
</event>
<event>
 8    1  0.1115874E+005  0.1043930E+01  0.7957747E-01            NaN
         13   -1    0    0    0    0  0.00000000000E+00  0.00000000000E+00  0.74505805969E-08  0.10566000000E+00  0.10566000000E+00 0.  1.
     999900   -1    0    0    0    0 -0.00000000000E+00 -0.00000000000E+00 -0.74505805969E-08  0.93827000000E+00  0.93827000000E+00 0.  1.
     999902    2    1    2    0    0  0.20067319812E-02  0.21075880914E-01 -0.11264037131E-01  0.10199487936E+01  0.10196668295E+01 0.  0.
     999903    2    3    3    0    0  0.37749036311E-01  0.95651444129E-01  0.78152571527E-01  0.13156016416E+00  0.25021267994E-01 0.  0.
         14    1    1    2    0    0 -0.20067319812E-02 -0.21075880914E-01  0.11264037131E-01  0.23981206435E-01  0.00000000000E+00 0. -1.
     999901    1    3    3    0    0 -0.35742304330E-01 -0.74575563214E-01 -0.89416608658E-01  0.88838862940E+00  0.88000000000E+00 0.  1.
        -11    1    4    4    0    0  0.17437351264E-01  0.70374940844E-01  0.61653446856E-01  0.95174062371E-01  0.51100000000E-03 0. -1.
         11    1    4    4    0    0  0.20311685047E-01  0.25276503285E-01  0.16499124671E-01  0.36386101792E-01  0.51100000000E-03 0.  1.
</event>
<event>
 8    1  0.1115874E+005  0.1043930E+01  0.7957747E-01            NaN
         13   -1    0    0    0    0  0.00000000000E+00  0.00000000000E+00  0.74505805969E-08  0.10566000000E+00  0.10566000000E+00 0. -1.
     999900   -1    0    0    0    0 -0.00000000000E+00 -0.00000000000E+00 -0.74505805969E-08  0.93827000000E+00  0.93827000000E+00 0. -1.
     999902    2    1    2    0    0  0.12606206939E-01  0.20835182208E-01  0.40094280707E-03  0.10195746715E+01  0.10192837332E+01 0.  0.
     999903    2    3    3    0    0  0.36139826214E-01  0.84822957532E-01 -0.91894568277E-01  0.13212510787E+00  0.22614404431E-01 0.  0.
         14    1    1    2    0    0 -0.12606206939E-01 -0.20835182208E-01 -0.40094280707E-03  0.24355328496E-01  0.00000000000E+00 0.  1.
     999901    1    3    3    0    0 -0.23533619275E-01 -0.63987775324E-01  0.92295511084E-01  0.88744956363E+00  0.88000000000E+00 0.  1.
        -11    1    4    4    0    0  0.26510675070E-01  0.44250715096E-01 -0.38471578302E-01  0.64352662239E-01  0.51100000000E-03 0.  1.
         11    1    4    4    0    0  0.96291511436E-02  0.40572242435E-01 -0.53422989975E-01  0.67772445631E-01  0.51100000000E-03 0. -1.
</event>
<event>
 8    1  0.1115874E+005  0.1043930E+01  0.7957747E-01            NaN
         13   -1    0    0    0    0  0.00000000000E+00  0.00000000000E+00  0.74505805969E-08  0.10566000000E+00  0.10566000000E+00 0.  1.
     999900   -1    0    0    0    0 -0.00000000000E+00 -0.00000000000E+00 -0.74505805969E-08  0.93827000000E+00  0.93827000000E+00 0.  1.
     999902    2    1    2    0    0 -0.18838128307E-01 -0.73095516769E-02  0.11205491157E-01  0.10208244237E+01  0.10205629017E+01 0.  0.
     999903    2    3    3    0    0 -0.97528038280E-01  0.86235749052E-01  0.13181304423E-01  0.13237255159E+00  0.20010571307E-01 0.  0.
         14    1    1    2    0    0  0.18838128307E-01  0.73095516769E-02 -0.11205491157E-01  0.23105576294E-01  0.00000000000E+00 0. -1.
     999901    1    3    3    0    0  0.78689909974E-01 -0.93545300729E-01 -0.19758132652E-02  0.88845187211E+00  0.88000000000E+00 0. -1.
        -11    1    4    4    0    0 -0.60028794117E-01  0.39992689109E-01  0.55364489256E-02  0.72344900947E-01  0.51100000000E-03 0. -1.
         11    1    4    4    0    0 -0.37499244163E-01  0.46243059943E-01  0.76448554969E-02  0.60027650647E-01  0.51100000000E-03 0.  1.
</event>
<event>
 8    1  0.1115874E+005  0.1043930E+01  0.7957747E-01            NaN
         13   -1    0    0    0    0  0.00000000000E+00  0.00000000000E+00  0.74505805969E-08  0.10566000000E+00  0.10566000000E+00 0.  1.
     999900   -1    0    0    0    0 -0.00000000000E+00 -0.00000000000E+00 -0.74505805969E-08  0.93827000000E+00  0.93827000000E+00 0. -1.
     999902    2    1    2    0    0 -0.20020230526E-01  0.48922311520E-02  0.12067742906E-01  0.10200474965E+01  0.10197678761E+01 0.  0.
     999903    2    3    3    0    0  0.37285307959E-01  0.28511614228E-01 -0.11775003339E+00  0.12836680528E+00  0.20244999395E-01 0.  0.
         14    1    1    2    0    0  0.20020230526E-01 -0.48922311520E-02 -0.12067742906E-01  0.23882503528E-01  0.00000000000E+00 0.  1.
     999901    1    3    3    0    0 -0.57305538484E-01 -0.23619383076E-01  0.12981777629E+00  0.89168069119E+00  0.88000000000E+00 0.  1.
        -11    1    4    4    0    0  0.14339259997E-01  0.11370082681E-01 -0.23088806715E-01  0.29466035939E-01  0.51100000000E-03 0.  1.
         11    1    4    4    0    0  0.22946047962E-01  0.17141531547E-01 -0.94661226671E-01  0.98900769343E-01  0.51100000000E-03 0. -1.
</event>
<event>
 8    1  0.1115874E+005  0.1043930E+01  0.7957747E-01            NaN
         13   -1    0    0    0    0  0.00000000000E+00  0.00000000000E+00  0.74505805969E-08  0.10566000000E+00  0.10566000000E+00 0.  1.
     999900   -1    0    0    0    0 -0.00000000000E+00 -0.00000000000E+00 -0.74505805969E-08  0.93827000000E+00  0.93827000000E+00 0. -1.
     999902    2    1    2    0    0 -0.22240651712E-01  0.60038388743E-02 -0.50786150376E-02  0.10203400657E+01  0.10200673334E+01 0.  0.
     999903    2    3    3    0    0 -0.96051596980E-01  0.88826786504E-01 -0.14776739641E-01  0.13332160483E+00  0.20980729180E-01 0.  0.
         14    1    1    2    0    0  0.22240651712E-01 -0.60038388743E-02  0.50786150376E-02  0.23589934305E-01  0.00000000000E+00 0.  1.
     999901    1    3    3    0    0  0.73810945268E-01 -0.82822947630E-01  0.96981246038E-02  0.88701846087E+00  0.88000000000E+00 0. -1.
        -11    1    4    4    0    0 -0.44621063931E-01  0.53328272446E-01 -0.13384387340E-01  0.70812053592E-01  0.51100000000E-03 0. -1.
         11    1    4    4    0    0 -0.51430533049E-01  0.35498514057E-01 -0.13923523012E-02  0.62509551238E-01  0.51100000000E-03 0.  1.
</event>
<event>
 8    1  0.1115874E+005  0.1043930E+01  0.7957747E-01            NaN
         13   -1    0    0    0    0  0.00000000000E+00  0.00000000000E+00  0.74505805969E-08  0.10566000000E+00  0.10566000000E+00 0.  1.
     999900   -1    0    0    0    0 -0.00000000000E+00 -0.00000000000E+00 -0.74505805969E-08  0.93827000000E+00  0.93827000000E+00 0. -1.
     999902    2    1    2    0    0 -0.92937395035E-02 -0.20403709250E-01 -0.80655333085E-03  0.10214948607E+01  0.10212484590E+01 0.  0.
     999903    2    3    3    0    0 -0.10045635070E+00  0.65784209395E-01  0.48213106010E-01  0.13124663356E+00  0.21957564261E-01 0.  0.
         14    1    1    2    0    0  0.92937395035E-02  0.20403709250E-01  0.80655333085E-03  0.22435139255E-01  0.00000000000E+00 0. -1.
     999901    1    3    3    0    0  0.91162611198E-01 -0.86187918644E-01 -0.49019659340E-01  0.89024822718E+00  0.88000000000E+00 0. -1.
        -11    1    4    4    0    0 -0.24945349412E-01  0.11762505396E-01  0.20449963347E-01  0.34337867033E-01  0.51100000000E-03 0.  1.
         11    1    4    4    0    0 -0.75511001290E-01  0.54021703999E-01  0.27763142663E-01  0.96908766529E-01  0.51100000000E-03 0. -1.
</event>
<event>
 7    1  0.1115874E+005  0.1043930E+01  0.7957747E-01            NaN
         13   -1    0    0    0    0  0.00000000000E+00  0.00000000000E+00  0.74505805969E-08  0.10566000000E+00  0.10566000000E+00 0. -1.
     999900   -1    0    0    0    0 -0.00000000000E+00 -0.00000000000E+00 -0.74505805969E-08  0.93827000000E+00  0.93827000000E+00 0.  1.
     999903    2    1    2    0    0  0.89783287841E-01 -0.22309067072E-01 -0.11587448745E-01  0.96112947477E-01  0.23338732938E-01 0.  0.
         14    1    1    2    0    0  0.22090925951E-01  0.49402453098E-01  0.26365514262E-01  0.60197605632E-01  0.00000000000E+00 0. -1.
     999901    1    1    2    0    0 -0.11187421379E+00 -0.27093386027E-01 -0.14778065517E-01  0.88761944689E+00  0.88000000000E+00 0. -1.
        -11    1    3    3    0    0  0.40073705546E-01  0.89356760630E-03 -0.95803134751E-02  0.41215820585E-01  0.51100000000E-03 0. -1.
         11    1    3    3    0    0  0.49709582295E-01 -0.23202634678E-01 -0.20071352698E-02  0.54897126892E-01  0.51100000000E-03 0.  1.
</event>
<event>
 8    1  0.1115874E+005  0.1043930E+01  0.7957747E-01            NaN
         13   -1    0    0    0    0  0.00000000000E+00  0.00000000000E+00  0.74505805969E-08  0.10566000000E+00  0.10566000000E+00 0. -1.
     999900   -1    0    0    0    0 -0.00000000000E+00 -0.00000000000E+00 -0.74505805969E-08  0.93827000000E+00  0.93827000000E+00 0. -1.
     999902    2    1    2    0    0 -0.60908938932E-02 -0.30673537526E-02  0.22196850651E-01  0.10207091510E+01  0.10204449829E+01 0.  0.
     999903    2    3    3    0    0  0.99874304002E-01  0.24310832717E-01 -0.74475644223E-01  0.12867565418E+00  0.21092871052E-01 0.  0.
         14    1    1    2    0    0  0.60908938932E-02  0.30673537526E-02 -0.22196850651E-01  0.23220848957E-01  0.00000000000E+00 0.  1.
     999901    1    3    3    0    0 -0.10596519789E+00 -0.27378186469E-01  0.96672494874E-01  0.89203349686E+00  0.88000000000E+00 0.  1.
        -11    1    4    4    0    0  0.69520669198E-01  0.72952589627E-02 -0.53651895878E-01  0.88119982418E-01  0.51100000000E-03 0. -1.
         11    1    4    4    0    0  0.30353634803E-01  0.17015573754E-01 -0.20823748345E-01  0.40555671762E-01  0.51100000000E-03 0.  1.
</event>
<event>
 8    1  0.1115874E+005  0.1043930E+01  0.7957747E-01            NaN
         13   -1    0    0    0    0  0.00000000000E+00  0.00000000000E+00  0.74505805969E-08  0.10566000000E+00  0.10566000000E+00 0.  1.
     999900   -1    0    0    0    0 -0.00000000000E+00 -0.00000000000E+00 -0.74505805969E-08  0.93827000000E+00  0.93827000000E+00 0.  1.
     999902    2    1    2    0    0  0.16464800186E-01 -0.10824669010E-01  0.15440861367E-01  0.10188963566E+01  0.10185887797E+01 0.  0.
     999903    2    3    3    0    0 -0.10057241265E+00  0.13129898454E-02 -0.74358649031E-01  0.12653489167E+00  0.19113764551E-01 0.  0.
         14    1    1    2    0    0 -0.16464800186E-01  0.10824669010E-01 -0.15440861367E-01  0.25033643444E-01  0.00000000000E+00 0. -1.
     999901    1    3    3    0    0  0.11703721283E+00 -0.12137658856E-01  0.89799510398E-01  0.89236146489E+00  0.88000000000E+00 0. -1.
        -11    1    4    4    0    0 -0.18985483726E-01  0.21056359048E-02 -0.58191107405E-02  0.19975121168E-01  0.51100000000E-03 0. -1.
         11    1    4    4    0    0 -0.81586928922E-01 -0.79264605933E-03 -0.68539538290E-01  0.10655977050E+00  0.51100000000E-03 0.  1.
</event>
<event>
 7    1  0.1115874E+005  0.1043930E+01  0.7957747E-01            NaN
         13   -1    0    0    0    0  0.00000000000E+00  0.00000000000E+00  0.74505805969E-08  0.10566000000E+00  0.10566000000E+00 0.  1.
     999900   -1    0    0    0    0 -0.00000000000E+00 -0.00000000000E+00 -0.74505805969E-08  0.93827000000E+00  0.93827000000E+00 0. -1.
     999903    2    1    2    0    0  0.68300447638E-01  0.40429392609E-01  0.62393473045E-01  0.10293421534E+00  0.20075364897E-01 0.  0.
         14    1    1    2    0    0 -0.29053972003E-02 -0.40735158088E-02  0.50399493316E-01  0.50647248597E-01  0.00000000000E+00 0.  1.
     999901    1    1    2    0    0 -0.65395050438E-01 -0.36355876800E-01 -0.11279296636E+00  0.89034853606E+00  0.88000000000E+00 0.  1.
        -11    1    3    3    0    0  0.57132294664E-01  0.35679782782E-01  0.42567715980E-01  0.79683232601E-01  0.51100000000E-03 0. -1.
         11    1    3    3    0    0  0.11168152974E-01  0.47496098266E-02  0.19825757065E-01  0.23250982744E-01  0.51100000000E-03 0.  1.
</event>
<event>
 8    1  0.1115874E+005  0.1043930E+01  0.7957747E-01            NaN
         13   -1    0    0    0    0  0.00000000000E+00  0.00000000000E+00  0.74505805969E-08  0.10566000000E+00  0.10566000000E+00 0. -1.
     999900   -1    0    0    0    0 -0.00000000000E+00 -0.00000000000E+00 -0.74505805969E-08  0.93827000000E+00  0.93827000000E+00 0. -1.
     999902    2    1    2    0    0 -0.17868730394E-01 -0.16584275945E-01  0.41409246225E-02  0.10192019392E+01  0.10189019167E+01 0.  0.
     999903    2    3    3    0    0 -0.39859365295E-01  0.78980494705E-01  0.91880831481E-01  0.12941853596E+00  0.21917634704E-01 0.  0.
         14    1    1    2    0    0  0.17868730394E-01  0.16584275945E-01 -0.41409246225E-02  0.24728060806E-01  0.00000000000E+00 0.  1.
     999901    1    3    3    0    0  0.21990634901E-01 -0.95564770651E-01 -0.87739906858E-01  0.88978340323E+00  0.88000000000E+00 0. -1.
        -11    1    4    4    0    0 -0.22405703778E-01  0.64971026359E-01  0.67890565812E-01  0.96605589255E-01  0.51100000000E-03 0.  1.
         11    1    4    4    0    0 -0.17453661517E-01  0.14009468346E-01  0.23990265669E-01  0.32812946706E-01  0.51100000000E-03 0. -1.
</event>
<event>
 8    1  0.1115874E+005  0.1043930E+01  0.7957747E-01            NaN
         13   -1    0    0    0    0  0.00000000000E+00  0.00000000000E+00  0.74505805969E-08  0.10566000000E+00  0.10566000000E+00 0. -1.
     999900   -1    0    0    0    0 -0.00000000000E+00 -0.00000000000E+00 -0.74505805969E-08  0.93827000000E+00  0.93827000000E+00 0.  1.
     999902    2    1    2    0    0  0.12481507543E-01  0.20113808593E-01  0.47993060247E-03  0.10202533520E+01  0.10199785873E+01 0.  0.
     999903    2    3    3    0    0  0.13031797584E+00 -0.92126450055E-03  0.10216805069E-01  0.13209643216E+00  0.19012120535E-01 0.  0.
         14    1    1    2    0    0 -0.12481507543E-01 -0.20113808593E-01 -0.47993060247E-03  0.23676647990E-01  0.00000000000E+00 0. -1.
     999901    1    3    3    0    0 -0.11783646830E+00  0.21035073094E-01 -0.97368744670E-02  0.88815691985E+00  0.88000000000E+00 0. -1.
        -11    1    4    4    0    0  0.36548605941E-01  0.38485888723E-02 -0.46055590671E-02  0.37041659356E-01  0.51100000000E-03 0.  1.
         11    1    4    4    0    0  0.93769369899E-01 -0.47698533728E-02  0.14822364137E-01  0.95054772800E-01  0.51100000000E-03 0. -1.
</event>
<event>
 8    1  0.1115874E+005  0.1043930E+01  0.7957747E-01            NaN
         13   -1    0    0    0    0  0.00000000000E+00  0.00000000000E+00  0.74505805969E-08  0.10566000000E+00  0.10566000000E+00 0. -1.
     999900   -1    0    0    0    0 -0.00000000000E+00 -0.00000000000E+00 -0.74505805969E-08  0.93827000000E+00  0.93827000000E+00 0.  1.
     999902    2    1    2    0    0  0.78822595096E-02  0.17281244668E-01 -0.14149519637E-01  0.10202449765E+01  0.10199700151E+01 0.  0.
     999903    2    3    3    0    0 -0.11039471577E+00 -0.18844351060E-01 -0.63990789273E-01  0.13020079012E+00  0.17757302735E-01 0.  0.
         14    1    1    2    0    0 -0.78822595096E-02 -0.17281244668E-01  0.14149519637E-01  0.23685023500E-01  0.00000000000E+00 0. -1.
     999901    1    3    3    0    0  0.11827697528E+00  0.36125595727E-01  0.49841269636E-01  0.89004418638E+00  0.88000000000E+00 0. -1.
        -11    1    4    4    0    0 -0.37338136603E-01  0.12575512089E-02 -0.17081005278E-01  0.41082109760E-01  0.51100000000E-03 0. -1.
         11    1    4    4    0    0 -0.73056579163E-01 -0.20101902268E-01 -0.46909783995E-01  0.89118680361E-01  0.51100000000E-03 0.  1.
</event>
<event>
 8    1  0.1115874E+005  0.1043930E+01  0.7957747E-01            NaN
         13   -1    0    0    0    0  0.00000000000E+00  0.00000000000E+00  0.74505805969E-08  0.10566000000E+00  0.10566000000E+00 0. -1.
     999900   -1    0    0    0    0 -0.00000000000E+00 -0.00000000000E+00 -0.74505805969E-08  0.93827000000E+00  0.93827000000E+00 0.  1.
     999902    2    1    2    0    0 -0.20599351244E-01 -0.21266478843E-02  0.11899345993E-01  0.10200458978E+01  0.10197662395E+01 0.  0.
     999903    2    3    3    0    0 -0.11088026644E+00 -0.57491329501E-01 -0.38861699969E-01  0.13224379406E+00  0.19455150731E-01 0.  0.
         14    1    1    2    0    0  0.20599351244E-01  0.21266478843E-02 -0.11899345993E-01  0.23884102201E-01  0.00000000000E+00 0.  1.
     999901    1    3    3    0    0  0.90280915192E-01  0.55364681616E-01  0.50761045961E-01  0.88780210374E+00  0.88000000000E+00 0. -1.
        -11    1    4    4    0    0 -0.18284652813E-01 -0.17151205109E-01 -0.39879816916E-02  0.25390106029E-01  0.51100000000E-03 0.  1.
         11    1    4    4    0    0 -0.92595613623E-01 -0.40340124392E-01 -0.34873718277E-01  0.10685368803E+00  0.51100000000E-03 0. -1.
</event>
<event>
 8    1  0.1115874E+005  0.1043930E+01  0.7957747E-01            NaN
         13   -1    0    0    0    0  0.00000000000E+00  0.00000000000E+00  0.74505805969E-08  0.10566000000E+00  0.10566000000E+00 0. -1.
     999900   -1    0    0    0    0 -0.00000000000E+00 -0.00000000000E+00 -0.74505805969E-08  0.93827000000E+00  0.93827000000E+00 0. -1.
     999902    2    1    2    0    0  0.12295545166E-01  0.16309903587E-01 -0.78560469769E-02  0.10220459679E+01  0.10218116508E+01 0.  0.
     999903    2    3    3    0    0  0.85370450705E-01  0.18390868127E-01 -0.10043899146E+00  0.13417442663E+00  0.16983753148E-01 0.  0.
         14    1    1    2    0    0 -0.12295545166E-01 -0.16309903587E-01  0.78560469769E-02  0.21884032079E-01  0.00000000000E+00 0. -1.
     999901    1    3    3    0    0 -0.73074905539E-01 -0.20809645394E-02  0.92582944482E-01  0.88787154130E+00  0.88000000000E+00 0.  1.
        -11    1    4    4    0    0  0.83968458456E-01  0.15449730383E-01 -0.94324753919E-01  0.12722742042E+00  0.51100000000E-03 0. -1.
         11    1    4    4    0    0  0.14019922488E-02  0.29411377439E-02 -0.61142375403E-02  0.69470062037E-02  0.51100000000E-03 0.  1.
</event>
<event>
 8    1  0.1115874E+005  0.1043930E+01  0.7957747E-01            NaN
         13   -1    0    0    0    0  0.00000000000E+00  0.00000000000E+00  0.74505805969E-08  0.10566000000E+00  0.10566000000E+00 0.  1.
     999900   -1    0    0    0    0 -0.00000000000E+00 -0.00000000000E+00 -0.74505805969E-08  0.93827000000E+00  0.93827000000E+00 0. -1.
     999902    2    1    2    0    0  0.18280622671E-01  0.14605381368E-01 -0.23075315921E-02  0.10204178110E+01  0.10201468943E+01 0.  0.
     999903    2    3    3    0    0 -0.11037387773E+00  0.47409943573E-01  0.43116690269E-01  0.12929970450E+00  0.20718807166E-01 0.  0.
         14    1    1    2    0    0 -0.18280622671E-01 -0.14605381368E-01  0.23075315921E-02  0.23512189013E-01  0.00000000000E+00 0.  1.
     999901    1    3    3    0    0  0.12865450040E+00 -0.32804562205E-01 -0.45424221861E-01  0.89111810649E+00  0.88000000000E+00 0.  1.
        -11    1    4    4    0    0 -0.69833295818E-01  0.18974483261E-01  0.26433392223E-01  0.77043530327E-01  0.51100000000E-03 0.  1.
         11    1    4    4    0    0 -0.40540581909E-01  0.28435460312E-01  0.16683298046E-01  0.52256174174E-01  0.51100000000E-03 0. -1.
</event>
<event>
 8    1  0.1115874E+005  0.1043930E+01  0.7957747E-01            NaN
         13   -1    0    0    0    0  0.00000000000E+00  0.00000000000E+00  0.74505805969E-08  0.10566000000E+00  0.10566000000E+00 0. -1.
     999900   -1    0    0    0    0 -0.00000000000E+00 -0.00000000000E+00 -0.74505805969E-08  0.93827000000E+00  0.93827000000E+00 0. -1.
     999902    2    1    2    0    0 -0.39629752923E-02  0.17332019231E-02 -0.23062182180E-01  0.10204656993E+01  0.10201958978E+01 0.  0.
     999903    2    3    3    0    0 -0.62382258732E-01  0.63310779957E-01  0.91362846637E-01  0.12900751291E+00  0.19898934121E-01 0.  0.
         14    1    1    2    0    0  0.39629752923E-02 -0.17332019231E-02  0.23062182180E-01  0.23464300735E-01  0.00000000000E+00 0. -1.
     999901    1    3    3    0    0  0.58419283439E-01 -0.61577578034E-01 -0.11442502882E+00  0.89145818635E+00  0.88000000000E+00 0. -1.
        -11    1    4    4    0    0 -0.35607755300E-01  0.43771653189E-01  0.68446751751E-01  0.88707884693E-01  0.51100000000E-03 0.  1.
         11    1    4    4    0    0 -0.26774503431E-01  0.19539126768E-01  0.22916094886E-01  0.40299628220E-01  0.51100000000E-03 0. -1.
</event>
<event>
 8    1  0.1115874E+005  0.1043930E+01  0.7957747E-01            NaN
         13   -1    0    0    0    0  0.00000000000E+00  0.00000000000E+00  0.74505805969E-08  0.10566000000E+00  0.10566000000E+00 0. -1.
     999900   -1    0    0    0    0 -0.00000000000E+00 -0.00000000000E+00 -0.74505805969E-08  0.93827000000E+00  0.93827000000E+00 0.  1.
     999902    2    1    2    0    0 -0.41103082510E-03 -0.15325592194E-01  0.18394903566E-01  0.10199839106E+01  0.10197027815E+01 0.  0.
     999903    2    3    3    0    0 -0.99972059263E-01  0.30867386782E-02 -0.78715650824E-01  0.12887119485E+00  0.20191349372E-01 0.  0.
         14    1    1    2    0    0  0.41103082510E-03  0.15325592194E-01 -0.18394903566E-01  0.23946089444E-01  0.00000000000E+00 0. -1.
     999901    1    3    3    0    0  0.99561028438E-01 -0.18412330872E-01  0.97110554390E-01  0.89111271570E+00  0.88000000000E+00 0. -1.
        -11    1    4    4    0    0 -0.49645762934E-01  0.50696065565E-02 -0.51108756069E-01  0.71433666824E-01  0.51100000000E-03 0. -1.
         11    1    4    4    0    0 -0.50326296329E-01 -0.19828678784E-02 -0.27606894755E-01  0.57437528030E-01  0.51100000000E-03 0.  1.
</event>
<event>
 7    1  0.1115874E+005  0.1043930E+01  0.7957747E-01            NaN
         13   -1    0    0    0    0  0.00000000000E+00  0.00000000000E+00  0.74505805969E-08  0.10566000000E+00  0.10566000000E+00 0. -1.
     999900   -1    0    0    0    0 -0.00000000000E+00 -0.00000000000E+00 -0.74505805969E-08  0.93827000000E+00  0.93827000000E+00 0.  1.
     999903    2    1    2    0    0 -0.53863042960E-01  0.85503371850E-01  0.43683073954E-01  0.11192644157E+00  0.20180767526E-01 0.  0.
         14    1    1    2    0    0  0.15103624222E-01  0.12463719370E-01 -0.41309770659E-01  0.45716090352E-01  0.00000000000E+00 0.  1.
     999901    1    1    2    0    0  0.38759418738E-01 -0.97967091220E-01 -0.23733032950E-02  0.88628746808E+00  0.88000000000E+00 0.  1.
        -11    1    3    3    0    0 -0.25108527054E-02  0.60135797572E-02  0.90257286891E-02  0.11144165387E-01  0.51100000000E-03 0.  1.
         11    1    3    3    0    0 -0.51352190254E-01  0.79489792092E-01  0.34657345265E-01  0.10078227618E+00  0.51100000000E-03 0. -1.
</event>
<event>
 8    1  0.1115874E+005  0.1043930E+01  0.7957747E-01            NaN
         13   -1    0    0    0    0  0.00000000000E+00  0.00000000000E+00  0.74505805969E-08  0.10566000000E+00  0.10566000000E+00 0. -1.
     999900   -1    0    0    0    0 -0.00000000000E+00 -0.00000000000E+00 -0.74505805969E-08  0.93827000000E+00  0.93827000000E+00 0. -1.
     999902    2    1    2    0    0  0.31130080149E-02  0.11479497907E-02  0.23309269735E-01  0.10203857722E+01  0.10201141080E+01 0.  0.
     999903    2    3    3    0    0 -0.57564143397E-01 -0.11519922638E+00  0.89344674726E-03  0.13037405809E+00  0.20300355026E-01 0.  0.
         14    1    1    2    0    0 -0.31130080149E-02 -0.11479497907E-02 -0.23309269735E-01  0.23544227810E-01  0.00000000000E+00 0.  1.
     999901    1    3    3    0    0  0.60677151412E-01  0.11634717617E+00  0.22415822987E-01  0.89001171409E+00  0.88000000000E+00 0.  1.
        -11    1    4    4    0    0 -0.40584768253E-01 -0.72813884201E-01  0.95190597816E-02  0.83903866221E-01  0.51100000000E-03 0.  1.
         11    1    4    4    0    0 -0.16979375143E-01 -0.42385342176E-01 -0.86256130344E-02  0.46470191874E-01  0.51100000000E-03 0. -1.
</event>
<event>
 8    1  0.1115874E+005  0.1043930E+01  0.7957747E-01            NaN
         13   -1    0    0    0    0  0.00000000000E+00  0.00000000000E+00  0.74505805969E-08  0.10566000000E+00  0.10566000000E+00 0.  1.
     999900   -1    0    0    0    0 -0.00000000000E+00 -0.00000000000E+00 -0.74505805969E-08  0.93827000000E+00  0.93827000000E+00 0.  1.
     999902    2    1    2    0    0  0.22764554200E-01  0.18879108917E-02  0.90553862726E-02  0.10193578785E+01  0.10190616739E+01 0.  0.
     999903    2    3    3    0    0 -0.70906558633E-01 -0.12104873984E-01 -0.10300212377E+00  0.12721049101E+00  0.19970064847E-01 0.  0.
         14    1    1    2    0    0 -0.22764554200E-01 -0.18879108917E-02 -0.90553862726E-02  0.24572121520E-01  0.00000000000E+00 0. -1.
     999901    1    3    3    0    0  0.93671112833E-01  0.13992784875E-01  0.11205751005E+00  0.89214738747E+00  0.88000000000E+00 0. -1.
        -11    1    4    4    0    0 -0.49989412683E-01 -0.85919917459E-02 -0.55514729192E-01  0.75199135506E-01  0.51100000000E-03 0. -1.
         11    1    4    4    0    0 -0.20917145950E-01 -0.35128822378E-02 -0.47487394583E-01  0.52011355506E-01  0.51100000000E-03 0.  1.
</event>
<event>
 8    1  0.1115874E+005  0.1043930E+01  0.7957747E-01            NaN
         13   -1    0    0    0    0  0.00000000000E+00  0.00000000000E+00  0.74505805969E-08  0.10566000000E+00  0.10566000000E+00 0. -1.
     999900   -1    0    0    0    0 -0.00000000000E+00 -0.00000000000E+00 -0.74505805969E-08  0.93827000000E+00  0.93827000000E+00 0.  1.
     999902    2    1    2    0    0 -0.14783667153E-01 -0.17309687767E-01  0.69708437924E-02  0.10201229681E+01  0.10198451330E+01 0.  0.
     999903    2    3    3    0    0  0.11450073257E+00 -0.57253127041E-01  0.72920627602E-02  0.12978031634E+00  0.20035418990E-01 0.  0.
         14    1    1    2    0    0  0.14783667153E-01  0.17309687767E-01 -0.69708437924E-02  0.23807031907E-01  0.00000000000E+00 0.  1.
     999901    1    3    3    0    0 -0.12928439972E+00  0.39943439274E-01 -0.32121896776E-03  0.89034265176E+00  0.88000000000E+00 0.  1.
        -11    1    4    4    0    0  0.96177782073E-01 -0.51628882801E-01  0.12601508753E-01  0.10988524217E+00  0.51100000000E-03 0.  1.
         11    1    4    4    0    0  0.18322950498E-01 -0.56242442397E-02 -0.53094459929E-02  0.19895074163E-01  0.51100000000E-03 0. -1.
</event>
<event>
 8    1  0.1115874E+005  0.1043930E+01  0.7957747E-01            NaN
         13   -1    0    0    0    0  0.00000000000E+00  0.00000000000E+00  0.74505805969E-08  0.10566000000E+00  0.10566000000E+00 0.  1.
     999900   -1    0    0    0    0 -0.00000000000E+00 -0.00000000000E+00 -0.74505805969E-08  0.93827000000E+00  0.93827000000E+00 0. -1.
     999902    2    1    2    0    0  0.17377200156E-01  0.79123528001E-02  0.14570429623E-01  0.10199118853E+01  0.10196290424E+01 0.  0.
     999903    2    3    3    0    0 -0.33635731048E-01 -0.11423926091E+00  0.46154338880E-01  0.12945083667E+00  0.21102724519E-01 0.  0.
         14    1    1    2    0    0 -0.17377200156E-01 -0.79123528001E-02 -0.14570429623E-01  0.24018114653E-01  0.00000000000E+00 0. -1.
     999901    1    3    3    0    0  0.51012931204E-01  0.12215161371E+00 -0.31583909257E-01  0.89046104867E+00  0.88000000000E+00 0.  1.
        -11    1    4    4    0    0 -0.24283177196E-01 -0.63336789774E-01  0.16545001674E-01  0.69822774472E-01  0.51100000000E-03 0. -1.
         11    1    4    4    0    0 -0.93525538519E-02 -0.50902471133E-01  0.29609337206E-01  0.59628062201E-01  0.51100000000E-03 0.  1.
</event>
<event>
 8    1  0.1115874E+005  0.1043930E+01  0.7957747E-01            NaN
         13   -1    0    0    0    0  0.00000000000E+00  0.00000000000E+00  0.74505805969E-08  0.10566000000E+00  0.10566000000E+00 0. -1.
     999900   -1    0    0    0    0 -0.00000000000E+00 -0.00000000000E+00 -0.74505805969E-08  0.93827000000E+00  0.93827000000E+00 0. -1.
     999902    2    1    2    0    0 -0.16064368482E-02 -0.24770907447E-01  0.16842936994E-02  0.10190499811E+01  0.10187462141E+01 0.  0.
     999903    2    3    3    0    0 -0.29690096891E-01  0.11576747818E+00 -0.36811899701E-01  0.12662536989E+00  0.19881083531E-01 0.  0.
         14    1    1    2    0    0  0.16064368482E-02  0.24770907447E-01 -0.16842936994E-02  0.24880018898E-01  0.00000000000E+00 0.  1.
     999901    1    3    3    0    0  0.28083660043E-01 -0.14053838563E+00  0.38496193400E-01  0.89242461121E+00  0.88000000000E+00 0.  1.
        -11    1    4    4    0    0 -0.16195987450E-01  0.57514684880E-01 -0.81276029019E-02  0.60303963686E-01  0.51100000000E-03 0.  1.
         11    1    4    4    0    0 -0.13494109441E-01  0.58252793298E-01 -0.28684296799E-01  0.66321406201E-01  0.51100000000E-03 0. -1.
</event>
<event>
 8    1  0.1115874E+005  0.1043930E+01  0.7957747E-01            NaN
         13   -1    0    0    0    0  0.00000000000E+00  0.00000000000E+00  0.74505805969E-08  0.10566000000E+00  0.10566000000E+00 0. -1.
     999900   -1    0    0    0    0 -0.00000000000E+00 -0.00000000000E+00 -0.74505805969E-08  0.93827000000E+00  0.93827000000E+00 0. -1.
     999902    2    1    2    0    0 -0.17610162850E-01 -0.80849084446E-02 -0.13482533135E-01  0.10203235966E+01  0.10200504789E+01 0.  0.
     999903    2    3    3    0    0  0.49201721338E-02  0.12641193045E+00 -0.20839027727E-01  0.12978941218E+00  0.20170329316E-01 0.  0.
         14    1    1    2    0    0  0.17610162850E-01  0.80849084446E-02  0.13482533135E-01  0.23606403367E-01  0.00000000000E+00 0. -1.
     999901    1    3    3    0    0 -0.22530334984E-01 -0.13449683889E+00  0.73564945917E-02  0.89053418445E+00  0.88000000000E+00 0. -1.
        -11    1    4    4    0    0 -0.42589757430E-02  0.83691944769E-01 -0.76795055974E-02  0.84152934713E-01  0.51100000000E-03 0.  1.
         11    1    4    4    0    0  0.91791478768E-02  0.42719985677E-01 -0.13159522130E-01  0.45636477468E-01  0.51100000000E-03 0. -1.
</event>
<event>
 8    1  0.1115874E+005  0.1043930E+01  0.7957747E-01            NaN
         13   -1    0    0    0    0  0.00000000000E+00  0.00000000000E+00  0.74505805969E-08  0.10566000000E+00  0.10566000000E+00 0. -1.
     999900   -1    0    0    0    0 -0.00000000000E+00 -0.00000000000E+00 -0.74505805969E-08  0.93827000000E+00  0.93827000000E+00 0. -1.
     999902    2    1    2    0    0 -0.89919800082E-03  0.18636836990E-01 -0.15078847010E-01  0.10199401714E+01  0.10196580021E+01 0.  0.
     999903    2    3    3    0    0 -0.10940101405E+00 -0.63285829964E-01  0.17186486827E-01  0.12891546958E+00  0.18712157000E-01 0.  0.
         14    1    1    2    0    0  0.89919800082E-03 -0.18636836990E-01  0.15078847010E-01  0.23989828620E-01  0.00000000000E+00 0.  1.
     999901    1    3    3    0    0  0.10850181605E+00  0.81922666955E-01 -0.32265333838E-01  0.89102470180E+00  0.88000000000E+00 0.  1.
        -11    1    4    4    0    0 -0.43505228319E-02 -0.33702470361E-02 -0.30260244145E-02  0.63010759996E-02  0.51100000000E-03 0. -1.
         11    1    4    4    0    0 -0.10505049121E+00 -0.59915582928E-01  0.20212511242E-01  0.12261439358E+00  0.51100000000E-03 0.  1.
</event>
<event>
 8    1  0.1115874E+005  0.1043930E+01  0.7957747E-01            NaN
         13   -1    0    0    0    0  0.00000000000E+00  0.00000000000E+00  0.74505805969E-08  0.10566000000E+00  0.10566000000E+00 0.  1.
     999900   -1    0    0    0    0 -0.00000000000E+00 -0.00000000000E+00 -0.74505805969E-08  0.93827000000E+00  0.93827000000E+00 0.  1.
     999902    2    1    2    0    0 -0.14331895946E-01  0.47931298932E-03  0.18471341924E-01  0.10205457434E+01  0.10202778009E+01 0.  0.
     999903    2    3    3    0    0 -0.49373699203E-01 -0.10402148211E+00  0.62371927355E-01  0.13258425466E+00  0.20738764429E-01 0.  0.
         14    1    1    2    0    0  0.14331895946E-01 -0.47931298932E-03 -0.18471341924E-01  0.23384256559E-01  0.00000000000E+00 0. -1.
     999901    1    3    3    0    0  0.35041803257E-01  0.10450079510E+00 -0.43900585431E-01  0.88796148878E+00  0.88000000000E+00 0. -1.
        -11    1    4    4    0    0 -0.19252918480E-01 -0.64430374617E-01  0.35640596945E-01  0.76108221073E-01  0.51100000000E-03 0. -1.
         11    1    4    4    0    0 -0.30120780723E-01 -0.39591107489E-01  0.26731330410E-01  0.56476033590E-01  0.51100000000E-03 0.  1.
</event>
<event>
 8    1  0.1115874E+005  0.1043930E+01  0.7957747E-01            NaN
         13   -1    0    0    0    0  0.00000000000E+00  0.00000000000E+00  0.74505805969E-08  0.10566000000E+00  0.10566000000E+00 0.  1.
     999900   -1    0    0    0    0 -0.00000000000E+00 -0.00000000000E+00 -0.74505805969E-08  0.93827000000E+00  0.93827000000E+00 0.  1.
     999902    2    1    2    0    0 -0.22168310843E-01  0.15811623947E-02 -0.72654748987E-02  0.10205479298E+01  0.10202800380E+01 0.  0.
     999903    2    3    3    0    0  0.85075310308E-02 -0.97407193912E-01 -0.85253590016E-01  0.13104141042E+00  0.18523960841E-01 0.  0.
         14    1    1    2    0    0  0.22168310843E-01 -0.15811623947E-02  0.72654748987E-02  0.23382070174E-01  0.00000000000E+00 0.  1.
     999901    1    3    3    0    0 -0.30675841873E-01  0.98988356306E-01  0.77988115118E-01  0.88950651940E+00  0.88000000000E+00 0. -1.
        -11    1    4    4    0    0 -0.56495920073E-03 -0.65072810264E-01 -0.47879258713E-01  0.80792786500E-01  0.51100000000E-03 0. -1.
         11    1    4    4    0    0  0.90724902315E-02 -0.32334383648E-01 -0.37374331303E-01  0.50248623924E-01  0.51100000000E-03 0.  1.
</event>
<event>
 8    1  0.1115874E+005  0.1043930E+01  0.7957747E-01            NaN
         13   -1    0    0    0    0  0.00000000000E+00  0.00000000000E+00  0.74505805969E-08  0.10566000000E+00  0.10566000000E+00 0.  1.
     999900   -1    0    0    0    0 -0.00000000000E+00 -0.00000000000E+00 -0.74505805969E-08  0.93827000000E+00  0.93827000000E+00 0.  1.
     999902    2    1    2    0    0 -0.81925214605E-02 -0.14688069497E-01 -0.16958139168E-01  0.10200462131E+01  0.10197665623E+01 0.  0.
     999903    2    3    3    0    0  0.10235470200E+00  0.27709610207E-01  0.69008279420E-01  0.12796523190E+00  0.19200271568E-01 0.  0.
         14    1    1    2    0    0  0.81925214605E-02  0.14688069497E-01  0.16958139168E-01  0.23883786916E-01  0.00000000000E+00 0.  1.
     999901    1    3    3    0    0 -0.11054722346E+00 -0.42397679704E-01 -0.85966418588E-01  0.89208098118E+00  0.88000000000E+00 0.  1.
        -11    1    4    4    0    0  0.61493440291E-01  0.13462401106E-01  0.51292870249E-01  0.81202826932E-01  0.51100000000E-03 0. -1.
         11    1    4    4    0    0  0.40861261709E-01  0.14247209101E-01  0.17715409171E-01  0.46762404971E-01  0.51100000000E-03 0.  1.
</event>
<event>
 7    1  0.1115874E+005  0.1043930E+01  0.7957747E-01            NaN
         13   -1    0    0    0    0  0.00000000000E+00  0.00000000000E+00  0.74505805969E-08  0.10566000000E+00  0.10566000000E+00 0. -1.
     999900   -1    0    0    0    0 -0.00000000000E+00 -0.00000000000E+00 -0.74505805969E-08  0.93827000000E+00  0.93827000000E+00 0.  1.
     999903    2    1    2    0    0  0.81229324591E-01  0.19937711575E-01 -0.99487646364E-02  0.85824272566E-01  0.16465488977E-01 0.  0.
         14    1    1    2    0    0  0.12927668142E-01 -0.69702136905E-01 -0.91511616977E-02  0.71479061641E-01  0.00000000000E+00 0. -1.
     999901    1    1    2    0    0 -0.94156992733E-01  0.49764425331E-01  0.19099926334E-01  0.88662666579E+00  0.88000000000E+00 0. -1.
        -11    1    3    3    0    0  0.25525576915E-01  0.48050135612E-02  0.43848726078E-02  0.26346374721E-01  0.51100000000E-03 0.  1.
         11    1    3    3    0    0  0.55703747676E-01  0.15132698013E-01 -0.14333637244E-01  0.59477897845E-01  0.51100000000E-03 0. -1.
</event>
<event>
 8    1  0.1115874E+005  0.1043930E+01  0.7957747E-01            NaN
         13   -1    0    0    0    0  0.00000000000E+00  0.00000000000E+00  0.74505805969E-08  0.10566000000E+00  0.10566000000E+00 0. -1.
     999900   -1    0    0    0    0 -0.00000000000E+00 -0.00000000000E+00 -0.74505805969E-08  0.93827000000E+00  0.93827000000E+00 0.  1.
     999902    2    1    2    0    0  0.15995684748E-01  0.17817212911E-01  0.15281203094E-02  0.10199372895E+01  0.10196550516E+01 0.  0.
     999903    2    3    3    0    0  0.76311006659E-01  0.10657647660E+00  0.13870437795E-01  0.13333226031E+00  0.20079529212E-01 0.  0.
         14    1    1    2    0    0 -0.15995684748E-01 -0.17817212911E-01 -0.15281203094E-02  0.23992710521E-01  0.00000000000E+00 0. -1.
     999901    1    3    3    0    0 -0.60315321911E-01 -0.88759263686E-01 -0.12342317486E-01  0.88660502917E+00  0.88000000000E+00 0. -1.
        -11    1    4    4    0    0  0.56512475378E-01  0.69916931723E-01  0.16761842451E-02  0.89917228213E-01  0.51100000000E-03 0.  1.
         11    1    4    4    0    0  0.19798531281E-01  0.36659544874E-01  0.12194253550E-01  0.43415032096E-01  0.51100000000E-03 0. -1.
</event>
<event>
 8    1  0.1115874E+005  0.1043930E+01  0.7957747E-01            NaN
         13   -1    0    0    0    0  0.00000000000E+00  0.00000000000E+00  0.74505805969E-08  0.10566000000E+00  0.10566000000E+00 0. -1.
     999900   -1    0    0    0    0 -0.00000000000E+00 -0.00000000000E+00 -0.74505805969E-08  0.93827000000E+00  0.93827000000E+00 0.  1.
     999902    2    1    2    0    0 -0.16041337995E-01 -0.15090401308E-01 -0.90181713340E-02  0.10201314255E+01  0.10198537900E+01 0.  0.
     999903    2    3    3    0    0  0.11764359201E+00  0.46179671924E-01 -0.36783241959E-02  0.12791273233E+00  0.19379375242E-01 0.  0.
         14    1    1    2    0    0  0.16041337995E-01  0.15090401308E-01  0.90181713340E-02  0.23798574548E-01  0.00000000000E+00 0. -1.
     999901    1    3    3    0    0 -0.13368493000E+00 -0.61270073232E-01 -0.53398471381E-02  0.89221869312E+00  0.88000000000E+00 0.  1.
        -11    1    4    4    0    0  0.33687674155E-01  0.15690925441E-01 -0.96272817875E-02  0.38392840567E-01  0.51100000000E-03 0.  1.
         11    1    4    4    0    0  0.83955917852E-01  0.30488746483E-01  0.59489575916E-02  0.89519891766E-01  0.51100000000E-03 0. -1.
</event>
<event>
 7    1  0.1115874E+005  0.1043930E+01  0.7957747E-01            NaN
         13   -1    0    0    0    0  0.00000000000E+00  0.00000000000E+00  0.74505805969E-08  0.10566000000E+00  0.10566000000E+00 0. -1.
     999900   -1    0    0    0    0 -0.00000000000E+00 -0.00000000000E+00 -0.74505805969E-08  0.93827000000E+00  0.93827000000E+00 0. -1.
     999902    2    1    2    0    0 -0.11493980639E-02  0.93290018063E-02  0.21141117194E-01  0.10207934872E+01  0.10205312563E+01 0.  0.
         14    1    1    2    0    0  0.11493980639E-02 -0.93290018063E-02 -0.21141117194E-01  0.23136512849E-01  0.00000000000E+00 0.  1.
     999901    1    3    3    0    0 -0.11341074180E+00  0.62718682475E-01  0.32506770408E-01  0.89008556870E+00  0.88000000000E+00 0. -1.
        -11    1    3    3    0    0  0.27072628167E-01 -0.22264016717E-01  0.11992839630E-01  0.37050006203E-01  0.51100000000E-03 0. -1.
         11    1    3    3    0    0  0.85188715574E-01 -0.31125663952E-01 -0.23358492844E-01  0.93657912247E-01  0.51100000000E-03 0.  1.
</event>
<event>
 8    1  0.1115874E+005  0.1043930E+01  0.7957747E-01            NaN
         13   -1    0    0    0    0  0.00000000000E+00  0.00000000000E+00  0.74505805969E-08  0.10566000000E+00  0.10566000000E+00 0. -1.
     999900   -1    0    0    0    0 -0.00000000000E+00 -0.00000000000E+00 -0.74505805969E-08  0.93827000000E+00  0.93827000000E+00 0. -1.
     999902    2    1    2    0    0 -0.15153698132E-01  0.18191537890E-01 -0.32372225316E-02  0.10200334264E+01  0.10197534726E+01 0.  0.
     999903    2    3    3    0    0 -0.62607154482E-01  0.11552189074E+00  0.12949552686E-03  0.13339011434E+00  0.22977005956E-01 0.  0.
         14    1    1    2    0    0  0.15153698132E-01 -0.18191537890E-01  0.32372225316E-02  0.23896573553E-01  0.00000000000E+00 0.  1.
     999901    1    3    3    0    0  0.47453456351E-01 -0.97330352852E-01 -0.33667180584E-02  0.88664331210E+00  0.88000000000E+00 0. -1.
        -11    1    4    4    0    0 -0.58052116368E-01  0.11132271557E+00  0.47560751466E-02  0.12564106251E+00  0.51100000000E-03 0.  1.
         11    1    4    4    0    0 -0.45550381141E-02  0.41991751695E-02 -0.46265796197E-02  0.77490518325E-02  0.51100000000E-03 0. -1.
</event>
<event>
 8    1  0.1115874E+005  0.1043930E+01  0.7957747E-01            NaN
         13   -1    0    0    0    0  0.00000000000E+00  0.00000000000E+00  0.74505805969E-08  0.10566000000E+00  0.10566000000E+00 0.  1.
     999900   -1    0    0    0    0 -0.00000000000E+00 -0.00000000000E+00 -0.74505805969E-08  0.93827000000E+00  0.93827000000E+00 0. -1.
     999902    2    1    2    0    0 -0.12777577859E-01  0.92624960165E-02 -0.19060205042E-01  0.10191842581E+01  0.10188838011E+01 0.  0.
     999903    2    3    3    0    0 -0.41292799484E-01  0.26993152529E-01  0.11658310500E+00  0.12815866829E+00  0.19982450181E-01 0.  0.
         14    1    1    2    0    0  0.12777577859E-01 -0.92624960165E-02  0.19060205042E-01  0.24745741950E-01  0.00000000000E+00 0. -1.
     999901    1    3    3    0    0  0.28515221625E-01 -0.17730656512E-01 -0.13564331004E+00  0.89102558976E+00  0.88000000000E+00 0. -1.
        -11    1    4    4    0    0 -0.15603647584E-01  0.22104977429E-01  0.58117140954E-01  0.64109024628E-01  0.51100000000E-03 0. -1.
         11    1    4    4    0    0 -0.25689151900E-01  0.48881750994E-02  0.58465964042E-01  0.64049643664E-01  0.51100000000E-03 0.  1.
</event>
<event>
 8    1  0.1115874E+005  0.1043930E+01  0.7957747E-01            NaN
         13   -1    0    0    0    0  0.00000000000E+00  0.00000000000E+00  0.74505805969E-08  0.10566000000E+00  0.10566000000E+00 0.  1.
     999900   -1    0    0    0    0 -0.00000000000E+00 -0.00000000000E+00 -0.74505805969E-08  0.93827000000E+00  0.93827000000E+00 0. -1.
     999902    2    1    2    0    0  0.61606692168E-02  0.21669432993E-01  0.84092002695E-02  0.10198835279E+01  0.10196000087E+01 0.  0.
     999903    2    3    3    0    0  0.32195142518E-01 -0.11444092496E+00 -0.44958403412E-01  0.12744197549E+00  0.93245146204E-02 0.  0.
         14    1    1    2    0    0 -0.61606692168E-02 -0.21669432993E-01 -0.84092002695E-02  0.24046472103E-01  0.00000000000E+00 0. -1.
     999901    1    3    3    0    0 -0.26034473301E-01  0.13611035795E+00  0.53367603681E-01  0.89244155241E+00  0.88000000000E+00 0.  1.
        -11    1    4    4    0    0  0.40383611025E-02 -0.85818506643E-02 -0.15999374326E-02  0.96321047548E-02  0.51100000000E-03 0.  1.
         11    1    4    4    0    0  0.28156781416E-01 -0.10585907429E+00 -0.43358465979E-01  0.11780987073E+00  0.51100000000E-03 0. -1.
</event>
<event>
 8    1  0.1115874E+005  0.1043930E+01  0.7957747E-01            NaN
         13   -1    0    0    0    0  0.00000000000E+00  0.00000000000E+00  0.74505805969E-08  0.10566000000E+00  0.10566000000E+00 0.  1.
     999900   -1    0    0    0    0 -0.00000000000E+00 -0.00000000000E+00 -0.74505805969E-08  0.93827000000E+00  0.93827000000E+00 0. -1.
     999902    2    1    2    0    0 -0.11298245500E-01  0.18924882928E-01 -0.78911757410E-02  0.10205190581E+01  0.10202504966E+01 0.  0.
     999903    2    3    3    0    0 -0.12627945112E+00  0.32960647438E-01 -0.14787540672E-01  0.13290132498E+00  0.20277740704E-01 0.  0.
         14    1    1    2    0    0  0.11298245500E-01 -0.18924882928E-01  0.78911757410E-02  0.23410941882E-01  0.00000000000E+00 0.  1.
     999901    1    3    3    0    0  0.11498120562E+00 -0.14035764510E-01  0.68963649309E-02  0.88761773314E+00  0.88000000000E+00 0. -1.
        -11    1    4    4    0    0 -0.45689643601E-01  0.16395635301E-01 -0.14358467033E-01  0.50623977381E-01  0.51100000000E-03 0.  1.
         11    1    4    4    0    0 -0.80589807518E-01  0.16565012136E-01 -0.42907363864E-03  0.82277347600E-01  0.51100000000E-03 0. -1.
</event>
<event>
 8    1  0.1115874E+005  0.1043930E+01  0.7957747E-01            NaN
         13   -1    0    0    0    0  0.00000000000E+00  0.00000000000E+00  0.74505805969E-08  0.10566000000E+00  0.10566000000E+00 0.  1.
     999900   -1    0    0    0    0 -0.00000000000E+00 -0.00000000000E+00 -0.74505805969E-08  0.93827000000E+00  0.93827000000E+00 0.  1.
     999902    2    1    2    0    0 -0.16604154201E-01 -0.14993598883E-01  0.13222706217E-01  0.10179425818E+01  0.10176108067E+01 0.  0.
     999903    2    3    3    0    0 -0.12291187859E+00 -0.40733052383E-01 -0.33476272056E-03  0.13106736134E+00  0.20298514395E-01 0.  0.
         14    1    1    2    0    0  0.16604154201E-01  0.14993598883E-01 -0.13222706217E-01  0.25987418185E-01  0.00000000000E+00 0. -1.
     999901    1    3    3    0    0  0.10630772439E+00  0.25739453500E-01  0.13557468938E-01  0.88687522048E+00  0.88000000000E+00 0. -1.
        -11    1    4    4    0    0 -0.43342761014E-01 -0.15924935095E-01 -0.97257424745E-02  0.47191627200E-01  0.51100000000E-03 0. -1.
         11    1    4    4    0    0 -0.79569117578E-01 -0.24808117289E-01  0.93909797539E-02  0.83875734138E-01  0.51100000000E-03 0.  1.
</event>
<event>
 8    1  0.1115874E+005  0.1043930E+01  0.7957747E-01            NaN
         13   -1    0    0    0    0  0.00000000000E+00  0.00000000000E+00  0.74505805969E-08  0.10566000000E+00  0.10566000000E+00 0.  1.
     999900   -1    0    0    0    0 -0.00000000000E+00 -0.00000000000E+00 -0.74505805969E-08  0.93827000000E+00  0.93827000000E+00 0.  1.
     999902    2    1    2    0    0  0.15836689707E-01  0.65975239227E-02 -0.13804899236E-01  0.10219094799E+01  0.10216721988E+01 0.  0.
     999903    2    3    3    0    0 -0.92019714037E-01  0.77881165595E-01  0.46225653972E-01  0.13043989056E+00  0.18564757932E-01 0.  0.
         14    1    1    2    0    0 -0.15836689707E-01 -0.65975239227E-02  0.13804899236E-01  0.22020520105E-01  0.00000000000E+00 0.  1.
     999901    1    3    3    0    0  0.10785640374E+00 -0.71283641673E-01 -0.60030553208E-01  0.89146958934E+00  0.88000000000E+00 0.  1.
        -11    1    4    4    0    0 -0.32632635283E-01  0.39078785099E-01  0.22152573460E-01  0.55525111097E-01  0.51100000000E-03 0.  1.
         11    1    4    4    0    0 -0.59387078754E-01  0.38802380496E-01  0.24073080512E-01  0.74914779459E-01  0.51100000000E-03 0. -1.
</event>
<event>
 8    1  0.1115874E+005  0.1043930E+01  0.7957747E-01            NaN
         13   -1    0    0    0    0  0.00000000000E+00  0.00000000000E+00  0.74505805969E-08  0.10566000000E+00  0.10566000000E+00 0.  1.
     999900   -1    0    0    0    0 -0.00000000000E+00 -0.00000000000E+00 -0.74505805969E-08  0.93827000000E+00  0.93827000000E+00 0. -1.
     999902    2    1    2    0    0  0.18025896040E-01  0.18864014398E-01  0.20615876741E-02  0.10177568437E+01  0.10174202469E+01 0.  0.
     999903    2    3    3    0    0 -0.64837715903E-02  0.41831682850E-01 -0.11982679312E+00  0.12872084050E+00  0.20461315831E-01 0.  0.
         14    1    1    2    0    0 -0.18025896040E-01 -0.18864014398E-01 -0.20615876741E-02  0.26173156305E-01  0.00000000000E+00 0. -1.
     999901    1    3    3    0    0  0.24509667630E-01 -0.22967668452E-01  0.12188838080E+00  0.88903600319E+00  0.88000000000E+00 0.  1.
        -11    1    4    4    0    0 -0.64780952741E-02  0.26913840444E-01 -0.48477949481E-01  0.55827352013E-01  0.51100000000E-03 0. -1.
         11    1    4    4    0    0 -0.56763161555E-05  0.14917842406E-01 -0.71348843640E-01  0.72893488489E-01  0.51100000000E-03 0.  1.
</event>
<event>
 8    1  0.1115874E+005  0.1043930E+01  0.7957747E-01            NaN
         13   -1    0    0    0    0  0.00000000000E+00  0.00000000000E+00  0.74505805969E-08  0.10566000000E+00  0.10566000000E+00 0. -1.
     999900   -1    0    0    0    0 -0.00000000000E+00 -0.00000000000E+00 -0.74505805969E-08  0.93827000000E+00  0.93827000000E+00 0. -1.
     999902    2    1    2    0    0  0.18157686521E-02  0.13261522453E-01 -0.19555743747E-01  0.10202320653E+01  0.10199568006E+01 0.  0.
     999903    2    3    3    0    0  0.11634417810E+00  0.25773930560E-01 -0.53277389774E-01  0.13208204066E+00  0.20172306007E-01 0.  0.
         14    1    1    2    0    0 -0.18157686521E-02 -0.13261522453E-01  0.19555743747E-01  0.23697934659E-01  0.00000000000E+00 0. -1.
     999901    1    3    3    0    0 -0.11452840945E+00 -0.12512408106E-01  0.33721646027E-01  0.88815002468E+00  0.88000000000E+00 0. -1.
        -11    1    4    4    0    0  0.36929574951E-01  0.16521013363E-01 -0.12603687244E-01  0.42377487440E-01  0.51100000000E-03 0.  1.
         11    1    4    4    0    0  0.79414603151E-01  0.92529171971E-02 -0.40673702530E-01  0.89704553222E-01  0.51100000000E-03 0. -1.
</event>
<event>
 8    1  0.1115874E+005  0.1043930E+01  0.7957747E-01            NaN
         13   -1    0    0    0    0  0.00000000000E+00  0.00000000000E+00  0.74505805969E-08  0.10566000000E+00  0.10566000000E+00 0.  1.
     999900   -1    0    0    0    0 -0.00000000000E+00 -0.00000000000E+00 -0.74505805969E-08  0.93827000000E+00  0.93827000000E+00 0.  1.
     999902    2    1    2    0    0  0.68211255432E-02  0.70090165329E-02 -0.21296577533E-01  0.10204950201E+01  0.10202259004E+01 0.  0.
     999903    2    3    3    0    0 -0.46577003321E-01 -0.11887652611E+00  0.76218425559E-02  0.12946482703E+00  0.20050018815E-01 0.  0.
         14    1    1    2    0    0 -0.68211255432E-02 -0.70090165329E-02  0.21296577533E-01  0.23434979860E-01  0.00000000000E+00 0.  1.
     999901    1    3    3    0    0  0.53398128864E-01  0.12588554265E+00 -0.28918420089E-01  0.89103019311E+00  0.88000000000E+00 0. -1.
        -11    1    4    4    0    0 -0.35063580236E-01 -0.10717634043E+00  0.54518049227E-02  0.11289909612E+00  0.51100000000E-03 0.  1.
         11    1    4    4    0    0 -0.11513423086E-01 -0.11700185680E-01  0.21700376332E-02  0.16565730906E-01  0.51100000000E-03 0. -1.
</event>
<event>
 7    1  0.1115874E+005  0.1043930E+01  0.7957747E-01            NaN
         13   -1    0    0    0    0  0.00000000000E+00  0.00000000000E+00  0.74505805969E-08  0.10566000000E+00  0.10566000000E+00 0.  1.
     999900   -1    0    0    0    0 -0.00000000000E+00 -0.00000000000E+00 -0.74505805969E-08  0.93827000000E+00  0.93827000000E+00 0.  1.
     999903    2    1    2    0    0  0.92413256115E-01 -0.40397602961E-01 -0.59946229717E-01  0.11914096719E+00  0.20708533885E-01 0.  0.
         14    1    1    2    0    0 -0.38590148148E-01 -0.80285332134E-02  0.84712381452E-02  0.40316482428E-01  0.00000000000E+00 0.  1.
     999901    1    1    2    0    0 -0.53823107967E-01  0.48426136174E-01  0.51474991572E-01  0.88447255038E+00  0.88000000000E+00 0. -1.
        -11    1    3    3    0    0  0.54212519225E-01 -0.14501450976E-01 -0.39691391373E-01  0.68738322581E-01  0.51100000000E-03 0.  1.
         11    1    3    3    0    0  0.38200736890E-01 -0.25896151984E-01 -0.20254838344E-01  0.50402644612E-01  0.51100000000E-03 0. -1.
</event>
<event>
 8    1  0.1115874E+005  0.1043930E+01  0.7957747E-01            NaN
         13   -1    0    0    0    0  0.00000000000E+00  0.00000000000E+00  0.74505805969E-08  0.10566000000E+00  0.10566000000E+00 0.  1.
     999900   -1    0    0    0    0 -0.00000000000E+00 -0.00000000000E+00 -0.74505805969E-08  0.93827000000E+00  0.93827000000E+00 0. -1.
     999902    2    1    2    0    0 -0.11037114880E-01 -0.11031012066E-01  0.16079069669E-01  0.10215238041E+01  0.10212780448E+01 0.  0.
     999903    2    3    3    0    0  0.10037858771E+00  0.92486808335E-02 -0.77086452470E-01  0.12938898290E+00  0.25254480293E-01 0.  0.
         14    1    1    2    0    0  0.11037114880E-01  0.11031012066E-01 -0.16079069669E-01  0.22406195874E-01  0.00000000000E+00 0. -1.
     999901    1    3    3    0    0 -0.11141570259E+00 -0.20279692900E-01  0.93165522139E-01  0.89213482123E+00  0.88000000000E+00 0.  1.
        -11    1    4    4    0    0  0.38515761636E-01  0.79587158620E-02 -0.44722284457E-01  0.59557945739E-01  0.51100000000E-03 0. -1.
         11    1    4    4    0    0  0.61862826071E-01  0.12899649715E-02 -0.32364168012E-01  0.69831037162E-01  0.51100000000E-03 0.  1.
</event>
<event>
 8    1  0.1115874E+005  0.1043930E+01  0.7957747E-01            NaN
         13   -1    0    0    0    0  0.00000000000E+00  0.00000000000E+00  0.74505805969E-08  0.10566000000E+00  0.10566000000E+00 0. -1.
     999900   -1    0    0    0    0 -0.00000000000E+00 -0.00000000000E+00 -0.74505805969E-08  0.93827000000E+00  0.93827000000E+00 0.  1.
     999902    2    1    2    0    0 -0.16559266759E-01 -0.15138821432E-01  0.61119567845E-02  0.10206759843E+01  0.10204110523E+01 0.  0.
     999903    2    3    3    0    0  0.38207669644E-01  0.55462990871E-01 -0.10793489273E+00  0.12882918294E+00  0.20274317109E-01 0.  0.
         14    1    1    2    0    0  0.16559266759E-01  0.15138821432E-01 -0.61119567845E-02  0.23254015689E-01  0.00000000000E+00 0.  1.
     999901    1    3    3    0    0 -0.54766936403E-01 -0.70601812303E-01  0.11404684951E+00  0.89184680137E+00  0.88000000000E+00 0.  1.
        -11    1    4    4    0    0  0.22299176530E-01  0.26633297200E-01 -0.72855620138E-01  0.80714238523E-01  0.51100000000E-03 0. -1.
         11    1    4    4    0    0  0.15908493114E-01  0.28829693671E-01 -0.35079272589E-01  0.48114944422E-01  0.51100000000E-03 0.  1.
</event>
<event>
 8    1  0.1115874E+005  0.1043930E+01  0.7957747E-01            NaN
         13   -1    0    0    0    0  0.00000000000E+00  0.00000000000E+00  0.74505805969E-08  0.10566000000E+00  0.10566000000E+00 0. -1.
     999900   -1    0    0    0    0 -0.00000000000E+00 -0.00000000000E+00 -0.74505805969E-08  0.93827000000E+00  0.93827000000E+00 0.  1.
     999902    2    1    2    0    0 -0.14748407370E-01 -0.14356402041E-01 -0.12188018106E-01  0.10200099334E+01  0.10197294223E+01 0.  0.
     999903    2    3    3    0    0 -0.14961127407E-01  0.12576724317E+00  0.10906505651E-01  0.12862447347E+00  0.19597666203E-01 0.  0.
         14    1    1    2    0    0  0.14748407370E-01  0.14356402041E-01  0.12188018106E-01  0.23920066573E-01  0.00000000000E+00 0. -1.
     999901    1    3    3    0    0  0.21272003727E-03 -0.14012364521E+00 -0.23094523758E-01  0.89138545996E+00  0.88000000000E+00 0.  1.
        -11    1    4    4    0    0  0.19108611383E-02  0.12657167626E-01 -0.36960837447E-02  0.13333320616E-01  0.51100000000E-03 0. -1.
         11    1    4    4    0    0 -0.16871988545E-01  0.11311007555E+00  0.14602589396E-01  0.11529115285E+00  0.51100000000E-03 0.  1.
</event>
<event>
 8    1  0.1115874E+005  0.1043930E+01  0.7957747E-01            NaN
         13   -1    0    0    0    0  0.00000000000E+00  0.00000000000E+00  0.74505805969E-08  0.10566000000E+00  0.10566000000E+00 0.  1.
     999900   -1    0    0    0    0 -0.00000000000E+00 -0.00000000000E+00 -0.74505805969E-08  0.93827000000E+00  0.93827000000E+00 0. -1.
     999902    2    1    2    0    0  0.22108122647E-01  0.73893709487E-02  0.32958683397E-02  0.10203878115E+01  0.10201161950E+01 0.  0.
     999903    2    3    3    0    0 -0.11292688423E+00  0.57077146810E-01 -0.57448541811E-02  0.12865631448E+00  0.22564619135E-01 0.  0.
         14    1    1    2    0    0 -0.22108122647E-01 -0.73893709487E-02 -0.32958683397E-02  0.23542188473E-01  0.00000000000E+00 0. -1.
     999901    1    3    3    0    0  0.13503500688E+00 -0.49687775861E-01  0.90407225208E-02  0.89173149704E+00  0.88000000000E+00 0.  1.
        -11    1    4    4    0    0 -0.10228356957E-01  0.13455714656E-01 -0.18209135153E-02  0.17007421615E-01  0.51100000000E-03 0.  1.
         11    1    4    4    0    0 -0.10269852728E+00  0.43621432154E-01 -0.39239406658E-02  0.11164889287E+00  0.51100000000E-03 0. -1.
</event>
<event>
 8    1  0.1115874E+005  0.1043930E+01  0.7957747E-01            NaN
         13   -1    0    0    0    0  0.00000000000E+00  0.00000000000E+00  0.74505805969E-08  0.10566000000E+00  0.10566000000E+00 0. -1.
     999900   -1    0    0    0    0 -0.00000000000E+00 -0.00000000000E+00 -0.74505805969E-08  0.93827000000E+00  0.93827000000E+00 0. -1.
     999902    2    1    2    0    0  0.14517499774E-01 -0.10971279557E-01  0.14493074550E-01  0.10206668105E+01  0.10204016670E+01 0.  0.
     999903    2    3    3    0    0 -0.23386665192E-01 -0.11975126832E+00  0.47728067734E-01  0.13253710353E+00  0.20020314396E-01 0.  0.
         14    1    1    2    0    0 -0.14517499774E-01  0.10971279557E-01 -0.14493074550E-01  0.23263189478E-01  0.00000000000E+00 0.  1.
     999901    1    3    3    0    0  0.37904164966E-01  0.10877998876E+00 -0.33234993185E-01  0.88812970700E+00  0.88000000000E+00 0. -1.
        -11    1    4    4    0    0 -0.36699088727E-02 -0.26848086178E-01  0.21349588619E-02  0.27186524841E-01  0.51100000000E-03 0.  1.
         11    1    4    4    0    0 -0.19716756319E-01 -0.92903182141E-01  0.45593108873E-01  0.10535057869E+00  0.51100000000E-03 0. -1.
</event>
<event>
 8    1  0.1115874E+005  0.1043930E+01  0.7957747E-01            NaN
         13   -1    0    0    0    0  0.00000000000E+00  0.00000000000E+00  0.74505805969E-08  0.10566000000E+00  0.10566000000E+00 0.  1.
     999900   -1    0    0    0    0 -0.00000000000E+00 -0.00000000000E+00 -0.74505805969E-08  0.93827000000E+00  0.93827000000E+00 0.  1.
     999902    2    1    2    0    0  0.25999639021E-01  0.84337034688E-02  0.48478786452E-02  0.10161701277E+01  0.10157908830E+01 0.  0.
     999903    2    3    3    0    0  0.12457058848E+00 -0.27664583915E-01  0.35306195415E-02  0.12993028792E+00  0.24212676985E-01 0.  0.
         14    1    1    2    0    0 -0.25999639021E-01 -0.84337034688E-02 -0.48478786452E-02  0.27759872312E-01  0.00000000000E+00 0.  1.
     999901    1    3    3    0    0 -0.98570949455E-01  0.36098287384E-01  0.13172591037E-02  0.88623983977E+00  0.88000000000E+00 0. -1.
        -11    1    4    4    0    0  0.14764120178E-01 -0.69372551029E-03  0.79146708054E-02  0.16773897420E-01  0.51100000000E-03 0.  1.
         11    1    4    4    0    0  0.10980646830E+00 -0.26970858405E-01 -0.43840512639E-02  0.11315639050E+00  0.51100000000E-03 0. -1.
</event>
<event>
 8    1  0.1115874E+005  0.1043930E+01  0.7957747E-01            NaN
         13   -1    0    0    0    0  0.00000000000E+00  0.00000000000E+00  0.74505805969E-08  0.10566000000E+00  0.10566000000E+00 0.  1.
     999900   -1    0    0    0    0 -0.00000000000E+00 -0.00000000000E+00 -0.74505805969E-08  0.93827000000E+00  0.93827000000E+00 0. -1.
     999902    2    1    2    0    0  0.88696363010E-03  0.20207941679E-01 -0.87585187633E-02  0.10218877845E+01  0.10216500306E+01 0.  0.
     999903    2    3    3    0    0 -0.13415715526E-02 -0.20579024690E-01  0.12724206340E+00  0.13050419632E+00  0.20383976282E-01 0.  0.
         14    1    1    2    0    0 -0.88696363010E-03 -0.20207941679E-01  0.87585187633E-02  0.22042215458E-01  0.00000000000E+00 0.  1.
     999901    1    3    3    0    0  0.22285351827E-02  0.40786966369E-01 -0.13600058216E+00  0.89138358822E+00  0.88000000000E+00 0. -1.
        -11    1    4    4    0    0  0.41814181042E-02 -0.17558931640E-01  0.11759794267E+00  0.11897620594E+00  0.51100000000E-03 0. -1.
         11    1    4    4    0    0 -0.55229896567E-02 -0.30200930504E-02  0.96441207280E-02  0.11527990389E-01  0.51100000000E-03 0.  1.
</event>
<event>
 8    1  0.1115874E+005  0.1043930E+01  0.7957747E-01            NaN
         13   -1    0    0    0    0  0.00000000000E+00  0.00000000000E+00  0.74505805969E-08  0.10566000000E+00  0.10566000000E+00 0. -1.
     999900   -1    0    0    0    0 -0.00000000000E+00 -0.00000000000E+00 -0.74505805969E-08  0.93827000000E+00  0.93827000000E+00 0. -1.
     999902    2    1    2    0    0 -0.12205572249E-01 -0.19548887331E-01 -0.18902615621E-02  0.10208062443E+01  0.10205443059E+01 0.  0.
     999903    2    3    3    0    0 -0.10448415461E+00  0.29305571052E-01  0.71818545216E-01  0.13157338217E+00  0.19439557553E-01 0.  0.
         14    1    1    2    0    0  0.12205572249E-01  0.19548887331E-01  0.18902615621E-02  0.23123755719E-01  0.00000000000E+00 0. -1.
     999901    1    3    3    0    0  0.92278582364E-01 -0.48854458383E-01 -0.73708806778E-01  0.88923286211E+00  0.88000000000E+00 0. -1.
        -11    1    4    4    0    0 -0.88379471750E-01  0.19869285662E-01  0.65772254897E-01  0.11194628254E+00  0.51100000000E-03 0.  1.
         11    1    4    4    0    0 -0.16104682864E-01  0.94362853897E-02  0.60462903190E-02  0.19627099626E-01  0.51100000000E-03 0. -1.
</event>
<event>
 8    1  0.1115874E+005  0.1043930E+01  0.7957747E-01            NaN
         13   -1    0    0    0    0  0.00000000000E+00  0.00000000000E+00  0.74505805969E-08  0.10566000000E+00  0.10566000000E+00 0. -1.
     999900   -1    0    0    0    0 -0.00000000000E+00 -0.00000000000E+00 -0.74505805969E-08  0.93827000000E+00  0.93827000000E+00 0.  1.
     999902    2    1    2    0    0 -0.11815033649E-01 -0.23345094857E-01  0.13307700741E-02  0.10177315378E+01  0.10173942813E+01 0.  0.
     999903    2    3    3    0    0 -0.70136119531E-01  0.89103569378E-01  0.55071097932E-01  0.12703850761E+00  0.15730074685E-01 0.  0.
         14    1    1    2    0    0  0.11815033649E-01  0.23345094857E-01 -0.13307700741E-02  0.26198462225E-01  0.00000000000E+00 0. -1.
     999901    1    3    3    0    0  0.58321085882E-01 -0.11244866423E+00 -0.53740327858E-01  0.89069303017E+00  0.88000000000E+00 0.  1.
        -11    1    4    4    0    0 -0.38673998049E-01  0.38705078971E-01  0.31358623975E-01  0.63066517914E-01  0.51100000000E-03 0. -1.
         11    1    4    4    0    0 -0.31462121482E-01  0.50398490407E-01  0.23712473957E-01  0.63971989695E-01  0.51100000000E-03 0.  1.
</event>
<event>
 8    1  0.1115874E+005  0.1043930E+01  0.7957747E-01            NaN
         13   -1    0    0    0    0  0.00000000000E+00  0.00000000000E+00  0.74505805969E-08  0.10566000000E+00  0.10566000000E+00 0. -1.
     999900   -1    0    0    0    0 -0.00000000000E+00 -0.00000000000E+00 -0.74505805969E-08  0.93827000000E+00  0.93827000000E+00 0. -1.
     999902    2    1    2    0    0 -0.21862022196E-01  0.81030012680E-02 -0.11773939981E-01  0.10178104229E+01  0.10174752207E+01 0.  0.
     999903    2    3    3    0    0  0.76684690652E-01  0.97343696630E-01  0.23674493766E-01  0.12711858633E+00  0.15566511509E-01 0.  0.
         14    1    1    2    0    0  0.21862022196E-01 -0.81030012680E-02  0.11773939981E-01  0.26119577078E-01  0.00000000000E+00 0. -1.
     999901    1    3    3    0    0 -0.98546712849E-01 -0.89240695362E-01 -0.35448433747E-01  0.89069183660E+00  0.88000000000E+00 0. -1.
        -11    1    4    4    0    0  0.17541786651E-01  0.12862224322E-01  0.47084213583E-02  0.22261658656E-01  0.51100000000E-03 0. -1.
         11    1    4    4    0    0  0.59142904002E-01  0.84481472308E-01  0.18966072408E-01  0.10485692767E+00  0.51100000000E-03 0.  1.
</event>
<event>
 8    1  0.1115874E+005  0.1043930E+01  0.7957747E-01            NaN
         13   -1    0    0    0    0  0.00000000000E+00  0.00000000000E+00  0.74505805969E-08  0.10566000000E+00  0.10566000000E+00 0. -1.
     999900   -1    0    0    0    0 -0.00000000000E+00 -0.00000000000E+00 -0.74505805969E-08  0.93827000000E+00  0.93827000000E+00 0.  1.
     999902    2    1    2    0    0 -0.13689964022E-01 -0.62362581898E-02 -0.17024933405E-01  0.10212109686E+01  0.10209582205E+01 0.  0.
     999903    2    3    3    0    0  0.14305849486E-01 -0.54377393865E-01 -0.11930854249E+00  0.13353801574E+00  0.20888155566E-01 0.  0.
         14    1    1    2    0    0  0.13689964022E-01  0.62362581898E-02  0.17024933405E-01  0.22719031418E-01  0.00000000000E+00 0. -1.
     999901    1    3    3    0    0 -0.27995813508E-01  0.48141135676E-01  0.10228360909E+00  0.88767295284E+00  0.88000000000E+00 0. -1.
        -11    1    4    4    0    0  0.12998192845E-01 -0.12468164844E-01 -0.33916176794E-01  0.38405420465E-01  0.51100000000E-03 0.  1.
         11    1    4    4    0    0  0.13076566408E-02 -0.41909229021E-01 -0.85392365699E-01  0.95132595275E-01  0.51100000000E-03 0. -1.
</event>
<event>
 8    1  0.1115874E+005  0.1043930E+01  0.7957747E-01            NaN
         13   -1    0    0    0    0  0.00000000000E+00  0.00000000000E+00  0.74505805969E-08  0.10566000000E+00  0.10566000000E+00 0.  1.
     999900   -1    0    0    0    0 -0.00000000000E+00 -0.00000000000E+00 -0.74505805969E-08  0.93827000000E+00  0.93827000000E+00 0.  1.
     999902    2    1    2    0    0  0.19516111778E-01 -0.10845191079E-02 -0.10351127144E-01  0.10218121196E+01  0.10215727126E+01 0.  0.
     999903    2    3    3    0    0 -0.15898643270E-01 -0.48853660656E-01  0.11824997809E+00  0.13047921880E+00  0.20057971052E-01 0.  0.
         14    1    1    2    0    0 -0.19516111778E-01  0.10845191079E-02  0.10351127144E-01  0.22117880408E-01  0.00000000000E+00 0. -1.
     999901    1    3    3    0    0  0.35414755048E-01  0.47769141548E-01 -0.12860110524E+00  0.89133290079E+00  0.88000000000E+00 0.  1.
        -11    1    4    4    0    0 -0.10777322419E-01 -0.10558436877E-01  0.47819466783E-01  0.50145725563E-01  0.51100000000E-03 0.  1.
         11    1    4    4    0    0 -0.51213208505E-02 -0.38295223779E-01  0.70430511312E-01  0.80333493241E-01  0.51100000000E-03 0. -1.
</event>
<event>
 8    1  0.1115874E+005  0.1043930E+01  0.7957747E-01            NaN
         13   -1    0    0    0    0  0.00000000000E+00  0.00000000000E+00  0.74505805969E-08  0.10566000000E+00  0.10566000000E+00 0. -1.
     999900   -1    0    0    0    0 -0.00000000000E+00 -0.00000000000E+00 -0.74505805969E-08  0.93827000000E+00  0.93827000000E+00 0. -1.
     999902    2    1    2    0    0  0.68908340636E-02  0.17623037227E-01 -0.13939741994E-01  0.10204274163E+01  0.10201567235E+01 0.  0.
     999903    2    3    3    0    0 -0.25871002419E-01  0.57258782741E-01 -0.11564952368E+00  0.13307787412E+00  0.19673110757E-01 0.  0.
         14    1    1    2    0    0 -0.68908340636E-02 -0.17623037227E-01  0.13939741994E-01  0.23502583732E-01  0.00000000000E+00 0. -1.
     999901    1    3    3    0    0  0.32761836482E-01 -0.39635745514E-01  0.10170978169E+00  0.88734954214E+00  0.88000000000E+00 0.  1.
        -11    1    4    4    0    0 -0.24700269698E-01  0.31576877610E-01 -0.72508554824E-01  0.82855018958E-01  0.51100000000E-03 0. -1.
         11    1    4    4    0    0 -0.11707327205E-02  0.25681905131E-01 -0.43140968856E-01  0.50222855167E-01  0.51100000000E-03 0.  1.
</event>
<event>
 8    1  0.1115874E+005  0.1043930E+01  0.7957747E-01            NaN
         13   -1    0    0    0    0  0.00000000000E+00  0.00000000000E+00  0.74505805969E-08  0.10566000000E+00  0.10566000000E+00 0.  1.
     999900   -1    0    0    0    0 -0.00000000000E+00 -0.00000000000E+00 -0.74505805969E-08  0.93827000000E+00  0.93827000000E+00 0.  1.
     999902    2    1    2    0    0 -0.18386533005E-01  0.12516477880E-01 -0.12447443541E-01  0.10184414601E+01  0.10181224592E+01 0.  0.
     999903    2    3    3    0    0  0.81791982059E-01 -0.78440054262E-01  0.50909934237E-01  0.12584805720E+00  0.20078387763E-01 0.  0.
         14    1    1    2    0    0  0.18386533005E-01 -0.12516477880E-01  0.12447443541E-01  0.25488539879E-01  0.00000000000E+00 0.  1.
     999901    1    3    3    0    0 -0.10017851506E+00  0.90956532142E-01 -0.63357377778E-01  0.89259340292E+00  0.88000000000E+00 0.  1.
        -11    1    4    4    0    0  0.40114311836E-01 -0.42013843385E-01  0.15454102762E-01  0.60111658297E-01  0.51100000000E-03 0. -1.
         11    1    4    4    0    0  0.41677670222E-01 -0.36426210877E-01  0.35455831475E-01  0.65736398902E-01  0.51100000000E-03 0.  1.
</event>
<event>
 8    1  0.1115874E+005  0.1043930E+01  0.7957747E-01            NaN
         13   -1    0    0    0    0  0.00000000000E+00  0.00000000000E+00  0.74505805969E-08  0.10566000000E+00  0.10566000000E+00 0.  1.
     999900   -1    0    0    0    0 -0.00000000000E+00 -0.00000000000E+00 -0.74505805969E-08  0.93827000000E+00  0.93827000000E+00 0.  1.
     999902    2    1    2    0    0 -0.54238830492E-02  0.10267349370E-01  0.19998407727E-01  0.10208048344E+01  0.10205428637E+01 0.  0.
     999903    2    3    3    0    0 -0.58588587585E-01 -0.92416992424E-01  0.71443282352E-01  0.13175076692E+00  0.16751086723E-01 0.  0.
         14    1    1    2    0    0  0.54238830492E-02 -0.10267349370E-01 -0.19998407727E-01  0.23125165557E-01  0.00000000000E+00 0. -1.
     999901    1    3    3    0    0  0.53164704536E-01  0.10268434179E+00 -0.51444874625E-01  0.88905406753E+00  0.88000000000E+00 0.  1.
        -11    1    4    4    0    0 -0.48932716615E-01 -0.82229795222E-01  0.55980875879E-01  0.11086148819E+00  0.51100000000E-03 0. -1.
         11    1    4    4    0    0 -0.96558709704E-02 -0.10187197202E-01  0.15462406473E-01  0.20889278732E-01  0.51100000000E-03 0.  1.
</event>
<event>
 8    1  0.1115874E+005  0.1043930E+01  0.7957747E-01            NaN
         13   -1    0    0    0    0  0.00000000000E+00  0.00000000000E+00  0.74505805969E-08  0.10566000000E+00  0.10566000000E+00 0.  1.
     999900   -1    0    0    0    0 -0.00000000000E+00 -0.00000000000E+00 -0.74505805969E-08  0.93827000000E+00  0.93827000000E+00 0.  1.
     999902    2    1    2    0    0 -0.14914537370E-01  0.13493779002E-01 -0.12233206697E-01  0.10203890390E+01  0.10201174512E+01 0.  0.
     999903    2    3    3    0    0  0.50564479715E-01  0.12743106831E-01  0.11594112445E+00  0.12869586067E+00  0.20028151072E-01 0.  0.
         14    1    1    2    0    0  0.14914537370E-01 -0.13493779002E-01  0.12233206697E-01  0.23540960957E-01  0.00000000000E+00 0. -1.
     999901    1    3    3    0    0 -0.65479017084E-01  0.75067217089E-03 -0.12817433115E+00  0.89169317837E+00  0.88000000000E+00 0. -1.
        -11    1    4    4    0    0  0.29761983522E-01  0.99910471320E-04  0.47537923421E-01  0.56088331491E-01  0.51100000000E-03 0.  1.
         11    1    4    4    0    0  0.20802496192E-01  0.12643196360E-01  0.68403201028E-01  0.72607529182E-01  0.51100000000E-03 0. -1.
</event>
<event>
 8    1  0.1115874E+005  0.1043930E+01  0.7957747E-01            NaN
         13   -1    0    0    0    0  0.00000000000E+00  0.00000000000E+00  0.74505805969E-08  0.10566000000E+00  0.10566000000E+00 0.  1.
     999900   -1    0    0    0    0 -0.00000000000E+00 -0.00000000000E+00 -0.74505805969E-08  0.93827000000E+00  0.93827000000E+00 0. -1.
     999902    2    1    2    0    0 -0.20584087023E-01 -0.72207276922E-02 -0.91831980960E-02  0.10202619905E+01  0.10199874286E+01 0.  0.
     999903    2    3    3    0    0  0.83515184438E-01  0.16649621671E-01 -0.95444002134E-01  0.12961762925E+00  0.20956534416E-01 0.  0.
         14    1    1    2    0    0  0.20584087023E-01  0.72207276922E-02  0.91831980960E-02  0.23668009512E-01  0.00000000000E+00 0.  1.
     999901    1    3    3    0    0 -0.10409927146E+00 -0.23870349363E-01  0.86260804038E-01  0.89064436124E+00  0.88000000000E+00 0.  1.
        -11    1    4    4    0    0  0.82583978325E-02  0.86621203859E-02 -0.14405228852E-01  0.18735132869E-01  0.51100000000E-03 0.  1.
         11    1    4    4    0    0  0.75256786605E-01  0.79875012849E-02 -0.81038773282E-01  0.11088249638E+00  0.51100000000E-03 0. -1.
</event>
<event>
 8    1  0.1115874E+005  0.1043930E+01  0.7957747E-01            NaN
         13   -1    0    0    0    0  0.00000000000E+00  0.00000000000E+00  0.74505805969E-08  0.10566000000E+00  0.10566000000E+00 0. -1.
     999900   -1    0    0    0    0 -0.00000000000E+00 -0.00000000000E+00 -0.74505805969E-08  0.93827000000E+00  0.93827000000E+00 0.  1.
     999902    2    1    2    0    0 -0.56457343810E-03 -0.36522113014E-02 -0.23427131021E-01  0.10202131735E+01  0.10199374645E+01 0.  0.
     999903    2    3    3    0    0 -0.11355955159E+00  0.60816423181E-01 -0.45510222131E-02  0.13044894778E+00  0.20045126309E-01 0.  0.
         14    1    1    2    0    0  0.56457343810E-03  0.36522113014E-02  0.23427131021E-01  0.23716826483E-01  0.00000000000E+00 0. -1.
     999901    1    3    3    0    0  0.11299497815E+00 -0.64468634483E-01 -0.18876108808E-01  0.88976422574E+00  0.88000000000E+00 0. -1.
        -11    1    4    4    0    0 -0.66053759599E-01  0.44607404129E-01  0.25732338767E-02  0.79748368722E-01  0.51100000000E-03 0. -1.
         11    1    4    4    0    0 -0.47505791986E-01  0.16209019052E-01 -0.71242560898E-02  0.50700579057E-01  0.51100000000E-03 0.  1.
</event>
<event>
 8    1  0.1115874E+005  0.1043930E+01  0.7957747E-01            NaN
         13   -1    0    0    0    0  0.00000000000E+00  0.00000000000E+00  0.74505805969E-08  0.10566000000E+00  0.10566000000E+00 0. -1.
     999900   -1    0    0    0    0 -0.00000000000E+00 -0.00000000000E+00 -0.74505805969E-08  0.93827000000E+00  0.93827000000E+00 0. -1.
     999902    2    1    2    0    0  0.17078019449E-01  0.16140700895E-01  0.45318407781E-02  0.10199984611E+01  0.10197176776E+01 0.  0.
     999903    2    3    3    0    0 -0.56887988062E-01 -0.82261459160E-01 -0.76948252532E-01  0.12770200756E+00  0.19585155585E-01 0.  0.
         14    1    1    2    0    0 -0.17078019449E-01 -0.16140700895E-01 -0.45318407781E-02  0.23931538909E-01  0.00000000000E+00 0.  1.
     999901    1    3    3    0    0  0.73966007512E-01  0.98402160056E-01  0.81480093310E-01  0.89229645353E+00  0.88000000000E+00 0.  1.
        -11    1    4    4    0    0 -0.17641276849E-01 -0.41706719909E-01 -0.38149202216E-01  0.59213916313E-01  0.51100000000E-03 0.  1.
         11    1    4    4    0    0 -0.39246711214E-01 -0.40554739252E-01 -0.38799050316E-01  0.68488091251E-01  0.51100000000E-03 0. -1.
</event>
<event>
 8    1  0.1115874E+005  0.1043930E+01  0.7957747E-01            NaN
         13   -1    0    0    0    0  0.00000000000E+00  0.00000000000E+00  0.74505805969E-08  0.10566000000E+00  0.10566000000E+00 0. -1.
     999900   -1    0    0    0    0 -0.00000000000E+00 -0.00000000000E+00 -0.74505805969E-08  0.93827000000E+00  0.93827000000E+00 0. -1.
     999902    2    1    2    0    0  0.74493808360E-02  0.17846069619E-01  0.13075942005E-01  0.10205857130E+01  0.10203186962E+01 0.  0.
     999903    2    3    3    0    0 -0.11471046549E+00  0.44255291411E-01 -0.37811016829E-01  0.13029926606E+00  0.20765452824E-01 0.  0.
         14    1    1    2    0    0 -0.74493808360E-02 -0.17846069619E-01 -0.13075942005E-01  0.23344286989E-01  0.00000000000E+00 0.  1.
     999901    1    3    3    0    0  0.12215984632E+00 -0.26409221792E-01  0.50886958834E-01  0.89028644695E+00  0.88000000000E+00 0.  1.
        -11    1    4    4    0    0 -0.35799753009E-01  0.23613963949E-01 -0.92452497792E-02  0.43874564082E-01  0.51100000000E-03 0. -1.
         11    1    4    4    0    0 -0.78910712480E-01  0.20641327462E-01 -0.28565767050E-01  0.86424701976E-01  0.51100000000E-03 0.  1.
</event>
<event>
 8    1  0.1115874E+005  0.1043930E+01  0.7957747E-01            NaN
         13   -1    0    0    0    0  0.00000000000E+00  0.00000000000E+00  0.74505805969E-08  0.10566000000E+00  0.10566000000E+00 0. -1.
     999900   -1    0    0    0    0 -0.00000000000E+00 -0.00000000000E+00 -0.74505805969E-08  0.93827000000E+00  0.93827000000E+00 0. -1.
     999902    2    1    2    0    0  0.19954694379E-01  0.11583990107E-01  0.13120530144E-02  0.10208193934E+01  0.10205577562E+01 0.  0.
     999903    2    3    3    0    0 -0.67149497579E-01 -0.55408171236E-01 -0.92956209477E-01  0.12898891889E+00  0.20449055036E-01 0.  0.
         14    1    1    2    0    0 -0.19954694379E-01 -0.11583990107E-01 -0.13120530144E-02  0.23110606605E-01  0.00000000000E+00 0. -1.
     999901    1    3    3    0    0  0.87104191958E-01  0.66992161343E-01  0.94268262491E-01  0.89183047450E+00  0.88000000000E+00 0.  1.
        -11    1    4    4    0    0 -0.19282105260E-01 -0.23620118813E-01 -0.21593069812E-01  0.37366179640E-01  0.51100000000E-03 0. -1.
         11    1    4    4    0    0 -0.47867392320E-01 -0.31788052423E-01 -0.71363139664E-01  0.91622739252E-01  0.51100000000E-03 0.  1.
</event>
<event>
 8    1  0.1115874E+005  0.1043930E+01  0.7957747E-01            NaN
         13   -1    0    0    0    0  0.00000000000E+00  0.00000000000E+00  0.74505805969E-08  0.10566000000E+00  0.10566000000E+00 0. -1.
     999900   -1    0    0    0    0 -0.00000000000E+00 -0.00000000000E+00 -0.74505805969E-08  0.93827000000E+00  0.93827000000E+00 0. -1.
     999902    2    1    2    0    0 -0.13567173349E-01 -0.18776161904E-01 -0.90465737238E-02  0.10190612858E+01  0.10187577982E+01 0.  0.
     999903    2    3    3    0    0  0.87861606297E-01  0.70462226922E-01 -0.56347154575E-01  0.12749601490E+00  0.19890819533E-01 0.  0.
         14    1    1    2    0    0  0.13567173349E-01  0.18776161904E-01  0.90465737238E-02  0.24868714174E-01  0.00000000000E+00 0. -1.
     999901    1    3    3    0    0 -0.10142877965E+00 -0.89238388825E-01  0.47300580852E-01  0.89156527093E+00  0.88000000000E+00 0. -1.
        -11    1    4    4    0    0  0.37192304229E-01  0.33182229421E-01 -0.14395797331E-01  0.51882829000E-01  0.51100000000E-03 0. -1.
         11    1    4    4    0    0  0.50669302068E-01  0.37279997500E-01 -0.41951357244E-01  0.75613185896E-01  0.51100000000E-03 0.  1.
</event>
<event>
 8    1  0.1115874E+005  0.1043930E+01  0.7957747E-01            NaN
         13   -1    0    0    0    0  0.00000000000E+00  0.00000000000E+00  0.74505805969E-08  0.10566000000E+00  0.10566000000E+00 0. -1.
     999900   -1    0    0    0    0 -0.00000000000E+00 -0.00000000000E+00 -0.74505805969E-08  0.93827000000E+00  0.93827000000E+00 0. -1.
     999902    2    1    2    0    0 -0.22784329801E-01 -0.60585934761E-02  0.10149862116E-01  0.10182618886E+01  0.10179383193E+01 0.  0.
     999903    2    3    3    0    0  0.38919180169E-01  0.93925561280E-01 -0.72694918757E-01  0.12659636164E+00  0.20133899756E-01 0.  0.
         14    1    1    2    0    0  0.22784329801E-01  0.60585934761E-02 -0.10149862116E-01  0.25668111352E-01  0.00000000000E+00 0.  1.
     999901    1    3    3    0    0 -0.61703509970E-01 -0.99984154756E-01  0.82844780873E-01  0.89166552701E+00  0.88000000000E+00 0. -1.
        -11    1    4    4    0    0  0.27686496986E-01  0.68179112990E-01 -0.40987751489E-01  0.84232953507E-01  0.51100000000E-03 0. -1.
         11    1    4    4    0    0  0.11232683183E-01  0.25746448291E-01 -0.31707167269E-01  0.42363408129E-01  0.51100000000E-03 0.  1.
</event>
<event>
 8    1  0.1115874E+005  0.1043930E+01  0.7957747E-01            NaN
         13   -1    0    0    0    0  0.00000000000E+00  0.00000000000E+00  0.74505805969E-08  0.10566000000E+00  0.10566000000E+00 0. -1.
     999900   -1    0    0    0    0 -0.00000000000E+00 -0.00000000000E+00 -0.74505805969E-08  0.93827000000E+00  0.93827000000E+00 0.  1.
     999902    2    1    2    0    0  0.45273510704E-02  0.52447098729E-02  0.24131067816E-01  0.10188239783E+01  0.10185145981E+01 0.  0.
     999903    2    3    3    0    0  0.10469050553E+00 -0.45430781381E-02  0.76911509149E-01  0.13151668474E+00  0.20012911252E-01 0.  0.
         14    1    1    2    0    0 -0.45273510704E-02 -0.52447098729E-02 -0.24131067816E-01  0.25106021654E-01  0.00000000000E+00 0.  1.
     999901    1    3    3    0    0 -0.10016315446E+00  0.97877880111E-02 -0.52780441333E-01  0.88730729361E+00  0.88000000000E+00 0. -1.
        -11    1    4    4    0    0  0.49810783706E-01 -0.10772403695E-01  0.43172786279E-01  0.66793034449E-01  0.51100000000E-03 0.  1.
         11    1    4    4    0    0  0.54879721826E-01  0.62293255570E-02  0.33738722871E-01  0.64723650287E-01  0.51100000000E-03 0. -1.
</event>
<event>
 8    1  0.1115874E+005  0.1043930E+01  0.7957747E-01            NaN
         13   -1    0    0    0    0  0.00000000000E+00  0.00000000000E+00  0.74505805969E-08  0.10566000000E+00  0.10566000000E+00 0. -1.
     999900   -1    0    0    0    0 -0.00000000000E+00 -0.00000000000E+00 -0.74505805969E-08  0.93827000000E+00  0.93827000000E+00 0. -1.
     999902    2    1    2    0    0  0.18697710904E-01 -0.41695782528E-02 -0.13070321162E-01  0.10207389873E+01  0.10204755054E+01 0.  0.
     999903    2    3    3    0    0 -0.35116565814E-01 -0.84018022081E-01 -0.93259500437E-01  0.13186213707E+00  0.19952131264E-01 0.  0.
         14    1    1    2    0    0 -0.18697710904E-01  0.41695782528E-02  0.13070321162E-01  0.23191012723E-01  0.00000000000E+00 0. -1.
     999901    1    3    3    0    0  0.53814276718E-01  0.79848443828E-01  0.80189179275E-01  0.88887685021E+00  0.88000000000E+00 0.  1.
        -11    1    4    4    0    0 -0.25485361991E-01 -0.62205017583E-01 -0.80277615894E-01  0.10470780593E+00  0.51100000000E-03 0.  1.
         11    1    4    4    0    0 -0.96312038230E-02 -0.21813004498E-01 -0.12981884543E-01  0.27154331139E-01  0.51100000000E-03 0. -1.
</event>
<event>
 8    1  0.1115874E+005  0.1043930E+01  0.7957747E-01            NaN
         13   -1    0    0    0    0  0.00000000000E+00  0.00000000000E+00  0.74505805969E-08  0.10566000000E+00  0.10566000000E+00 0. -1.
     999900   -1    0    0    0    0 -0.00000000000E+00 -0.00000000000E+00 -0.74505805969E-08  0.93827000000E+00  0.93827000000E+00 0.  1.
     999902    2    1    2    0    0  0.10438917266E-02 -0.35534113715E-02 -0.25973418995E-01  0.10176938620E+01  0.10173556221E+01 0.  0.
     999903    2    3    3    0    0  0.39057889090E-01  0.54187784165E-01 -0.11092667456E+00  0.13090405304E+00  0.19217422319E-01 0.  0.
         14    1    1    2    0    0 -0.10438917266E-02  0.35534113715E-02  0.25973418995E-01  0.26236137990E-01  0.00000000000E+00 0. -1.
     999901    1    3    3    0    0 -0.38013997363E-01 -0.57741195537E-01  0.84953255567E-01  0.88678980897E+00  0.88000000000E+00 0. -1.
        -11    1    4    4    0    0  0.41093850544E-02  0.16693818710E-01 -0.38565652349E-01  0.42227257675E-01  0.51100000000E-03 0.  1.
         11    1    4    4    0    0  0.34948504035E-01  0.37493965455E-01 -0.72361022213E-01  0.88676795367E-01  0.51100000000E-03 0. -1.
</event>
<event>
 8    1  0.1115874E+005  0.1043930E+01  0.7957747E-01            NaN
         13   -1    0    0    0    0  0.00000000000E+00  0.00000000000E+00  0.74505805969E-08  0.10566000000E+00  0.10566000000E+00 0. -1.
     999900   -1    0    0    0    0 -0.00000000000E+00 -0.00000000000E+00 -0.74505805969E-08  0.93827000000E+00  0.93827000000E+00 0.  1.
     999902    2    1    2    0    0 -0.87788833458E-02  0.25114480886E-01  0.18945374104E-02  0.10172580069E+01  0.10169082837E+01 0.  0.
     999903    2    3    3    0    0  0.38417130115E-01 -0.57338106372E-01 -0.10339300009E+00  0.12590434064E+00  0.19956357281E-01 0.  0.
         14    1    1    2    0    0  0.87788833458E-02 -0.25114480886E-01 -0.18945374104E-02  0.26671993082E-01  0.00000000000E+00 0. -1.
     999901    1    3    3    0    0 -0.47196013461E-01  0.82452587258E-01  0.10528753750E+00  0.89135366628E+00  0.88000000000E+00 0. -1.
        -11    1    4    4    0    0  0.29933047781E-01 -0.35543316139E-01 -0.53941641449E-01  0.71198851640E-01  0.51100000000E-03 0.  1.
         11    1    4    4    0    0  0.84840823337E-02 -0.21794790233E-01 -0.49451358641E-01  0.54705489001E-01  0.51100000000E-03 0. -1.
</event>
<event>
 8    1  0.1115874E+005  0.1043930E+01  0.7957747E-01            NaN
         13   -1    0    0    0    0  0.00000000000E+00  0.00000000000E+00  0.74505805969E-08  0.10566000000E+00  0.10566000000E+00 0.  1.
     999900   -1    0    0    0    0 -0.00000000000E+00 -0.00000000000E+00 -0.74505805969E-08  0.93827000000E+00  0.93827000000E+00 0.  1.
     999902    2    1    2    0    0 -0.13260517991E-01  0.22148308857E-01  0.41638737918E-02  0.10177818305E+01  0.10174458844E+01 0.  0.
     999903    2    3    3    0    0  0.10548986009E+00  0.62381058295E-01  0.32918157814E-01  0.12842974316E+00  0.19775914612E-01 0.  0.
         14    1    1    2    0    0  0.13260517991E-01 -0.22148308857E-01 -0.41638737918E-02  0.26148169488E-01  0.00000000000E+00 0. -1.
     999901    1    3    3    0    0 -0.11875037808E+00 -0.40232749438E-01 -0.28754284022E-01  0.88935208735E+00  0.88000000000E+00 0. -1.
        -11    1    4    4    0    0  0.29687058108E-01  0.82329626138E-02  0.52988566754E-02  0.31264070362E-01  0.51100000000E-03 0.  1.
         11    1    4    4    0    0  0.75802801985E-01  0.54148095681E-01  0.27619301139E-01  0.97165672801E-01  0.51100000000E-03 0. -1.
</event>
<event>
 8    1  0.1115874E+005  0.1043930E+01  0.7957747E-01            NaN
         13   -1    0    0    0    0  0.00000000000E+00  0.00000000000E+00  0.74505805969E-08  0.10566000000E+00  0.10566000000E+00 0.  1.
     999900   -1    0    0    0    0 -0.00000000000E+00 -0.00000000000E+00 -0.74505805969E-08  0.93827000000E+00  0.93827000000E+00 0. -1.
     999902    2    1    2    0    0  0.18004316518E-02  0.12345465473E-01 -0.20418386564E-01  0.10200017200E+01  0.10197210140E+01 0.  0.
     999903    2    3    3    0    0  0.67986408633E-01  0.82834278300E-01 -0.76262208209E-01  0.13294603481E+00  0.19366320023E-01 0.  0.
         14    1    1    2    0    0 -0.18004316518E-02 -0.12345465473E-01  0.20418386564E-01  0.23928279957E-01  0.00000000000E+00 0.  1.
     999901    1    3    3    0    0 -0.66185976981E-01 -0.70488812827E-01  0.55843821645E-01  0.88705568523E+00  0.88000000000E+00 0.  1.
        -11    1    4    4    0    0  0.29528049553E-01  0.36782413785E-01 -0.45415944118E-01  0.65480690096E-01  0.51100000000E-03 0.  1.
         11    1    4    4    0    0  0.38458359080E-01  0.46051864515E-01 -0.30846264090E-01  0.67465344717E-01  0.51100000000E-03 0. -1.
</event>
<event>
 8    1  0.1115874E+005  0.1043930E+01  0.7957747E-01            NaN
         13   -1    0    0    0    0  0.00000000000E+00  0.00000000000E+00  0.74505805969E-08  0.10566000000E+00  0.10566000000E+00 0.  1.
     999900   -1    0    0    0    0 -0.00000000000E+00 -0.00000000000E+00 -0.74505805969E-08  0.93827000000E+00  0.93827000000E+00 0. -1.
     999902    2    1    2    0    0 -0.31637967020E-02  0.18100422137E-01  0.15550929721E-01  0.10198578936E+01  0.10195737623E+01 0.  0.
     999903    2    3    3    0    0  0.54030320197E-01  0.61130894354E-01  0.10277491522E+00  0.13265396429E+00  0.19445546984E-01 0.  0.
         14    1    1    2    0    0  0.31637967020E-02 -0.18100422137E-01 -0.15550929721E-01  0.24072106396E-01  0.00000000000E+00 0. -1.
     999901    1    3    3    0    0 -0.57194116899E-01 -0.43030472217E-01 -0.87223985500E-01  0.88720392932E+00  0.88000000000E+00 0. -1.
        -11    1    4    4    0    0  0.36453365549E-01  0.46446850067E-01  0.85743596512E-01  0.10410755595E+00  0.51100000000E-03 0.  1.
         11    1    4    4    0    0  0.17576954648E-01  0.14684044287E-01  0.17031318709E-01  0.28546408343E-01  0.51100000000E-03 0. -1.
</event>
<event>
 8    1  0.1115874E+005  0.1043930E+01  0.7957747E-01            NaN
         13   -1    0    0    0    0  0.00000000000E+00  0.00000000000E+00  0.74505805969E-08  0.10566000000E+00  0.10566000000E+00 0. -1.
     999900   -1    0    0    0    0 -0.00000000000E+00 -0.00000000000E+00 -0.74505805969E-08  0.93827000000E+00  0.93827000000E+00 0.  1.
     999902    2    1    2    0    0 -0.21118474240E-01  0.51585827458E-02 -0.80686050029E-02  0.10207415693E+01  0.10204781468E+01 0.  0.
     999903    2    3    3    0    0 -0.90935645372E-01  0.93223963024E-01 -0.21196357564E-01  0.13349736029E+00  0.20304205220E-01 0.  0.
         14    1    1    2    0    0  0.21118474240E-01 -0.51585827458E-02  0.80686050029E-02  0.23188430669E-01  0.00000000000E+00 0. -1.
     999901    1    3    3    0    0  0.69817171131E-01 -0.88065380279E-01  0.13127752561E-01  0.88724420904E+00  0.88000000000E+00 0. -1.
        -11    1    4    4    0    0 -0.60759087166E-01  0.73013695761E-01 -0.20457816480E-01  0.97167123134E-01  0.51100000000E-03 0. -1.
         11    1    4    4    0    0 -0.30176558205E-01  0.20210267264E-01 -0.73854108344E-03  0.36330237158E-01  0.51100000000E-03 0.  1.
</event>
<event>
 8    1  0.1115874E+005  0.1043930E+01  0.7957747E-01            NaN
         13   -1    0    0    0    0  0.00000000000E+00  0.00000000000E+00  0.74505805969E-08  0.10566000000E+00  0.10566000000E+00 0. -1.
     999900   -1    0    0    0    0 -0.00000000000E+00 -0.00000000000E+00 -0.74505805969E-08  0.93827000000E+00  0.93827000000E+00 0.  1.
     999902    2    1    2    0    0 -0.17987055729E-01  0.61320122457E-02  0.14042190589E-01  0.10203012280E+01  0.10200275864E+01 0.  0.
     999903    2    3    3    0    0  0.34641201134E-01  0.11029773146E+00  0.59154882162E-01  0.13145063012E+00  0.20355974419E-01 0.  0.
         14    1    1    2    0    0  0.17987055729E-01 -0.61320122457E-02 -0.14042190589E-01  0.23628771964E-01  0.00000000000E+00 0.  1.
     999901    1    3    3    0    0 -0.52628256863E-01 -0.10416571921E+00 -0.45112691573E-01  0.88885059792E+00  0.88000000000E+00 0.  1.
        -11    1    4    4    0    0  0.24878594752E-01  0.49117315269E-01  0.33054609792E-01  0.64220896020E-01  0.51100000000E-03 0. -1.
         11    1    4    4    0    0  0.97626063818E-02  0.61180416186E-01  0.26100272370E-01  0.67229734098E-01  0.51100000000E-03 0.  1.
</event>
<event>
 8    1  0.1115874E+005  0.1043930E+01  0.7957747E-01            NaN
         13   -1    0    0    0    0  0.00000000000E+00  0.00000000000E+00  0.74505805969E-08  0.10566000000E+00  0.10566000000E+00 0. -1.
     999900   -1    0    0    0    0 -0.00000000000E+00 -0.00000000000E+00 -0.74505805969E-08  0.93827000000E+00  0.93827000000E+00 0.  1.
     999902    2    1    2    0    0 -0.68402964465E-02  0.12016048547E-01 -0.20228755161E-01  0.10194273958E+01  0.10191328852E+01 0.  0.
     999903    2    3    3    0    0  0.51349883641E-01 -0.70172586767E-01  0.90003891453E-01  0.12685117763E+00  0.20724823410E-01 0.  0.
         14    1    1    2    0    0  0.68402964465E-02 -0.12016048547E-01  0.20228755161E-01  0.24502604219E-01  0.00000000000E+00 0. -1.
     999901    1    3    3    0    0 -0.58190180087E-01  0.82188635314E-01 -0.11023264661E+00  0.89257621815E+00  0.88000000000E+00 0.  1.
        -11    1    4    4    0    0  0.34430053537E-01 -0.46902209182E-01  0.73272137224E-01  0.93564485929E-01  0.51100000000E-03 0. -1.
         11    1    4    4    0    0  0.16919830104E-01 -0.23270377585E-01  0.16731754229E-01  0.33286691699E-01  0.51100000000E-03 0.  1.
</event>
<event>
 8    1  0.1115874E+005  0.1043930E+01  0.7957747E-01            NaN
         13   -1    0    0    0    0  0.00000000000E+00  0.00000000000E+00  0.74505805969E-08  0.10566000000E+00  0.10566000000E+00 0.  1.
     999900   -1    0    0    0    0 -0.00000000000E+00 -0.00000000000E+00 -0.74505805969E-08  0.93827000000E+00  0.93827000000E+00 0.  1.
     999902    2    1    2    0    0  0.25131901540E-02  0.17149032600E-01 -0.15276298127E-01  0.10208265213E+01  0.10205650473E+01 0.  0.
     999903    2    3    3    0    0  0.57704604952E-01  0.10959493298E+00 -0.46193006024E-01  0.13372552389E+00  0.20195325374E-01 0.  0.
         14    1    1    2    0    0 -0.25131901540E-02 -0.17149032600E-01  0.15276298127E-01  0.23103478706E-01  0.00000000000E+00 0.  1.
     999901    1    3    3    0    0 -0.55191414798E-01 -0.92445900381E-01  0.30916707897E-01  0.88710099740E+00  0.88000000000E+00 0. -1.
        -11    1    4    4    0    0  0.34372639577E-01  0.78075144488E-01 -0.23809183729E-01  0.88568306347E-01  0.51100000000E-03 0.  1.
         11    1    4    4    0    0  0.23331965375E-01  0.31519788493E-01 -0.22383822295E-01  0.45157217545E-01  0.51100000000E-03 0. -1.
</event>
<event>
 8    1  0.1115874E+005  0.1043930E+01  0.7957747E-01            NaN
         13   -1    0    0    0    0  0.00000000000E+00  0.00000000000E+00  0.74505805969E-08  0.10566000000E+00  0.10566000000E+00 0.  1.
     999900   -1    0    0    0    0 -0.00000000000E+00 -0.00000000000E+00 -0.74505805969E-08  0.93827000000E+00  0.93827000000E+00 0. -1.
     999902    2    1    2    0    0  0.12940033889E-01 -0.12775246903E-01 -0.15609925293E-01  0.10199650010E+01  0.10196834225E+01 0.  0.
     999903    2    3    3    0    0 -0.11413814233E+00  0.14530605875E-01  0.51953443992E-01  0.12785554506E+00  0.20229335615E-01 0.  0.
         14    1    1    2    0    0 -0.12940033889E-01  0.12775246903E-01  0.15609925293E-01  0.23964999022E-01  0.00000000000E+00 0.  1.
     999901    1    3    3    0    0  0.12707817622E+00 -0.27305852778E-01 -0.67563369284E-01  0.89210945592E+00  0.88000000000E+00 0. -1.
        -11    1    4    4    0    0 -0.64032366150E-01  0.13247505252E-01  0.38794195418E-01  0.76032171015E-01  0.51100000000E-03 0.  1.
         11    1    4    4    0    0 -0.50105776177E-01  0.12831006232E-02  0.13159248574E-01  0.51823374046E-01  0.51100000000E-03 0. -1.
</event>
<event>
 8    1  0.1115874E+005  0.1043930E+01  0.7957747E-01            NaN
         13   -1    0    0    0    0  0.00000000000E+00  0.00000000000E+00  0.74505805969E-08  0.10566000000E+00  0.10566000000E+00 0. -1.
     999900   -1    0    0    0    0 -0.00000000000E+00 -0.00000000000E+00 -0.74505805969E-08  0.93827000000E+00  0.93827000000E+00 0. -1.
     999902    2    1    2    0    0 -0.15078238248E-01  0.61426525189E-03  0.18212225779E-01  0.10202780284E+01  0.10200038429E+01 0.  0.
     999903    2    3    3    0    0  0.12989197148E-01  0.12329173355E+00 -0.32542294188E-01  0.12987724035E+00  0.20964871673E-01 0.  0.
         14    1    1    2    0    0  0.15078238248E-01 -0.61426525189E-03 -0.18212225779E-01  0.23651971551E-01  0.00000000000E+00 0.  1.
     999901    1    3    3    0    0 -0.28067435396E-01 -0.12267746830E+00  0.50754519966E-01  0.89040078810E+00  0.88000000000E+00 0.  1.
        -11    1    4    4    0    0  0.11988493119E-01  0.61189268631E-01 -0.71069665014E-02  0.62758430961E-01  0.51100000000E-03 0.  1.
         11    1    4    4    0    0  0.10007040291E-02  0.62102464920E-01 -0.25435327686E-01  0.67118809384E-01  0.51100000000E-03 0. -1.
</event>
<event>
 8    1  0.1115874E+005  0.1043930E+01  0.7957747E-01            NaN
         13   -1    0    0    0    0  0.00000000000E+00  0.00000000000E+00  0.74505805969E-08  0.10566000000E+00  0.10566000000E+00 0. -1.
     999900   -1    0    0    0    0 -0.00000000000E+00 -0.00000000000E+00 -0.74505805969E-08  0.93827000000E+00  0.93827000000E+00 0.  1.
     999902    2    1    2    0    0  0.87275366021E-02  0.15218357746E-01  0.13955986125E-01  0.10215126439E+01  0.10212666369E+01 0.  0.
     999903    2    3    3    0    0  0.11184507246E+00 -0.13680763948E-01  0.68516446285E-01  0.13334304899E+00  0.19732758723E-01 0.  0.
         14    1    1    2    0    0 -0.87275366021E-02 -0.15218357746E-01 -0.13955986125E-01  0.22417356141E-01  0.00000000000E+00 0. -1.
     999901    1    3    3    0    0 -0.10311753586E+00  0.28899121694E-01 -0.54560460160E-01  0.88816959487E+00  0.88000000000E+00 0.  1.
        -11    1    4    4    0    0  0.34615420302E-01  0.48601175839E-02  0.20168830058E-01  0.40359520469E-01  0.51100000000E-03 0. -1.
         11    1    4    4    0    0  0.77229652157E-01 -0.18540881532E-01  0.48347616228E-01  0.92983528521E-01  0.51100000000E-03 0.  1.
</event>
<event>
 8    1  0.1115874E+005  0.1043930E+01  0.7957747E-01            NaN
         13   -1    0    0    0    0  0.00000000000E+00  0.00000000000E+00  0.74505805969E-08  0.10566000000E+00  0.10566000000E+00 0. -1.
     999900   -1    0    0    0    0 -0.00000000000E+00 -0.00000000000E+00 -0.74505805969E-08  0.93827000000E+00  0.93827000000E+00 0.  1.
     999902    2    1    2    0    0  0.12715305269E-01 -0.20204328827E-01  0.26382343884E-02  0.10199122113E+01  0.10196293761E+01 0.  0.
     999903    2    3    3    0    0  0.51813739032E-01 -0.49354385696E-01 -0.10863038220E+00  0.13156592842E+00  0.19710774858E-01 0.  0.
         14    1    1    2    0    0 -0.12715305269E-01  0.20204328827E-01 -0.26382343884E-02  0.24017788660E-01  0.00000000000E+00 0. -1.
     999901    1    3    3    0    0 -0.39098433763E-01  0.29150056869E-01  0.11126861658E+00  0.88834628292E+00  0.88000000000E+00 0. -1.
        -11    1    4    4    0    0  0.31478051230E-01 -0.20036616583E-01 -0.43608136728E-01  0.57395682967E-01  0.51100000000E-03 0.  1.
         11    1    4    4    0    0  0.20335687802E-01 -0.29317769113E-01 -0.65022245467E-01  0.74170245454E-01  0.51100000000E-03 0. -1.
</event>
<event>
 8    1  0.1115874E+005  0.1043930E+01  0.7957747E-01            NaN
         13   -1    0    0    0    0  0.00000000000E+00  0.00000000000E+00  0.74505805969E-08  0.10566000000E+00  0.10566000000E+00 0. -1.
     999900   -1    0    0    0    0 -0.00000000000E+00 -0.00000000000E+00 -0.74505805969E-08  0.93827000000E+00  0.93827000000E+00 0.  1.
     999902    2    1    2    0    0 -0.29585423348E-02 -0.22174948292E-01  0.62064370974E-02  0.10207136014E+01  0.10204495357E+01 0.  0.
     999903    2    3    3    0    0 -0.10090369645E+00 -0.59864992632E-01 -0.57729837275E-01  0.13217455335E+00  0.19287434773E-01 0.  0.
         14    1    1    2    0    0  0.29585423348E-02  0.22174948292E-01 -0.62064370974E-02  0.23216398643E-01  0.00000000000E+00 0.  1.
     999901    1    3    3    0    0  0.97945154118E-01  0.37690044340E-01  0.63936274372E-01  0.88853904801E+00  0.88000000000E+00 0. -1.
        -11    1    4    4    0    0 -0.67142104181E-01 -0.38919008854E-01 -0.27830739288E-01  0.82447332124E-01  0.51100000000E-03 0. -1.
         11    1    4    4    0    0 -0.33761592272E-01 -0.20945983778E-01 -0.29899097987E-01  0.49727221223E-01  0.51100000000E-03 0.  1.
</event>
<event>
 8    1  0.1115874E+005  0.1043930E+01  0.7957747E-01            NaN
         13   -1    0    0    0    0  0.00000000000E+00  0.00000000000E+00  0.74505805969E-08  0.10566000000E+00  0.10566000000E+00 0. -1.
     999900   -1    0    0    0    0 -0.00000000000E+00 -0.00000000000E+00 -0.74505805969E-08  0.93827000000E+00  0.93827000000E+00 0.  1.
     999902    2    1    2    0    0 -0.16431829590E-01 -0.92569102461E-02  0.14143034405E-01  0.10203562682E+01  0.10200839147E+01 0.  0.
     999903    2    3    3    0    0 -0.99244232013E-01 -0.75467734756E-01  0.43410904088E-01  0.13350883174E+00  0.19882278087E-01 0.  0.
         14    1    1    2    0    0  0.16431829590E-01  0.92569102461E-02 -0.14143034405E-01  0.23573731846E-01  0.00000000000E+00 0.  1.
     999901    1    3    3    0    0  0.82812402423E-01  0.66210824509E-01 -0.29267869683E-01  0.88684743641E+00  0.88000000000E+00 0.  1.
        -11    1    4    4    0    0 -0.54292458544E-01 -0.47256719127E-01  0.34005725756E-01  0.79608536368E-01  0.51100000000E-03 0.  1.
         11    1    4    4    0    0 -0.44951773469E-01 -0.28211015629E-01  0.94051783317E-02  0.53900295373E-01  0.51100000000E-03 0. -1.
</event>
<event>
 8    1  0.1115874E+005  0.1043930E+01  0.7957747E-01            NaN
         13   -1    0    0    0    0  0.00000000000E+00  0.00000000000E+00  0.74505805969E-08  0.10566000000E+00  0.10566000000E+00 0.  1.
     999900   -1    0    0    0    0 -0.00000000000E+00 -0.00000000000E+00 -0.74505805969E-08  0.93827000000E+00  0.93827000000E+00 0. -1.
     999902    2    1    2    0    0 -0.15366242975E-02 -0.39759493231E-02  0.21731426196E-01  0.10217844751E+01  0.10215444627E+01 0.  0.
     999903    2    3    3    0    0 -0.13035355405E+00 -0.41885289805E-02  0.10438445216E-01  0.13233443269E+00  0.19845606762E-01 0.  0.
         14    1    1    2    0    0  0.15366242975E-02  0.39759493231E-02 -0.21731426196E-01  0.22145524870E-01  0.00000000000E+00 0. -1.
     999901    1    3    3    0    0  0.12881692975E+00  0.21257965739E-03  0.11292980980E-01  0.88945004244E+00  0.88000000000E+00 0.  1.
        -11    1    4    4    0    0 -0.73933076474E-01 -0.89348954942E-02 -0.14093340865E-02  0.74486102717E-01  0.51100000000E-03 0. -1.
         11    1    4    4    0    0 -0.56420477576E-01  0.47463665137E-02  0.11847779303E-01  0.57848329970E-01  0.51100000000E-03 0.  1.
</event>
<event>
 8    1  0.1115874E+005  0.1043930E+01  0.7957747E-01            NaN
         13   -1    0    0    0    0  0.00000000000E+00  0.00000000000E+00  0.74505805969E-08  0.10566000000E+00  0.10566000000E+00 0.  1.
     999900   -1    0    0    0    0 -0.00000000000E+00 -0.00000000000E+00 -0.74505805969E-08  0.93827000000E+00  0.93827000000E+00 0. -1.
     999902    2    1    2    0    0 -0.10741133426E-01  0.16086934417E-01  0.15089156561E-01  0.10193974899E+01  0.10191022512E+01 0.  0.
     999903    2    3    3    0    0  0.90216705698E-01 -0.59030574195E-01  0.67691252037E-01  0.12889083308E+00  0.20176188295E-01 0.  0.
         14    1    1    2    0    0  0.10741133426E-01 -0.16086934417E-01 -0.15089156561E-01  0.24532510102E-01  0.00000000000E+00 0. -1.
     999901    1    3    3    0    0 -0.10095783912E+00  0.75117508611E-01 -0.52602095475E-01  0.89050665681E+00  0.88000000000E+00 0. -1.
        -11    1    4    4    0    0  0.54988975844E-01 -0.41456455158E-01  0.32780706848E-01  0.76270970894E-01  0.51100000000E-03 0.  1.
         11    1    4    4    0    0  0.35227729854E-01 -0.17574119036E-01  0.34910545188E-01  0.52619862190E-01  0.51100000000E-03 0. -1.
</event>
<event>
 8    1  0.1115874E+005  0.1043930E+01  0.7957747E-01            NaN
         13   -1    0    0    0    0  0.00000000000E+00  0.00000000000E+00  0.74505805969E-08  0.10566000000E+00  0.10566000000E+00 0. -1.
     999900   -1    0    0    0    0 -0.00000000000E+00 -0.00000000000E+00 -0.74505805969E-08  0.93827000000E+00  0.93827000000E+00 0.  1.
     999902    2    1    2    0    0  0.31448906183E-02  0.24529069580E-01  0.12311342910E-01  0.10163051062E+01  0.10159295912E+01 0.  0.
     999903    2    3    3    0    0  0.67531010549E-01  0.10713191123E+00  0.21764991983E-01  0.13004432442E+00  0.20003190976E-01 0.  0.
         14    1    1    2    0    0 -0.31448906183E-02 -0.24529069580E-01 -0.12311342910E-01  0.27624893768E-01  0.00000000000E+00 0.  1.
     999901    1    3    3    0    0 -0.64386119930E-01 -0.82602841651E-01 -0.94536490729E-02  0.88626078181E+00  0.88000000000E+00 0. -1.
        -11    1    4    4    0    0  0.16396855251E-01  0.40032231076E-01  0.13274746905E-01  0.45253910477E-01  0.51100000000E-03 0. -1.
         11    1    4    4    0    0  0.51134155298E-01  0.67099680155E-01  0.84902450779E-02  0.84790413948E-01  0.51100000000E-03 0.  1.
</event>
<event>
 8    1  0.1115874E+005  0.1043930E+01  0.7957747E-01            NaN
         13   -1    0    0    0    0  0.00000000000E+00  0.00000000000E+00  0.74505805969E-08  0.10566000000E+00  0.10566000000E+00 0.  1.
     999900   -1    0    0    0    0 -0.00000000000E+00 -0.00000000000E+00 -0.74505805969E-08  0.93827000000E+00  0.93827000000E+00 0. -1.
     999902    2    1    2    0    0 -0.10127713517E-01  0.15350509386E-01 -0.13018667401E-01  0.10213979246E+01  0.10211493652E+01 0.  0.
     999903    2    3    3    0    0 -0.23874081906E-01  0.12023254977E+00  0.47828707132E-01  0.13297707389E+00  0.19221840290E-01 0.  0.
         14    1    1    2    0    0  0.10127713517E-01 -0.15350509386E-01  0.13018667401E-01  0.22532075368E-01  0.00000000000E+00 0.  1.
     999901    1    3    3    0    0  0.13746368389E-01 -0.10488204038E+00 -0.60847374534E-01  0.88842085074E+00  0.88000000000E+00 0. -1.
        -11    1    4    4    0    0  0.17998312840E-02  0.11709952332E-01  0.90157353467E-02  0.14896542589E-01  0.51100000000E-03 0. -1.
         11    1    4    4    0    0 -0.25673913190E-01  0.10852259744E+00  0.38812971786E-01  0.11808053130E+00  0.51100000000E-03 0.  1.
</event>
<event>
 8    1  0.1115874E+005  0.1043930E+01  0.7957747E-01            NaN
         13   -1    0    0    0    0  0.00000000000E+00  0.00000000000E+00  0.74505805969E-08  0.10566000000E+00  0.10566000000E+00 0. -1.
     999900   -1    0    0    0    0 -0.00000000000E+00 -0.00000000000E+00 -0.74505805969E-08  0.93827000000E+00  0.93827000000E+00 0. -1.
     999902    2    1    2    0    0  0.15493667749E-01 -0.18792723602E-02  0.18435953687E-01  0.10197748806E+01  0.10194887627E+01 0.  0.
     999903    2    3    3    0    0 -0.82227500560E-01  0.96890154967E-01  0.46259376282E-02  0.12876671955E+00  0.20258449774E-01 0.  0.
         14    1    1    2    0    0 -0.15493667749E-01  0.18792723602E-02 -0.18435953687E-01  0.24155119401E-01  0.00000000000E+00 0.  1.
     999901    1    3    3    0    0  0.97721168309E-01 -0.98769427327E-01  0.13810016059E-01  0.89100816105E+00  0.88000000000E+00 0. -1.
        -11    1    4    4    0    0 -0.24751299104E-01  0.30047011752E-01  0.10772440980E-01  0.40395003753E-01  0.51100000000E-03 0.  1.
         11    1    4    4    0    0 -0.57476201455E-01  0.66843143215E-01 -0.61465033517E-02  0.88371715798E-01  0.51100000000E-03 0. -1.
</event>
<event>
 8    1  0.1115874E+005  0.1043930E+01  0.7957747E-01            NaN
         13   -1    0    0    0    0  0.00000000000E+00  0.00000000000E+00  0.74505805969E-08  0.10566000000E+00  0.10566000000E+00 0. -1.
     999900   -1    0    0    0    0 -0.00000000000E+00 -0.00000000000E+00 -0.74505805969E-08  0.93827000000E+00  0.93827000000E+00 0.  1.
     999902    2    1    2    0    0 -0.17089024889E-02  0.15890376773E-01  0.16262113426E-01  0.10211291063E+01  0.10208745128E+01 0.  0.
     999903    2    3    3    0    0  0.21430055966E-03 -0.63687404532E-01 -0.11016621189E+00  0.12853712590E+00  0.18140205908E-01 0.  0.
         14    1    1    2    0    0  0.17089024889E-02 -0.15890376773E-01 -0.16262113426E-01  0.22800893728E-01  0.00000000000E+00 0.  1.
     999901    1    3    3    0    0 -0.19232030486E-02  0.79577781305E-01  0.12642832532E+00  0.89259198038E+00  0.88000000000E+00 0. -1.
        -11    1    4    4    0    0  0.67703150128E-02 -0.54461281238E-01 -0.90545289917E-01  0.10588002157E+00  0.51100000000E-03 0.  1.
         11    1    4    4    0    0 -0.65560144532E-02 -0.92261232938E-02 -0.19620921974E-01  0.22657104331E-01  0.51100000000E-03 0. -1.
</event>
<event>
 8    1  0.1115874E+005  0.1043930E+01  0.7957747E-01            NaN
         13   -1    0    0    0    0  0.00000000000E+00  0.00000000000E+00  0.74505805969E-08  0.10566000000E+00  0.10566000000E+00 0. -1.
     999900   -1    0    0    0    0 -0.00000000000E+00 -0.00000000000E+00 -0.74505805969E-08  0.93827000000E+00  0.93827000000E+00 0.  1.
     999902    2    1    2    0    0 -0.19210472850E-01  0.11946364509E-01  0.73927273353E-02  0.10201306238E+01  0.10198529694E+01 0.  0.
     999903    2    3    3    0    0 -0.15813796809E-01  0.11941972467E+00  0.53330650398E-01  0.13239623030E+00  0.13170296762E-01 0.  0.
         14    1    1    2    0    0  0.19210472850E-01 -0.11946364509E-01 -0.73927273353E-02  0.23799376243E-01  0.00000000000E+00 0. -1.
     999901    1    3    3    0    0 -0.33966760404E-02 -0.10747336016E+00 -0.45937923062E-01  0.88773439346E+00  0.88000000000E+00 0.  1.
        -11    1    4    4    0    0 -0.12454471222E-01  0.82859263318E-01  0.30558826524E-01  0.89190102424E-01  0.51100000000E-03 0. -1.
         11    1    4    4    0    0 -0.33593255871E-02  0.36560461349E-01  0.22771823874E-01  0.43206127876E-01  0.51100000000E-03 0.  1.
</event>
<event>
 8    1  0.1115874E+005  0.1043930E+01  0.7957747E-01            NaN
         13   -1    0    0    0    0  0.00000000000E+00  0.00000000000E+00  0.74505805969E-08  0.10566000000E+00  0.10566000000E+00 0. -1.
     999900   -1    0    0    0    0 -0.00000000000E+00 -0.00000000000E+00 -0.74505805969E-08  0.93827000000E+00  0.93827000000E+00 0. -1.
     999902    2    1    2    0    0 -0.46062775449E-02 -0.40905282422E-02  0.22821387599E-01  0.10202917694E+01  0.10200179061E+01 0.  0.
     999903    2    3    3    0    0  0.26573834860E-01  0.16268233801E-01 -0.12218815563E+00  0.12764713337E+00  0.19824761019E-01 0.  0.
         14    1    1    2    0    0  0.46062775449E-02  0.40905282422E-02 -0.22821387599E-01  0.23638230604E-01  0.00000000000E+00 0.  1.
     999901    1    3    3    0    0 -0.31180112405E-01 -0.20358762043E-01  0.14500954323E+00  0.89264463603E+00  0.88000000000E+00 0.  1.
        -11    1    4    4    0    0  0.96976269367E-02  0.17182198333E-01 -0.57845311435E-01  0.61119662006E-01  0.51100000000E-03 0. -1.
         11    1    4    4    0    0  0.16876207924E-01 -0.91396453203E-03 -0.64342844200E-01  0.66527471362E-01  0.51100000000E-03 0.  1.
</event>
<event>
 8    1  0.1115874E+005  0.1043930E+01  0.7957747E-01            NaN
         13   -1    0    0    0    0  0.00000000000E+00  0.00000000000E+00  0.74505805969E-08  0.10566000000E+00  0.10566000000E+00 0. -1.
     999900   -1    0    0    0    0 -0.00000000000E+00 -0.00000000000E+00 -0.74505805969E-08  0.93827000000E+00  0.93827000000E+00 0. -1.
     999902    2    1    2    0    0 -0.17864518032E-01 -0.13761255184E-01  0.47719987967E-02  0.10208803770E+01  0.10206201345E+01 0.  0.
     999903    2    3    3    0    0 -0.26981469254E-01  0.14478075242E-01  0.12686826094E+00  0.13195514064E+00  0.19467643963E-01 0.  0.
         14    1    1    2    0    0  0.17864518032E-01  0.13761255184E-01 -0.47719987967E-02  0.23049623018E-01  0.00000000000E+00 0. -1.
     999901    1    3    3    0    0  0.91169512219E-02 -0.28239330426E-01 -0.12209626214E+00  0.88892523635E+00  0.88000000000E+00 0. -1.
        -11    1    4    4    0    0 -0.85090710603E-02  0.58063032279E-02  0.82188530217E-01  0.82833164057E-01  0.51100000000E-03 0. -1.
         11    1    4    4    0    0 -0.18472398193E-01  0.86717720141E-02  0.44679730721E-01  0.49121976580E-01  0.51100000000E-03 0.  1.
</event>
<event>
 8    1  0.1115874E+005  0.1043930E+01  0.7957747E-01            NaN
         13   -1    0    0    0    0  0.00000000000E+00  0.00000000000E+00  0.74505805969E-08  0.10566000000E+00  0.10566000000E+00 0. -1.
     999900   -1    0    0    0    0 -0.00000000000E+00 -0.00000000000E+00 -0.74505805969E-08  0.93827000000E+00  0.93827000000E+00 0. -1.
     999902    2    1    2    0    0  0.95825756237E-02  0.20871053218E-01 -0.13225239053E-01  0.10174284233E+01  0.10170832134E+01 0.  0.
     999903    2    3    3    0    0  0.12381682606E+00  0.33576024482E-01 -0.25070617645E-02  0.12988926386E+00  0.20173737185E-01 0.  0.
         14    1    1    2    0    0 -0.95825756237E-02 -0.20871053218E-01  0.13225239053E-01  0.26501576670E-01  0.00000000000E+00 0.  1.
     999901    1    3    3    0    0 -0.11423425044E+00 -0.12704971264E-01 -0.10718177288E-01  0.88753915947E+00  0.88000000000E+00 0. -1.
        -11    1    4    4    0    0  0.83673214456E-01  0.24204279470E-01  0.76186970771E-02  0.87437747158E-01  0.51100000000E-03 0.  1.
         11    1    4    4    0    0  0.40143611604E-01  0.93717450127E-02 -0.10125758842E-01  0.42451516702E-01  0.51100000000E-03 0. -1.
</event>
<event>
 8    1  0.1115874E+005  0.1043930E+01  0.7957747E-01            NaN
         13   -1    0    0    0    0  0.00000000000E+00  0.00000000000E+00  0.74505805969E-08  0.10566000000E+00  0.10566000000E+00 0.  1.
     999900   -1    0    0    0    0 -0.00000000000E+00 -0.00000000000E+00 -0.74505805969E-08  0.93827000000E+00  0.93827000000E+00 0.  1.
     999902    2    1    2    0    0 -0.91318913123E-02 -0.44913317035E-02 -0.19085935966E-01  0.10223004727E+01  0.10220716316E+01 0.  0.
     999903    2    3    3    0    0 -0.20112561350E-01 -0.13009567174E+00 -0.42338162446E-02  0.13318989982E+00  0.19804678342E-01 0.  0.
         14    1    1    2    0    0  0.91318913123E-02  0.44913317035E-02  0.19085935966E-01  0.21629527297E-01  0.00000000000E+00 0.  1.
     999901    1    3    3    0    0  0.10980670038E-01  0.12560434004E+00 -0.14852119721E-01  0.88911057288E+00  0.88000000000E+00 0.  1.
        -11    1    4    4    0    0  0.17744055426E-02 -0.51530211256E-01 -0.14547429419E-02  0.51583801577E-01  0.51100000000E-03 0. -1.
         11    1    4    4    0    0 -0.21886966893E-01 -0.78565460486E-01 -0.27790733027E-02  0.81606098243E-01  0.51100000000E-03 0.  1.
</event>
<event>
 8    1  0.1115874E+005  0.1043930E+01  0.7957747E-01            NaN
         13   -1    0    0    0    0  0.00000000000E+00  0.00000000000E+00  0.74505805969E-08  0.10566000000E+00  0.10566000000E+00 0.  1.
     999900   -1    0    0    0    0 -0.00000000000E+00 -0.00000000000E+00 -0.74505805969E-08  0.93827000000E+00  0.93827000000E+00 0.  1.
     999902    2    1    2    0    0  0.13998453018E-01  0.98467274316E-02 -0.17145112142E-01  0.10197046084E+01  0.10194168033E+01 0.  0.
     999903    2    3    3    0    0 -0.51013280439E-01 -0.11908570867E-01 -0.11858219785E+00  0.13122877820E+00  0.20373653044E-01 0.  0.
         14    1    1    2    0    0 -0.13998453018E-01 -0.98467274316E-02  0.17145112142E-01  0.24225391604E-01  0.00000000000E+00 0. -1.
     999901    1    3    3    0    0  0.65011733456E-01  0.21755298298E-01  0.10143708571E+00  0.88847583020E+00  0.88000000000E+00 0. -1.
        -11    1    4    4    0    0 -0.13656123522E-01 -0.11373846332E-01 -0.50927841528E-01  0.53942193631E-01  0.51100000000E-03 0. -1.
         11    1    4    4    0    0 -0.37357156916E-01 -0.53472453506E-03 -0.67654356325E-01  0.77286584566E-01  0.51100000000E-03 0.  1.
</event>
<event>
 8    1  0.1115874E+005  0.1043930E+01  0.7957747E-01            NaN
         13   -1    0    0    0    0  0.00000000000E+00  0.00000000000E+00  0.74505805969E-08  0.10566000000E+00  0.10566000000E+00 0.  1.
     999900   -1    0    0    0    0 -0.00000000000E+00 -0.00000000000E+00 -0.74505805969E-08  0.93827000000E+00  0.93827000000E+00 0.  1.
     999902    2    1    2    0    0  0.71178615511E-02  0.23889365857E-02  0.20979508619E-01  0.10216474788E+01  0.10214044547E+01 0.  0.
     999903    2    3    3    0    0  0.79102789527E-01 -0.96101155478E-01 -0.36820117116E-01  0.13135374924E+00  0.20134622386E-01 0.  0.
         14    1    1    2    0    0 -0.71178615511E-02 -0.23889365857E-02 -0.20979508619E-01  0.22282521243E-01  0.00000000000E+00 0. -1.
     999901    1    3    3    0    0 -0.71984927976E-01  0.98490092063E-01  0.57799625735E-01  0.89029372952E+00  0.88000000000E+00 0. -1.
        -11    1    4    4    0    0  0.39788141663E-01 -0.57765710156E-01 -0.28930332366E-01  0.75876206670E-01  0.51100000000E-03 0. -1.
         11    1    4    4    0    0  0.39314647864E-01 -0.38335445322E-01 -0.78897847503E-02  0.55477542565E-01  0.51100000000E-03 0.  1.
</event>
<event>
 8    1  0.1115874E+005  0.1043930E+01  0.7957747E-01            NaN
         13   -1    0    0    0    0  0.00000000000E+00  0.00000000000E+00  0.74505805969E-08  0.10566000000E+00  0.10566000000E+00 0. -1.
     999900   -1    0    0    0    0 -0.00000000000E+00 -0.00000000000E+00 -0.74505805969E-08  0.93827000000E+00  0.93827000000E+00 0.  1.
     999902    2    1    2    0    0  0.14336663365E-01 -0.11736047602E-01 -0.14767093775E-01  0.10202373474E+01  0.10199622067E+01 0.  0.
     999903    2    3    3    0    0 -0.83800079179E-01  0.64643648831E-01 -0.73808083620E-01  0.12953508694E+00  0.11421512011E-01 0.  0.
         14    1    1    2    0    0 -0.14336663365E-01  0.11736047602E-01  0.14767093775E-01  0.23692652623E-01  0.00000000000E+00 0. -1.
     999901    1    3    3    0    0  0.98136742544E-01 -0.76379696433E-01  0.59040989845E-01  0.89070226044E+00  0.88000000000E+00 0. -1.
        -11    1    4    4    0    0 -0.50182664355E-01  0.40091229215E-01 -0.51326303015E-01  0.82220781824E-01  0.51100000000E-03 0.  1.
         11    1    4    4    0    0 -0.33617414825E-01  0.24552419616E-01 -0.22481780605E-01  0.47314305116E-01  0.51100000000E-03 0. -1.
</event>
<event>
 8    1  0.1115874E+005  0.1043930E+01  0.7957747E-01            NaN
         13   -1    0    0    0    0  0.00000000000E+00  0.00000000000E+00  0.74505805969E-08  0.10566000000E+00  0.10566000000E+00 0.  1.
     999900   -1    0    0    0    0 -0.00000000000E+00 -0.00000000000E+00 -0.74505805969E-08  0.93827000000E+00  0.93827000000E+00 0.  1.
     999902    2    1    2    0    0 -0.13852604354E-01 -0.58108129360E-02 -0.18862919227E-01  0.10198163127E+01  0.10195311872E+01 0.  0.
     999903    2    3    3    0    0  0.33984542488E-02 -0.12928503687E+00 -0.51412237555E-02  0.13092274879E+00  0.19701870995E-01 0.  0.
         14    1    1    2    0    0  0.13852604354E-01  0.58108129360E-02  0.18862919227E-01  0.24113687319E-01  0.00000000000E+00 0.  1.
     999901    1    3    3    0    0 -0.17251058602E-01  0.12347422393E+00 -0.13721695472E-01  0.88889356389E+00  0.88000000000E+00 0. -1.
        -11    1    4    4    0    0  0.35417247209E-02 -0.54132935399E-01  0.73199860238E-02  0.54742687414E-01  0.51100000000E-03 0.  1.
         11    1    4    4    0    0 -0.14327047213E-03 -0.75152101467E-01 -0.12461209779E-01  0.76180061378E-01  0.51100000000E-03 0. -1.
</event>
<event>
 8    1  0.1115874E+005  0.1043930E+01  0.7957747E-01            NaN
         13   -1    0    0    0    0  0.00000000000E+00  0.00000000000E+00  0.74505805969E-08  0.10566000000E+00  0.10566000000E+00 0.  1.
     999900   -1    0    0    0    0 -0.00000000000E+00 -0.00000000000E+00 -0.74505805969E-08  0.93827000000E+00  0.93827000000E+00 0.  1.
     999902    2    1    2    0    0 -0.98084919580E-02 -0.16811829162E-02 -0.18842938604E-01  0.10226206306E+01  0.10223985841E+01 0.  0.
     999903    2    3    3    0    0 -0.85518802030E-01  0.42183716194E-01  0.88822597465E-01  0.13175136514E+00  0.19391673028E-01 0.  0.
         14    1    1    2    0    0  0.98084919580E-02  0.16811829162E-02  0.18842938604E-01  0.21309369435E-01  0.00000000000E+00 0.  1.
     999901    1    3    3    0    0  0.75710310072E-01 -0.43864899110E-01 -0.10766553607E+00  0.89086926543E+00  0.88000000000E+00 0.  1.
        -11    1    4    4    0    0 -0.61994521864E-01  0.27176266472E-01  0.51032145555E-01  0.84772703163E-01  0.51100000000E-03 0. -1.
         11    1    4    4    0    0 -0.23524280165E-01  0.15007449721E-01  0.37790451910E-01  0.46978661975E-01  0.51100000000E-03 0.  1.
</event>
<event>
 8    1  0.1115874E+005  0.1043930E+01  0.7957747E-01            NaN
         13   -1    0    0    0    0  0.00000000000E+00  0.00000000000E+00  0.74505805969E-08  0.10566000000E+00  0.10566000000E+00 0.  1.
     999900   -1    0    0    0    0 -0.00000000000E+00 -0.00000000000E+00 -0.74505805969E-08  0.93827000000E+00  0.93827000000E+00 0. -1.
     999902    2    1    2    0    0  0.90960885999E-03 -0.16480999720E-01  0.19935068230E-01  0.10180483910E+01  0.10177193467E+01 0.  0.
     999903    2    3    3    0    0 -0.34559967999E-01 -0.94239251574E-01  0.82750354496E-01  0.13167928231E+00  0.20405496704E-01 0.  0.
         14    1    1    2    0    0 -0.90960885999E-03  0.16480999720E-01 -0.19935068230E-01  0.25881609018E-01  0.00000000000E+00 0. -1.
     999901    1    3    3    0    0  0.35469576859E-01  0.77758251854E-01 -0.62815286267E-01  0.88636910867E+00  0.88000000000E+00 0. -1.
        -11    1    4    4    0    0 -0.10292266796E-01 -0.40970996019E-01  0.46501451018E-01  0.62826740631E-01  0.51100000000E-03 0.  1.
         11    1    4    4    0    0 -0.24267701203E-01 -0.53268255555E-01  0.36248903478E-01  0.68852541681E-01  0.51100000000E-03 0. -1.
</event>
<event>
 8    1  0.1115874E+005  0.1043930E+01  0.7957747E-01            NaN
         13   -1    0    0    0    0  0.00000000000E+00  0.00000000000E+00  0.74505805969E-08  0.10566000000E+00  0.10566000000E+00 0.  1.
     999900   -1    0    0    0    0 -0.00000000000E+00 -0.00000000000E+00 -0.74505805969E-08  0.93827000000E+00  0.93827000000E+00 0. -1.
     999902    2    1    2    0    0 -0.54514480408E-02 -0.38842720707E-02 -0.22037647990E-01  0.10208982006E+01  0.10206383650E+01 0.  0.
     999903    2    3    3    0    0 -0.39944573122E-01  0.11995823908E-01 -0.12567984116E+00  0.13400268401E+00  0.20538455006E-01 0.  0.
         14    1    1    2    0    0  0.54514480408E-02  0.38842720707E-02  0.22037647990E-01  0.23031799413E-01  0.00000000000E+00 0.  1.
     999901    1    3    3    0    0  0.34493125082E-01 -0.15880095978E-01  0.10364219317E+00  0.88689551658E+00  0.88000000000E+00 0.  1.
        -11    1    4    4    0    0 -0.12357709698E-01  0.12163355090E-01 -0.66191620818E-01  0.68426982861E-01  0.51100000000E-03 0.  1.
         11    1    4    4    0    0 -0.27586863424E-01 -0.16753118290E-03 -0.59488220341E-01  0.65575701145E-01  0.51100000000E-03 0. -1.
</event>
<event>
 8    1  0.1115874E+005  0.1043930E+01  0.7957747E-01            NaN
         13   -1    0    0    0    0  0.00000000000E+00  0.00000000000E+00  0.74505805969E-08  0.10566000000E+00  0.10566000000E+00 0.  1.
     999900   -1    0    0    0    0 -0.00000000000E+00 -0.00000000000E+00 -0.74505805969E-08  0.93827000000E+00  0.93827000000E+00 0. -1.
     999902    2    1    2    0    0 -0.24136555209E-01 -0.46299589463E-02  0.39956421884E-02  0.10190307033E+01  0.10187264596E+01 0.  0.
     999903    2    3    3    0    0 -0.98541752919E-01 -0.30750138268E-01 -0.79114018866E-01  0.13160430473E+00  0.20115093073E-01 0.  0.
         14    1    1    2    0    0  0.24136555209E-01  0.46299589463E-02 -0.39956421884E-02  0.24899296650E-01  0.00000000000E+00 0.  1.
     999901    1    3    3    0    0  0.74405197710E-01  0.26120179322E-01  0.83109661054E-01  0.88742639862E+00  0.88000000000E+00 0. -1.
        -11    1    4    4    0    0 -0.82992902408E-01 -0.19344510744E-01 -0.69934667021E-01  0.11024132945E+00  0.51100000000E-03 0. -1.
         11    1    4    4    0    0 -0.15548850511E-01 -0.11405627525E-01 -0.91793518450E-02  0.21362975278E-01  0.51100000000E-03 0.  1.
</event>
<event>
 8    1  0.1115874E+005  0.1043930E+01  0.7957747E-01            NaN
         13   -1    0    0    0    0  0.00000000000E+00  0.00000000000E+00  0.74505805969E-08  0.10566000000E+00  0.10566000000E+00 0. -1.
     999900   -1    0    0    0    0 -0.00000000000E+00 -0.00000000000E+00 -0.74505805969E-08  0.93827000000E+00  0.93827000000E+00 0.  1.
     999902    2    1    2    0    0 -0.13228605168E-01  0.77566363640E-02 -0.17579193169E-01  0.10206021318E+01  0.10203354948E+01 0.  0.
     999903    2    3    3    0    0 -0.10308698347E+00  0.14954027132E-01  0.76799624294E-01  0.13097654102E+00  0.20152491561E-01 0.  0.
         14    1    1    2    0    0  0.13228605168E-01 -0.77566363640E-02  0.17579193169E-01  0.23327868202E-01  0.00000000000E+00 0. -1.
     999901    1    3    3    0    0  0.89858378305E-01 -0.71973907677E-02 -0.94378817463E-01  0.88962559078E+00  0.88000000000E+00 0.  1.
        -11    1    4    4    0    0 -0.29136100350E-01  0.10591324200E-01  0.14717252795E-01  0.34321234575E-01  0.51100000000E-03 0. -1.
         11    1    4    4    0    0 -0.73950883124E-01  0.43627029320E-02  0.62082371499E-01  0.96655306443E-01  0.51100000000E-03 0.  1.
</event>
<event>
 8    1  0.1115874E+005  0.1043930E+01  0.7957747E-01            NaN
         13   -1    0    0    0    0  0.00000000000E+00  0.00000000000E+00  0.74505805969E-08  0.10566000000E+00  0.10566000000E+00 0.  1.
     999900   -1    0    0    0    0 -0.00000000000E+00 -0.00000000000E+00 -0.74505805969E-08  0.93827000000E+00  0.93827000000E+00 0. -1.
     999902    2    1    2    0    0  0.20748600412E-01  0.11305442962E-01 -0.87428898577E-03  0.10202850885E+01  0.10200110685E+01 0.  0.
     999903    2    3    3    0    0  0.76773413978E-01 -0.58629894103E-01  0.86928189645E-01  0.13138745300E+00  0.19352805341E-01 0.  0.
         14    1    1    2    0    0 -0.20748600412E-01 -0.11305442962E-01  0.87428898577E-03  0.23644911522E-01  0.00000000000E+00 0.  1.
     999901    1    3    3    0    0 -0.56024813565E-01  0.69935337065E-01 -0.87802478631E-01  0.88889763548E+00  0.88000000000E+00 0. -1.
        -11    1    4    4    0    0  0.65414035695E-01 -0.57099943130E-01  0.73841393767E-01  0.11398338531E+00  0.51100000000E-03 0. -1.
         11    1    4    4    0    0  0.11359378283E-01 -0.15299509731E-02  0.13086795877E-01  0.17404067694E-01  0.51100000000E-03 0.  1.
</event>
<event>
 8    1  0.1115874E+005  0.1043930E+01  0.7957747E-01            NaN
         13   -1    0    0    0    0  0.00000000000E+00  0.00000000000E+00  0.74505805969E-08  0.10566000000E+00  0.10566000000E+00 0.  1.
     999900   -1    0    0    0    0 -0.00000000000E+00 -0.00000000000E+00 -0.74505805969E-08  0.93827000000E+00  0.93827000000E+00 0. -1.
     999902    2    1    2    0    0  0.22307771619E-01 -0.93360263836E-02 -0.79550356387E-03  0.10197343209E+01  0.10194472298E+01 0.  0.
     999903    2    3    3    0    0 -0.94849005096E-01 -0.82281813870E-01 -0.19975665424E-01  0.12877154001E+00  0.20407146947E-01 0.  0.
         14    1    1    2    0    0 -0.22307771619E-01  0.93360263836E-02  0.79550356387E-03  0.24195679143E-01  0.00000000000E+00 0. -1.
     999901    1    3    3    0    0  0.11715677672E+00  0.72945787487E-01  0.19180161860E-01  0.89096278085E+00  0.88000000000E+00 0.  1.
        -11    1    4    4    0    0 -0.38173954647E-01 -0.21690308862E-01 -0.11381098011E-01  0.45359793042E-01  0.51100000000E-03 0. -1.
         11    1    4    4    0    0 -0.56675050449E-01 -0.60591505008E-01 -0.85945674133E-02  0.83411746970E-01  0.51100000000E-03 0.  1.
</event>
<event>
 8    1  0.1115874E+005  0.1043930E+01  0.7957747E-01            NaN
         13   -1    0    0    0    0  0.00000000000E+00  0.00000000000E+00  0.74505805969E-08  0.10566000000E+00  0.10566000000E+00 0. -1.
     999900   -1    0    0    0    0 -0.00000000000E+00 -0.00000000000E+00 -0.74505805969E-08  0.93827000000E+00  0.93827000000E+00 0. -1.
     999902    2    1    2    0    0  0.11428364586E-01 -0.15562463421E-01 -0.97542657269E-02  0.10222979986E+01  0.10220691045E+01 0.  0.
     999903    2    3    3    0    0 -0.89811569762E-01  0.43243174300E-02  0.92314926674E-01  0.13041060189E+00  0.20001540323E-01 0.  0.
         14    1    1    2    0    0 -0.11428364586E-01  0.15562463421E-01  0.97542657269E-02  0.21632001403E-01  0.00000000000E+00 0. -1.
     999901    1    3    3    0    0  0.10123993435E+00 -0.19886780851E-01 -0.10206919240E+00  0.89188739670E+00  0.88000000000E+00 0. -1.
        -11    1    4    4    0    0 -0.33474516664E-01  0.53928847332E-02  0.22515388565E-01  0.40704180557E-01  0.51100000000E-03 0.  1.
         11    1    4    4    0    0 -0.56337053098E-01 -0.10685673032E-02  0.69799538109E-01  0.89706421337E-01  0.51100000000E-03 0. -1.
</event>
<event>
 8    1  0.1115874E+005  0.1043930E+01  0.7957747E-01            NaN
         13   -1    0    0    0    0  0.00000000000E+00  0.00000000000E+00  0.74505805969E-08  0.10566000000E+00  0.10566000000E+00 0. -1.
     999900   -1    0    0    0    0 -0.00000000000E+00 -0.00000000000E+00 -0.74505805969E-08  0.93827000000E+00  0.93827000000E+00 0. -1.
     999902    2    1    2    0    0  0.11439535882E-01 -0.20616256928E-01  0.84976988893E-03  0.10203373075E+01  0.10200645107E+01 0.  0.
     999903    2    3    3    0    0  0.83817549021E-01 -0.56033728346E-01  0.84063487753E-01  0.13274646881E+00  0.19743220927E-01 0.  0.
         14    1    1    2    0    0 -0.11439535882E-01  0.20616256928E-01 -0.84976988893E-03  0.23592692508E-01  0.00000000000E+00 0.  1.
     999901    1    3    3    0    0 -0.72378013139E-01  0.35417471418E-01 -0.83213717864E-01  0.88759083868E+00  0.88000000000E+00 0.  1.
        -11    1    4    4    0    0  0.56860673247E-01 -0.27175564597E-01  0.55871475063E-01  0.84223098495E-01  0.51100000000E-03 0. -1.
         11    1    4    4    0    0  0.26956875774E-01 -0.28858163749E-01  0.28192012690E-01  0.48523370317E-01  0.51100000000E-03 0.  1.
</event>
<event>
 7    1  0.1115874E+005  0.1043930E+01  0.7957747E-01            NaN
         13   -1    0    0    0    0  0.00000000000E+00  0.00000000000E+00  0.74505805969E-08  0.10566000000E+00  0.10566000000E+00 0.  1.
     999900   -1    0    0    0    0 -0.00000000000E+00 -0.00000000000E+00 -0.74505805969E-08  0.93827000000E+00  0.93827000000E+00 0.  1.
     999903    2    1    2    0    0  0.41189792336E-01 -0.87867382914E-01 -0.41762420921E-02  0.99870949228E-01  0.23226913892E-01 0.  0.
         14    1    1    2    0    0  0.80346224653E-02  0.32618766171E-01 -0.48936697597E-01  0.59357724319E-01  0.00000000000E+00 0. -1.
     999901    1    1    2    0    0 -0.49224414801E-01  0.55248616743E-01  0.53112939689E-01  0.88470132645E+00  0.88000000000E+00 0. -1.
        -11    1    3    3    0    0  0.33323734112E-01 -0.47210975781E-01  0.28778275895E-02  0.57860958357E-01  0.51100000000E-03 0. -1.
         11    1    3    3    0    0  0.78660582240E-02 -0.40656407133E-01 -0.70540696816E-02  0.42009990871E-01  0.51100000000E-03 0.  1.
</event>
<event>
 8    1  0.1115874E+005  0.1043930E+01  0.7957747E-01            NaN
         13   -1    0    0    0    0  0.00000000000E+00  0.00000000000E+00  0.74505805969E-08  0.10566000000E+00  0.10566000000E+00 0. -1.
     999900   -1    0    0    0    0 -0.00000000000E+00 -0.00000000000E+00 -0.74505805969E-08  0.93827000000E+00  0.93827000000E+00 0.  1.
     999902    2    1    2    0    0  0.22714720190E-01 -0.20755016896E-02 -0.50412815180E-02  0.10205701896E+01  0.10203028135E+01 0.  0.
     999903    2    3    3    0    0 -0.70423860533E-01  0.10568734301E+00 -0.10947239799E-01  0.12909808898E+00  0.20424003375E-01 0.  0.
         14    1    1    2    0    0 -0.22714720190E-01  0.20755016896E-02  0.50412815180E-02  0.23359810357E-01  0.00000000000E+00 0. -1.
     999901    1    3    3    0    0  0.93138580724E-01 -0.10776284470E+00  0.59059582813E-02  0.89147210066E+00  0.88000000000E+00 0. -1.
        -11    1    4    4    0    0 -0.47353140827E-01  0.73131947669E-01  0.19914822139E-02  0.87148315179E-01  0.51100000000E-03 0. -1.
         11    1    4    4    0    0 -0.23070719707E-01  0.32555395341E-01 -0.12938722013E-01  0.41949773801E-01  0.51100000000E-03 0.  1.
</event>
<event>
 8    1  0.1115874E+005  0.1043930E+01  0.7957747E-01            NaN
         13   -1    0    0    0    0  0.00000000000E+00  0.00000000000E+00  0.74505805969E-08  0.10566000000E+00  0.10566000000E+00 0.  1.
     999900   -1    0    0    0    0 -0.00000000000E+00 -0.00000000000E+00 -0.74505805969E-08  0.93827000000E+00  0.93827000000E+00 0. -1.
     999902    2    1    2    0    0  0.20038526315E-01 -0.19212600934E-03  0.11676548465E-01  0.10207368710E+01  0.10204733404E+01 0.  0.
     999903    2    3    3    0    0 -0.44595351307E-01  0.10730248994E+00 -0.53672578553E-01  0.12944391186E+00  0.19297951261E-01 0.  0.
         14    1    1    2    0    0 -0.20038526315E-01  0.19212600934E-03 -0.11676548465E-01  0.23193129011E-01  0.00000000000E+00 0. -1.
     999901    1    3    3    0    0  0.64633877621E-01 -0.10749461595E+00  0.65349127018E-01  0.89129295913E+00  0.88000000000E+00 0.  1.
        -11    1    4    4    0    0 -0.35413077593E-01  0.60581535646E-01 -0.31902068670E-01  0.77085742081E-01  0.51100000000E-03 0. -1.
         11    1    4    4    0    0 -0.91822737142E-02  0.46720954295E-01 -0.21770509882E-01  0.52358169777E-01  0.51100000000E-03 0.  1.
</event>
<event>
 8    1  0.1115874E+005  0.1043930E+01  0.7957747E-01            NaN
         13   -1    0    0    0    0  0.00000000000E+00  0.00000000000E+00  0.74505805969E-08  0.10566000000E+00  0.10566000000E+00 0.  1.
     999900   -1    0    0    0    0 -0.00000000000E+00 -0.00000000000E+00 -0.74505805969E-08  0.93827000000E+00  0.93827000000E+00 0. -1.
     999902    2    1    2    0    0 -0.76101528447E-02 -0.22047666984E-01  0.66842050059E-02  0.10196670109E+01  0.10193783009E+01 0.  0.
     999903    2    3    3    0    0  0.56076004936E-01 -0.10411779369E+00 -0.53829165006E-01  0.13149287233E+00  0.20193146760E-01 0.  0.
         14    1    1    2    0    0  0.76101528447E-02  0.22047666984E-01 -0.66842050059E-02  0.24262989147E-01  0.00000000000E+00 0. -1.
     999901    1    3    3    0    0 -0.63686157781E-01  0.82070126705E-01  0.60513370012E-01  0.88817413852E+00  0.88000000000E+00 0.  1.
        -11    1    4    4    0    0  0.42078953441E-01 -0.74927280843E-01 -0.29020039583E-01  0.90703690970E-01  0.51100000000E-03 0. -1.
         11    1    4    4    0    0  0.13997051496E-01 -0.29190512847E-01 -0.24809125422E-01  0.40789181361E-01  0.51100000000E-03 0.  1.
</event>
<event>
 8    1  0.1115874E+005  0.1043930E+01  0.7957747E-01            NaN
         13   -1    0    0    0    0  0.00000000000E+00  0.00000000000E+00  0.74505805969E-08  0.10566000000E+00  0.10566000000E+00 0.  1.
     999900   -1    0    0    0    0 -0.00000000000E+00 -0.00000000000E+00 -0.74505805969E-08  0.93827000000E+00  0.93827000000E+00 0.  1.
     999902    2    1    2    0    0 -0.38509826355E-02 -0.77888740690E-02 -0.24441618652E-01  0.10179898892E+01  0.10176593365E+01 0.  0.
     999903    2    3    3    0    0 -0.47266249940E-01  0.11200125754E+00 -0.37611224421E-01  0.12871602834E+00  0.19360570132E-01 0.  0.
         14    1    1    2    0    0  0.38509826355E-02  0.77888740690E-02  0.24441618652E-01  0.25940110811E-01  0.00000000000E+00 0.  1.
     999901    1    3    3    0    0  0.43415267305E-01 -0.11979013161E+00  0.13169605769E-01  0.88927386085E+00  0.88000000000E+00 0.  1.
        -11    1    4    4    0    0 -0.33586107456E-01  0.84034704949E-01 -0.19103766324E-01  0.92493639017E-01  0.51100000000E-03 0. -1.
         11    1    4    4    0    0 -0.13680142485E-01  0.27966552593E-01 -0.18507458097E-01  0.36222389327E-01  0.51100000000E-03 0.  1.
</event>
<event>
 8    1  0.1115874E+005  0.1043930E+01  0.7957747E-01            NaN
         13   -1    0    0    0    0  0.00000000000E+00  0.00000000000E+00  0.74505805969E-08  0.10566000000E+00  0.10566000000E+00 0. -1.
     999900   -1    0    0    0    0 -0.00000000000E+00 -0.00000000000E+00 -0.74505805969E-08  0.93827000000E+00  0.93827000000E+00 0. -1.
     999902    2    1    2    0    0 -0.56375597220E-02  0.13935946275E-01  0.14128157732E-01  0.10232999850E+01  0.10230920104E+01 0.  0.
     999903    2    3    3    0    0  0.58899465346E-01  0.97806151201E-01  0.69418643778E-01  0.13523676837E+00  0.20852941848E-01 0.  0.
         14    1    1    2    0    0  0.56375597220E-02 -0.13935946275E-01 -0.14128157732E-01  0.20630015005E-01  0.00000000000E+00 0.  1.
     999901    1    3    3    0    0 -0.64537025068E-01 -0.83870204926E-01 -0.55290486046E-01  0.88806321663E+00  0.88000000000E+00 0. -1.
        -11    1    4    4    0    0  0.54802858512E-01  0.77878963077E-01  0.52315737911E-01  0.10865396332E+00  0.51100000000E-03 0. -1.
         11    1    4    4    0    0  0.40966068343E-02  0.19927188124E-01  0.17102905868E-01  0.26582805048E-01  0.51100000000E-03 0.  1.
</event>
<event>
 8    1  0.1115874E+005  0.1043930E+01  0.7957747E-01            NaN
         13   -1    0    0    0    0  0.00000000000E+00  0.00000000000E+00  0.74505805969E-08  0.10566000000E+00  0.10566000000E+00 0.  1.
     999900   -1    0    0    0    0 -0.00000000000E+00 -0.00000000000E+00 -0.74505805969E-08  0.93827000000E+00  0.93827000000E+00 0.  1.
     999902    2    1    2    0    0 -0.23952361228E-01  0.35346585665E-02  0.27113588240E-02  0.10195668950E+01  0.10192757686E+01 0.  0.
     999903    2    3    3    0    0 -0.40391209547E-01  0.30802287002E-01  0.11942480367E+00  0.13129003076E+00  0.19863477849E-01 0.  0.
         14    1    1    2    0    0  0.23952361228E-01 -0.35346585665E-02 -0.27113588240E-02  0.24363105021E-01  0.00000000000E+00 0.  1.
     999901    1    3    3    0    0  0.16438848319E-01 -0.27267628436E-01 -0.11671344485E+00  0.88827686422E+00  0.88000000000E+00 0.  1.
        -11    1    4    4    0    0 -0.35349524756E-01  0.31064264907E-01  0.91348591120E-01  0.10275895910E+00  0.51100000000E-03 0. -1.
         11    1    4    4    0    0 -0.50416847913E-02 -0.26197790459E-03  0.28076212551E-01  0.28531071662E-01  0.51100000000E-03 0.  1.
</event>
<event>
 8    1  0.1115874E+005  0.1043930E+01  0.7957747E-01            NaN
         13   -1    0    0    0    0  0.00000000000E+00  0.00000000000E+00  0.74505805969E-08  0.10566000000E+00  0.10566000000E+00 0. -1.
     999900   -1    0    0    0    0 -0.00000000000E+00 -0.00000000000E+00 -0.74505805969E-08  0.93827000000E+00  0.93827000000E+00 0. -1.
     999902    2    1    2    0    0 -0.11468930089E-01  0.37326490086E-02  0.20302771338E-01  0.10203149296E+01  0.10200416090E+01 0.  0.
     999903    2    3    3    0    0  0.10434398929E+00 -0.59834523922E-01 -0.39819890690E-01  0.12842471648E+00  0.20962961470E-01 0.  0.
         14    1    1    2    0    0  0.11468930089E-01 -0.37326490086E-02 -0.20302771338E-01  0.23615070401E-01  0.00000000000E+00 0.  1.
     999901    1    3    3    0    0 -0.11581291938E+00  0.63567172931E-01  0.60122662029E-01  0.89189021312E+00  0.88000000000E+00 0.  1.
        -11    1    4    4    0    0  0.20788566730E-01 -0.54383706124E-02 -0.12807073078E-02  0.21532341114E-01  0.51100000000E-03 0. -1.
         11    1    4    4    0    0  0.83555422562E-01 -0.54396153310E-01 -0.38539183382E-01  0.10689237537E+00  0.51100000000E-03 0.  1.
</event>
<event>
 8    1  0.1115874E+005  0.1043930E+01  0.7957747E-01            NaN
         13   -1    0    0    0    0  0.00000000000E+00  0.00000000000E+00  0.74505805969E-08  0.10566000000E+00  0.10566000000E+00 0.  1.
     999900   -1    0    0    0    0 -0.00000000000E+00 -0.00000000000E+00 -0.74505805969E-08  0.93827000000E+00  0.93827000000E+00 0.  1.
     999902    2    1    2    0    0  0.20869413779E-01  0.10922321770E-01  0.25171547309E-02  0.10202410656E+01  0.10199660124E+01 0.  0.
     999903    2    3    3    0    0  0.38033533037E-02  0.20737162731E-01 -0.12755231419E+00  0.13046263911E+00  0.17504626091E-01 0.  0.
         14    1    1    2    0    0 -0.20869413779E-01 -0.10922321770E-01 -0.25171547309E-02  0.23688934384E-01  0.00000000000E+00 0. -1.
     999901    1    3    3    0    0  0.17066060475E-01 -0.98148409610E-02  0.13006946892E+00  0.88977842650E+00  0.88000000000E+00 0. -1.
        -11    1    4    4    0    0  0.73708648540E-02  0.13174796322E-02 -0.29404498551E-01  0.30347175442E-01  0.51100000000E-03 0.  1.
         11    1    4    4    0    0 -0.35675115503E-02  0.19419683099E-01 -0.98147815639E-01  0.10011546367E+00  0.51100000000E-03 0. -1.
</event>
<event>
 8    1  0.1115874E+005  0.1043930E+01  0.7957747E-01            NaN
         13   -1    0    0    0    0  0.00000000000E+00  0.00000000000E+00  0.74505805969E-08  0.10566000000E+00  0.10566000000E+00 0. -1.
     999900   -1    0    0    0    0 -0.00000000000E+00 -0.00000000000E+00 -0.74505805969E-08  0.93827000000E+00  0.93827000000E+00 0. -1.
     999902    2    1    2    0    0 -0.19222763985E-01  0.11963818413E-01 -0.11005358519E-01  0.10187553000E+01  0.10184442035E+01 0.  0.
     999903    2    3    3    0    0 -0.44822949374E-01  0.11977082921E+00  0.21597933361E-01  0.13120772618E+00  0.19870791746E-01 0.  0.
         14    1    1    2    0    0  0.19222763985E-01 -0.11963818413E-01  0.11005358519E-01  0.25174700046E-01  0.00000000000E+00 0.  1.
     999901    1    3    3    0    0  0.25600185389E-01 -0.10780701079E+00 -0.32603291880E-01  0.88754757377E+00  0.88000000000E+00 0. -1.
        -11    1    4    4    0    0 -0.17756760905E-01  0.49541900911E-01 -0.94354478518E-03  0.52638901028E-01  0.51100000000E-03 0. -1.
         11    1    4    4    0    0 -0.27066188469E-01  0.70228928297E-01  0.22541478146E-01  0.78568825154E-01  0.51100000000E-03 0.  1.
</event>
<event>
 8    1  0.1115874E+005  0.1043930E+01  0.7957747E-01            NaN
         13   -1    0    0    0    0  0.00000000000E+00  0.00000000000E+00  0.74505805969E-08  0.10566000000E+00  0.10566000000E+00 0. -1.
     999900   -1    0    0    0    0 -0.00000000000E+00 -0.00000000000E+00 -0.74505805969E-08  0.93827000000E+00  0.93827000000E+00 0.  1.
     999902    2    1    2    0    0 -0.20220503126E-01  0.93216303170E-02 -0.61197617651E-02  0.10208385942E+01  0.10205773966E+01 0.  0.
     999903    2    3    3    0    0 -0.22533717875E-02  0.88844174762E-01  0.94564855429E-01  0.13135332448E+00  0.20317945176E-01 0.  0.
         14    1    1    2    0    0  0.20220503126E-01 -0.93216303170E-02  0.61197617651E-02  0.23091405814E-01  0.00000000000E+00 0.  1.
     999901    1    3    3    0    0 -0.17967131338E-01 -0.79522544445E-01 -0.10068461719E+00  0.88948526971E+00  0.88000000000E+00 0.  1.
        -11    1    4    4    0    0 -0.22438467336E-02  0.56185398388E-01  0.45131441448E-01  0.72103689007E-01  0.51100000000E-03 0.  1.
         11    1    4    4    0    0 -0.95250539251E-05  0.32658776374E-01  0.49433413980E-01  0.59249635473E-01  0.51100000000E-03 0. -1.
</event>
<event>
 8    1  0.1115874E+005  0.1043930E+01  0.7957747E-01            NaN
         13   -1    0    0    0    0  0.00000000000E+00  0.00000000000E+00  0.74505805969E-08  0.10566000000E+00  0.10566000000E+00 0. -1.
     999900   -1    0    0    0    0 -0.00000000000E+00 -0.00000000000E+00 -0.74505805969E-08  0.93827000000E+00  0.93827000000E+00 0.  1.
     999902    2    1    2    0    0 -0.22384652299E-01 -0.43285179690E-02 -0.61615416179E-02  0.10203127749E+01  0.10200394038E+01 0.  0.
     999903    2    3    3    0    0  0.10014589071E+00  0.84663503307E-02 -0.77639082107E-01  0.12886087972E+00  0.21827064317E-01 0.  0.
         14    1    1    2    0    0  0.22384652299E-01  0.43285179690E-02  0.61615416179E-02  0.23617225101E-01  0.00000000000E+00 0.  1.
     999901    1    3    3    0    0 -0.12253054301E+00 -0.12794868300E-01  0.71477540489E-01  0.89145189518E+00  0.88000000000E+00 0. -1.
        -11    1    4    4    0    0  0.33279636959E-01 -0.46014490814E-02 -0.17022613695E-01  0.37666139539E-01  0.51100000000E-03 0. -1.
         11    1    4    4    0    0  0.66866253754E-01  0.13067799412E-01 -0.60616468412E-01  0.91194740179E-01  0.51100000000E-03 0.  1.
</event>
<event>
 8    1  0.1115874E+005  0.1043930E+01  0.7957747E-01            NaN
         13   -1    0    0    0    0  0.00000000000E+00  0.00000000000E+00  0.74505805969E-08  0.10566000000E+00  0.10566000000E+00 0. -1.
     999900   -1    0    0    0    0 -0.00000000000E+00 -0.00000000000E+00 -0.74505805969E-08  0.93827000000E+00  0.93827000000E+00 0.  1.
     999902    2    1    2    0    0 -0.39975464027E-02 -0.67508102968E-02 -0.19190289964E-01  0.10231978741E+01  0.10229878144E+01 0.  0.
     999903    2    3    3    0    0  0.46045499182E-02  0.12402867827E+00  0.38817375280E-01  0.13160258475E+00  0.20202395325E-01 0.  0.
         14    1    1    2    0    0  0.39975464027E-02  0.67508102968E-02  0.19190289964E-01  0.20732125936E-01  0.00000000000E+00 0. -1.
     999901    1    3    3    0    0 -0.86020963209E-02 -0.13077948857E+00 -0.58007665244E-01  0.89159528931E+00  0.88000000000E+00 0.  1.
        -11    1    4    4    0    0 -0.41586044038E-02  0.76628794297E-01  0.16574987106E-01  0.78512785102E-01  0.51100000000E-03 0. -1.
         11    1    4    4    0    0  0.87631543220E-02  0.47399883975E-01  0.22242388174E-01  0.53089799653E-01  0.51100000000E-03 0.  1.
</event>
<event>
 8    1  0.1115874E+005  0.1043930E+01  0.7957747E-01            NaN
         13   -1    0    0    0    0  0.00000000000E+00  0.00000000000E+00  0.74505805969E-08  0.10566000000E+00  0.10566000000E+00 0.  1.
     999900   -1    0    0    0    0 -0.00000000000E+00 -0.00000000000E+00 -0.74505805969E-08  0.93827000000E+00  0.93827000000E+00 0.  1.
     999902    2    1    2    0    0  0.23171874344E-01  0.10172794970E-02 -0.18208720668E-02  0.10206644419E+01  0.10203992438E+01 0.  0.
     999903    2    3    3    0    0  0.11392251829E+00  0.66641425836E-01 -0.20414438778E-02  0.13356678290E+00  0.20408287319E-01 0.  0.
         14    1    1    2    0    0 -0.23171874344E-01 -0.10172794970E-02  0.18208720668E-02  0.23265558091E-01  0.00000000000E+00 0.  1.
     999901    1    3    3    0    0 -0.90750643946E-01 -0.65624146339E-01  0.22057181096E-03  0.88709765900E+00  0.88000000000E+00 0.  1.
        -11    1    4    4    0    0  0.80865406994E-01  0.57026930554E-01  0.14209421503E-02  0.98962442646E-01  0.51100000000E-03 0.  1.
         11    1    4    4    0    0  0.33057111296E-01  0.96144952823E-02 -0.34623860281E-02  0.34604340259E-01  0.51100000000E-03 0. -1.
</event>
<event>
 8    1  0.1115874E+005  0.1043930E+01  0.7957747E-01            NaN
         13   -1    0    0    0    0  0.00000000000E+00  0.00000000000E+00  0.74505805969E-08  0.10566000000E+00  0.10566000000E+00 0. -1.
     999900   -1    0    0    0    0 -0.00000000000E+00 -0.00000000000E+00 -0.74505805969E-08  0.93827000000E+00  0.93827000000E+00 0.  1.
     999902    2    1    2    0    0 -0.19401737034E-01 -0.11980305400E-01 -0.65905016188E-02  0.10201941657E+01  0.10199180094E+01 0.  0.
     999903    2    3    3    0    0 -0.72825580570E-01  0.10568103322E+00  0.12987201843E-01  0.13054165820E+00  0.20010275994E-01 0.  0.
         14    1    1    2    0    0  0.19401737034E-01  0.11980305400E-01  0.65905016188E-02  0.23735834281E-01  0.00000000000E+00 0. -1.
     999901    1    3    3    0    0  0.53423843536E-01 -0.11766133862E+00 -0.19577703462E-01  0.88965250752E+00  0.88000000000E+00 0.  1.
        -11    1    4    4    0    0 -0.79516836315E-03  0.84296436987E-02 -0.16359406439E-02  0.86387851231E-02  0.51100000000E-03 0.  1.
         11    1    4    4    0    0 -0.72030412207E-01  0.97251389523E-01  0.14623142487E-01  0.12190287308E+00  0.51100000000E-03 0. -1.
</event>
<event>
 8    1  0.1115874E+005  0.1043930E+01  0.7957747E-01            NaN
         13   -1    0    0    0    0  0.00000000000E+00  0.00000000000E+00  0.74505805969E-08  0.10566000000E+00  0.10566000000E+00 0. -1.
     999900   -1    0    0    0    0 -0.00000000000E+00 -0.00000000000E+00 -0.74505805969E-08  0.93827000000E+00  0.93827000000E+00 0.  1.
     999902    2    1    2    0    0  0.78972286904E-02  0.19744596805E-01  0.10090254646E-01  0.10203921887E+01  0.10201206743E+01 0.  0.
     999903    2    3    3    0    0  0.87407832275E-01  0.22319070519E-01  0.95618996642E-01  0.13267391707E+00  0.17919422443E-01 0.  0.
         14    1    1    2    0    0 -0.78972286904E-02 -0.19744596805E-01 -0.10090254646E-01  0.23537811343E-01  0.00000000000E+00 0. -1.
     999901    1    3    3    0    0 -0.79510603585E-01 -0.25744737133E-02 -0.85528741995E-01  0.88771827158E+00  0.88000000000E+00 0.  1.
        -11    1    4    4    0    0  0.10074752862E-01  0.83290663404E-02  0.17646518903E-01  0.21966673434E-01  0.51100000000E-03 0. -1.
         11    1    4    4    0    0  0.77333079413E-01  0.13990004178E-01  0.77972477738E-01  0.11070724364E+00  0.51100000000E-03 0.  1.
</event>
<event>
 8    1  0.1115874E+005  0.1043930E+01  0.7957747E-01            NaN
         13   -1    0    0    0    0  0.00000000000E+00  0.00000000000E+00  0.74505805969E-08  0.10566000000E+00  0.10566000000E+00 0. -1.
     999900   -1    0    0    0    0 -0.00000000000E+00 -0.00000000000E+00 -0.74505805969E-08  0.93827000000E+00  0.93827000000E+00 0. -1.
     999902    2    1    2    0    0 -0.13928464137E-01 -0.16410744922E-01  0.92077925610E-02  0.10205185048E+01  0.10202499305E+01 0.  0.
     999903    2    3    3    0    0 -0.12696267751E-01  0.68768348977E-01  0.10878171753E+00  0.13081520436E+00  0.19719903300E-01 0.  0.
         14    1    1    2    0    0  0.13928464137E-01  0.16410744922E-01 -0.92077925610E-02  0.23411495167E-01  0.00000000000E+00 0.  1.
     999901    1    3    3    0    0 -0.12321963865E-02 -0.85179093899E-01 -0.99573924969E-01  0.88970330048E+00  0.88000000000E+00 0. -1.
        -11    1    4    4    0    0 -0.16672491386E-01  0.53549535080E-01  0.76039136758E-01  0.94486698092E-01  0.51100000000E-03 0.  1.
         11    1    4    4    0    0  0.39762236352E-02  0.15218813897E-01  0.32742580771E-01  0.36328506264E-01  0.51100000000E-03 0. -1.
</event>
<event>
 8    1  0.1115874E+005  0.1043930E+01  0.7957747E-01            NaN
         13   -1    0    0    0    0  0.00000000000E+00  0.00000000000E+00  0.74505805969E-08  0.10566000000E+00  0.10566000000E+00 0.  1.
     999900   -1    0    0    0    0 -0.00000000000E+00 -0.00000000000E+00 -0.74505805969E-08  0.93827000000E+00  0.93827000000E+00 0.  1.
     999902    2    1    2    0    0  0.18409746610E-01  0.83583642431E-02  0.13657535723E-01  0.10195310389E+01  0.10192390445E+01 0.  0.
     999903    2    3    3    0    0  0.42437759116E-01  0.10631774703E+00 -0.59761223840E-01  0.13073201752E+00  0.20372280137E-01 0.  0.
         14    1    1    2    0    0 -0.18409746610E-01 -0.83583642431E-02 -0.13657535723E-01  0.24398961148E-01  0.00000000000E+00 0.  1.
     999901    1    3    3    0    0 -0.24028012506E-01 -0.97959382788E-01  0.73418759563E-01  0.88879902133E+00  0.88000000000E+00 0.  1.
        -11    1    4    4    0    0  0.18054602094E-01  0.34874549000E-01 -0.30664463904E-01  0.49827435136E-01  0.51100000000E-03 0. -1.
         11    1    4    4    0    0  0.24383157023E-01  0.71443198031E-01 -0.29096759936E-01  0.80904582386E-01  0.51100000000E-03 0.  1.
</event>
<event>
 8    1  0.1115874E+005  0.1043930E+01  0.7957747E-01            NaN
         13   -1    0    0    0    0  0.00000000000E+00  0.00000000000E+00  0.74505805969E-08  0.10566000000E+00  0.10566000000E+00 0.  1.
     999900   -1    0    0    0    0 -0.00000000000E+00 -0.00000000000E+00 -0.74505805969E-08  0.93827000000E+00  0.93827000000E+00 0. -1.
     999902    2    1    2    0    0  0.19230173379E-01 -0.30246522527E-02  0.14101265022E-01  0.10198926590E+01  0.10196093576E+01 0.  0.
     999903    2    3    3    0    0 -0.98802168160E-01  0.77758583909E-01  0.16635504305E-01  0.12834120936E+00  0.19658591321E-01 0.  0.
         14    1    1    2    0    0 -0.19230173379E-01  0.30246522527E-02 -0.14101265022E-01  0.24037341048E-01  0.00000000000E+00 0. -1.
     999901    1    3    3    0    0  0.11803234154E+00 -0.80783236162E-01 -0.25342392830E-02  0.89155144959E+00  0.88000000000E+00 0. -1.
        -11    1    4    4    0    0 -0.10221993863E-01  0.28180478169E-02  0.49870385199E-02  0.11728692435E-01  0.51100000000E-03 0. -1.
         11    1    4    4    0    0 -0.88580174297E-01  0.74940536092E-01  0.11648465785E-01  0.11661251693E+00  0.51100000000E-03 0.  1.
</event>
<event>
 8    1  0.1115874E+005  0.1043930E+01  0.7957747E-01            NaN
         13   -1    0    0    0    0  0.00000000000E+00  0.00000000000E+00  0.74505805969E-08  0.10566000000E+00  0.10566000000E+00 0. -1.
     999900   -1    0    0    0    0 -0.00000000000E+00 -0.00000000000E+00 -0.74505805969E-08  0.93827000000E+00  0.93827000000E+00 0. -1.
     999902    2    1    2    0    0  0.72331277853E-02  0.16561615745E-01 -0.15979589348E-01  0.10198063077E+01  0.10195209428E+01 0.  0.
     999903    2    3    3    0    0 -0.95676484982E-01 -0.41792921980E-01 -0.74670866805E-01  0.12995221489E+00  0.20278108859E-01 0.  0.
         14    1    1    2    0    0 -0.72331277853E-02 -0.16561615745E-01  0.15979589348E-01  0.24123692283E-01  0.00000000000E+00 0. -1.
     999901    1    3    3    0    0  0.10290961277E+00  0.58354537725E-01  0.58691277457E-01  0.88985409283E+00  0.88000000000E+00 0.  1.
        -11    1    4    4    0    0 -0.25201775851E-01 -0.15064594267E-01 -0.11253899344E-01  0.31448098160E-01  0.51100000000E-03 0.  1.
         11    1    4    4    0    0 -0.70474709132E-01 -0.26728327713E-01 -0.63416967461E-01  0.98504116729E-01  0.51100000000E-03 0. -1.
</event>
<event>
 8    1  0.1115874E+005  0.1043930E+01  0.7957747E-01            NaN
         13   -1    0    0    0    0  0.00000000000E+00  0.00000000000E+00  0.74505805969E-08  0.10566000000E+00  0.10566000000E+00 0.  1.
     999900   -1    0    0    0    0 -0.00000000000E+00 -0.00000000000E+00 -0.74505805969E-08  0.93827000000E+00  0.93827000000E+00 0. -1.
     999902    2    1    2    0    0 -0.76066129010E-02 -0.19451285103E-01  0.11903563221E-01  0.10198902856E+01  0.10196069276E+01 0.  0.
     999903    2    3    3    0    0 -0.73880645566E-01 -0.10850467700E+00 -0.35571725418E-02  0.13278161785E+00  0.19664430892E-01 0.  0.
         14    1    1    2    0    0  0.76066129010E-02  0.19451285103E-01 -0.11903563221E-01  0.24039714419E-01  0.00000000000E+00 0.  1.
     999901    1    3    3    0    0  0.66274032665E-01  0.89053391896E-01  0.15460735763E-01  0.88710866773E+00  0.88000000000E+00 0.  1.
        -11    1    4    4    0    0 -0.55380423832E-01 -0.66265442085E-01  0.16128328470E-02  0.86376863276E-01  0.51100000000E-03 0. -1.
         11    1    4    4    0    0 -0.18500221734E-01 -0.42239234914E-01 -0.51700053888E-02  0.46404754574E-01  0.51100000000E-03 0.  1.
</event>
<event>
 8    1  0.1115874E+005  0.1043930E+01  0.7957747E-01            NaN
         13   -1    0    0    0    0  0.00000000000E+00  0.00000000000E+00  0.74505805969E-08  0.10566000000E+00  0.10566000000E+00 0. -1.
     999900   -1    0    0    0    0 -0.00000000000E+00 -0.00000000000E+00 -0.74505805969E-08  0.93827000000E+00  0.93827000000E+00 0.  1.
     999902    2    1    2    0    0 -0.13016286277E-01  0.73056349921E-02 -0.18362787769E-01  0.10202659347E+01  0.10199914654E+01 0.  0.
     999903    2    3    3    0    0 -0.34046540418E-01 -0.75244209401E-01 -0.10138831273E+00  0.13226256412E+00  0.19822662428E-01 0.  0.
         14    1    1    2    0    0  0.13016286277E-01 -0.73056349921E-02  0.18362787769E-01  0.23664065284E-01  0.00000000000E+00 0. -1.
     999901    1    3    3    0    0  0.21030254140E-01  0.82549844393E-01  0.83025524962E-01  0.88800337060E+00  0.88000000000E+00 0. -1.
        -11    1    4    4    0    0  0.62233185795E-03 -0.16975321909E-01 -0.17427632702E-01  0.24341987459E-01  0.51100000000E-03 0.  1.
         11    1    4    4    0    0 -0.34668872276E-01 -0.58268887492E-01 -0.83960680029E-01  0.10792057666E+00  0.51100000000E-03 0. -1.
</event>
<event>
 8    1  0.1115874E+005  0.1043930E+01  0.7957747E-01            NaN
         13   -1    0    0    0    0  0.00000000000E+00  0.00000000000E+00  0.74505805969E-08  0.10566000000E+00  0.10566000000E+00 0.  1.
     999900   -1    0    0    0    0 -0.00000000000E+00 -0.00000000000E+00 -0.74505805969E-08  0.93827000000E+00  0.93827000000E+00 0. -1.
     999902    2    1    2    0    0  0.14900036066E-01  0.96011511750E-02 -0.14670488079E-01  0.10209209496E+01  0.10206616330E+01 0.  0.
     999903    2    3    3    0    0 -0.10034443018E+00 -0.31855471406E-01 -0.74364374214E-01  0.13043608249E+00  0.19993392299E-01 0.  0.
         14    1    1    2    0    0 -0.14900036066E-01 -0.96011511750E-02  0.14670488079E-01  0.23009050374E-01  0.00000000000E+00 0. -1.
     999901    1    3    3    0    0  0.11524446625E+00  0.41456622581E-01  0.59693886135E-01  0.89048486714E+00  0.88000000000E+00 0.  1.
        -11    1    4    4    0    0 -0.64727257043E-01 -0.13198958663E-01 -0.54213180219E-01  0.85458529969E-01  0.51100000000E-03 0. -1.
         11    1    4    4    0    0 -0.35617173140E-01 -0.18656512744E-01 -0.20151193995E-01  0.44977552520E-01  0.51100000000E-03 0.  1.
</event>
<event>
 8    1  0.1115874E+005  0.1043930E+01  0.7957747E-01            NaN
         13   -1    0    0    0    0  0.00000000000E+00  0.00000000000E+00  0.74505805969E-08  0.10566000000E+00  0.10566000000E+00 0.  1.
     999900   -1    0    0    0    0 -0.00000000000E+00 -0.00000000000E+00 -0.74505805969E-08  0.93827000000E+00  0.93827000000E+00 0.  1.
     999902    2    1    2    0    0  0.12302520193E-01  0.12455419296E-01 -0.16896725207E-01  0.10195991801E+01  0.10193088341E+01 0.  0.
     999903    2    3    3    0    0 -0.86257087766E-01  0.47540922665E-01  0.78852336854E-01  0.12824466494E+00  0.22990835985E-01 0.  0.
         14    1    1    2    0    0 -0.12302520193E-01 -0.12455419296E-01  0.16896725207E-01  0.24330819872E-01  0.00000000000E+00 0.  1.
     999901    1    3    3    0    0  0.98559607959E-01 -0.35085503369E-01 -0.95749062062E-01  0.89135451519E+00  0.88000000000E+00 0.  1.
        -11    1    4    4    0    0 -0.29377935944E-01  0.71548272534E-02  0.15368034407E-01  0.33921855431E-01  0.51100000000E-03 0. -1.
         11    1    4    4    0    0 -0.56879151822E-01  0.40386095411E-01  0.63484302447E-01  0.94322809504E-01  0.51100000000E-03 0.  1.
</event>
<event>
 8    1  0.1115874E+005  0.1043930E+01  0.7957747E-01            NaN
         13   -1    0    0    0    0  0.00000000000E+00  0.00000000000E+00  0.74505805969E-08  0.10566000000E+00  0.10566000000E+00 0.  1.
     999900   -1    0    0    0    0 -0.00000000000E+00 -0.00000000000E+00 -0.74505805969E-08  0.93827000000E+00  0.93827000000E+00 0. -1.
     999902    2    1    2    0    0  0.20568521447E-02 -0.10786242398E-01  0.21088556577E-01  0.10201539430E+01  0.10198768389E+01 0.  0.
     999903    2    3    3    0    0  0.10912080081E+00  0.15076715114E-02 -0.66340315655E-01  0.12927929579E+00  0.20061819372E-01 0.  0.
         14    1    1    2    0    0 -0.20568521447E-02  0.10786242398E-01 -0.21088556577E-01  0.23776056955E-01  0.00000000000E+00 0. -1.
     999901    1    3    3    0    0 -0.10706394866E+00 -0.12293913909E-01  0.87428872232E-01  0.89087464726E+00  0.88000000000E+00 0.  1.
        -11    1    4    4    0    0  0.99839931337E-01  0.41909396634E-02 -0.53959917245E-01  0.11356720325E+00  0.51100000000E-03 0. -1.
         11    1    4    4    0    0  0.92808694706E-02 -0.26832681520E-02 -0.12380398410E-01  0.15712092537E-01  0.51100000000E-03 0.  1.
</event>
<event>
 7    1  0.1115874E+005  0.1043930E+01  0.7957747E-01            NaN
         13   -1    0    0    0    0  0.00000000000E+00  0.00000000000E+00  0.74505805969E-08  0.10566000000E+00  0.10566000000E+00 0. -1.
     999900   -1    0    0    0    0 -0.00000000000E+00 -0.00000000000E+00 -0.74505805969E-08  0.93827000000E+00  0.93827000000E+00 0. -1.
     999902    2    1    2    0    0  0.93287763245E-03 -0.12316114832E-01 -0.22027719530E-01  0.10186757454E+01  0.10183626549E+01 0.  0.
         14    1    1    2    0    0 -0.93287763245E-03  0.12316114832E-01  0.22027719530E-01  0.25254254551E-01  0.00000000000E+00 0. -1.
     999901    1    3    3    0    0  0.72921455552E-01  0.90172960477E-01 -0.24985776615E-01  0.88796001628E+00  0.88000000000E+00 0. -1.
        -11    1    3    3    0    0  0.19005184244E-02 -0.33559222395E-02  0.58672983050E-02  0.70399215023E-02  0.51100000000E-03 0.  1.
         11    1    3    3    0    0 -0.73889096344E-01 -0.99133153070E-01 -0.29092412204E-02  0.12367580767E+00  0.51100000000E-03 0. -1.
</event>
<event>
 8    1  0.1115874E+005  0.1043930E+01  0.7957747E-01            NaN
         13   -1    0    0    0    0  0.00000000000E+00  0.00000000000E+00  0.74505805969E-08  0.10566000000E+00  0.10566000000E+00 0. -1.
     999900   -1    0    0    0    0 -0.00000000000E+00 -0.00000000000E+00 -0.74505805969E-08  0.93827000000E+00  0.93827000000E+00 0.  1.
     999902    2    1    2    0    0  0.15883503710E-01  0.13351669268E-01 -0.11352167587E-01  0.10202778443E+01  0.10200036544E+01 0.  0.
     999903    2    3    3    0    0 -0.79654601297E-01 -0.10322272830E-01 -0.10052154056E+00  0.13031202350E+00  0.20621312455E-01 0.  0.
         14    1    1    2    0    0 -0.15883503710E-01 -0.13351669268E-01  0.11352167587E-01  0.23652155742E-01  0.00000000000E+00 0. -1.
     999901    1    3    3    0    0  0.95538105007E-01  0.23673942098E-01  0.89169372974E-01  0.88996582076E+00  0.88000000000E+00 0. -1.
        -11    1    4    4    0    0 -0.47418546714E-01  0.24481830055E-02 -0.49234231321E-01  0.68401628835E-01  0.51100000000E-03 0.  1.
         11    1    4    4    0    0 -0.32236054583E-01 -0.12770455836E-01 -0.51287309240E-01  0.61910394664E-01  0.51100000000E-03 0. -1.
</event>
<event>
 8    1  0.1115874E+005  0.1043930E+01  0.7957747E-01            NaN
         13   -1    0    0    0    0  0.00000000000E+00  0.00000000000E+00  0.74505805969E-08  0.10566000000E+00  0.10566000000E+00 0.  1.
     999900   -1    0    0    0    0 -0.00000000000E+00 -0.00000000000E+00 -0.74505805969E-08  0.93827000000E+00  0.93827000000E+00 0.  1.
     999902    2    1    2    0    0  0.15487161981E-01 -0.14883207875E-01  0.11024848034E-01  0.10197864846E+01  0.10195006448E+01 0.  0.
     999903    2    3    3    0    0  0.18242676139E-01  0.12509711306E+00 -0.12255455646E-01  0.12841447714E+00  0.18920856622E-01 0.  0.
         14    1    1    2    0    0 -0.15487161981E-01  0.14883207875E-01 -0.11024848034E-01  0.24143515424E-01  0.00000000000E+00 0.  1.
     999901    1    3    3    0    0 -0.27555141578E-02 -0.13998032094E+00  0.23280303679E-01  0.89137200744E+00  0.88000000000E+00 0. -1.
        -11    1    4    4    0    0  0.71184480140E-02  0.87426458192E-01 -0.15190339144E-01  0.89022836499E-01  0.51100000000E-03 0. -1.
         11    1    4    4    0    0  0.11124228125E-01  0.37670654872E-01  0.29348834984E-02  0.39391640636E-01  0.51100000000E-03 0.  1.
</event>
<event>
 8    1  0.1115874E+005  0.1043930E+01  0.7957747E-01            NaN
         13   -1    0    0    0    0  0.00000000000E+00  0.00000000000E+00  0.74505805969E-08  0.10566000000E+00  0.10566000000E+00 0.  1.
     999900   -1    0    0    0    0 -0.00000000000E+00 -0.00000000000E+00 -0.74505805969E-08  0.93827000000E+00  0.93827000000E+00 0.  1.
     999902    2    1    2    0    0 -0.13871266859E-01  0.13784590535E-01  0.13255176108E-01  0.10203052953E+01  0.10200317489E+01 0.  0.
     999903    2    3    3    0    0  0.11150332979E-01  0.87779982958E-01  0.97054210157E-01  0.13287998760E+00  0.20196932009E-01 0.  0.
         14    1    1    2    0    0  0.13871266859E-01 -0.13784590535E-01 -0.13255176108E-01  0.23624704742E-01  0.00000000000E+00 0. -1.
     999901    1    3    3    0    0 -0.25021599839E-01 -0.73995392423E-01 -0.83799034049E-01  0.88742530765E+00  0.88000000000E+00 0.  1.
        -11    1    4    4    0    0  0.12163438593E-01  0.24335443789E-01  0.31964723879E-01  0.41978181910E-01  0.51100000000E-03 0. -1.
         11    1    4    4    0    0 -0.10131056136E-02  0.63444539168E-01  0.65089486278E-01  0.90901805693E-01  0.51100000000E-03 0.  1.
</event>
<event>
 8    1  0.1115874E+005  0.1043930E+01  0.7957747E-01            NaN
         13   -1    0    0    0    0  0.00000000000E+00  0.00000000000E+00  0.74505805969E-08  0.10566000000E+00  0.10566000000E+00 0.  1.
     999900   -1    0    0    0    0 -0.00000000000E+00 -0.00000000000E+00 -0.74505805969E-08  0.93827000000E+00  0.93827000000E+00 0. -1.
     999902    2    1    2    0    0  0.16490271547E-01  0.27481353804E-02 -0.16566051271E-01  0.10203945935E+01  0.10201231353E+01 0.  0.
     999903    2    3    3    0    0  0.11060892625E+00 -0.69006029207E-01  0.21959450282E-02  0.13227354669E+00  0.22255389179E-01 0.  0.
         14    1    1    2    0    0 -0.16490271547E-01 -0.27481353804E-02  0.16566051271E-01  0.23535406487E-01  0.00000000000E+00 0.  1.
     999901    1    3    3    0    0 -0.94118654702E-01  0.71754164587E-01 -0.18761996299E-01  0.88812104682E+00  0.88000000000E+00 0.  1.
        -11    1    4    4    0    0  0.87494633071E-01 -0.50082964765E-01  0.10234979659E-01  0.10133424942E+00  0.51100000000E-03 0. -1.
         11    1    4    4    0    0  0.23114293179E-01 -0.18923064442E-01 -0.80390346312E-02  0.30939297274E-01  0.51100000000E-03 0.  1.
</event>
<event>
 8    1  0.1115874E+005  0.1043930E+01  0.7957747E-01            NaN
         13   -1    0    0    0    0  0.00000000000E+00  0.00000000000E+00  0.74505805969E-08  0.10566000000E+00  0.10566000000E+00 0. -1.
     999900   -1    0    0    0    0 -0.00000000000E+00 -0.00000000000E+00 -0.74505805969E-08  0.93827000000E+00  0.93827000000E+00 0.  1.
     999902    2    1    2    0    0 -0.74885550696E-02  0.21509497245E-01  0.70239838681E-02  0.10200957121E+01  0.10198172330E+01 0.  0.
     999903    2    3    3    0    0  0.92231153974E-01  0.46292174876E-01 -0.76898472792E-01  0.13015123060E+00  0.19401455880E-01 0.  0.
         14    1    1    2    0    0  0.74885550696E-02 -0.21509497245E-01 -0.70239838681E-02  0.23834287868E-01  0.00000000000E+00 0. -1.
     999901    1    3    3    0    0 -0.99719709043E-01 -0.24782677630E-01  0.83922456660E-01  0.88994448153E+00  0.88000000000E+00 0.  1.
        -11    1    4    4    0    0  0.57631432007E-01  0.29404604124E-01 -0.36263127868E-01  0.74170669827E-01  0.51100000000E-03 0.  1.
         11    1    4    4    0    0  0.34599721967E-01  0.16887570752E-01 -0.40635344924E-01  0.55980560770E-01  0.51100000000E-03 0. -1.
</event>
<event>
 8    1  0.1115874E+005  0.1043930E+01  0.7957747E-01            NaN
         13   -1    0    0    0    0  0.00000000000E+00  0.00000000000E+00  0.74505805969E-08  0.10566000000E+00  0.10566000000E+00 0.  1.
     999900   -1    0    0    0    0 -0.00000000000E+00 -0.00000000000E+00 -0.74505805969E-08  0.93827000000E+00  0.93827000000E+00 0. -1.
     999902    2    1    2    0    0  0.10510615854E-02  0.22702349572E-01  0.65171706472E-02  0.10202873496E+01  0.10200133826E+01 0.  0.
     999903    2    3    3    0    0  0.10447180091E+00 -0.56154449739E-01  0.48809816346E-01  0.12972409409E+00  0.19448984658E-01 0.  0.
         14    1    1    2    0    0 -0.10510615854E-02 -0.22702349572E-01 -0.65171706472E-02  0.23642650439E-01  0.00000000000E+00 0. -1.
     999901    1    3    3    0    0 -0.10342073932E+00  0.78856799311E-01 -0.42292645699E-01  0.89056325547E+00  0.88000000000E+00 0. -1.
        -11    1    4    4    0    0  0.42163201230E-02 -0.31299612229E-02  0.71799324338E-02  0.89099137701E-02  0.51100000000E-03 0.  1.
         11    1    4    4    0    0  0.10025548079E+00 -0.53024488516E-01  0.41629883912E-01  0.12081418032E+00  0.51100000000E-03 0. -1.
</event>
<event>
 8    1  0.1115874E+005  0.1043930E+01  0.7957747E-01            NaN
         13   -1    0    0    0    0  0.00000000000E+00  0.00000000000E+00  0.74505805969E-08  0.10566000000E+00  0.10566000000E+00 0. -1.
     999900   -1    0    0    0    0 -0.00000000000E+00 -0.00000000000E+00 -0.74505805969E-08  0.93827000000E+00  0.93827000000E+00 0.  1.
     999902    2    1    2    0    0 -0.11629260304E-01 -0.88393694662E-02  0.20112532664E-01  0.10190726446E+01  0.10187694375E+01 0.  0.
     999903    2    3    3    0    0  0.18189346532E-01  0.95846018860E-01  0.83637787969E-01  0.13009365839E+00  0.20292085131E-01 0.  0.
         14    1    1    2    0    0  0.11629260304E-01  0.88393694662E-02 -0.20112532664E-01  0.24857355409E-01  0.00000000000E+00 0.  1.
     999901    1    3    3    0    0 -0.29818606836E-01 -0.10468538833E+00 -0.63525255305E-01  0.88897898620E+00  0.88000000000E+00 0.  1.
        -11    1    4    4    0    0  0.17216751291E-01  0.46789849692E-01  0.49936425715E-01  0.70566382176E-01  0.51100000000E-03 0.  1.
         11    1    4    4    0    0  0.97259524051E-03  0.49056169168E-01  0.33701362254E-01  0.59527276216E-01  0.51100000000E-03 0. -1.
</event>
<event>
 8    1  0.1115874E+005  0.1043930E+01  0.7957747E-01            NaN
         13   -1    0    0    0    0  0.00000000000E+00  0.00000000000E+00  0.74505805969E-08  0.10566000000E+00  0.10566000000E+00 0.  1.
     999900   -1    0    0    0    0 -0.00000000000E+00 -0.00000000000E+00 -0.74505805969E-08  0.93827000000E+00  0.93827000000E+00 0. -1.
     999902    2    1    2    0    0  0.10049509634E-01 -0.60320580171E-02  0.20025961199E-01  0.10207261751E+01  0.10204623986E+01 0.  0.
     999903    2    3    3    0    0 -0.35866891767E-01 -0.10048874241E+00  0.76445154035E-01  0.13268703944E+00  0.19431098392E-01 0.  0.
         14    1    1    2    0    0 -0.10049509634E-01  0.60320580171E-02 -0.20025961199E-01  0.23203824895E-01  0.00000000000E+00 0. -1.
     999901    1    3    3    0    0  0.45916401401E-01  0.94456684394E-01 -0.56419192836E-01  0.88803913566E+00  0.88000000000E+00 0. -1.
        -11    1    4    4    0    0 -0.15873990951E-01 -0.64890256977E-01  0.55191499068E-01  0.86655015606E-01  0.51100000000E-03 0.  1.
         11    1    4    4    0    0 -0.19992900816E-01 -0.35598485434E-01  0.21253654967E-01  0.46032023839E-01  0.51100000000E-03 0. -1.
</event>
<event>
 8    1  0.1115874E+005  0.1043930E+01  0.7957747E-01            NaN
         13   -1    0    0    0    0  0.00000000000E+00  0.00000000000E+00  0.74505805969E-08  0.10566000000E+00  0.10566000000E+00 0. -1.
     999900   -1    0    0    0    0 -0.00000000000E+00 -0.00000000000E+00 -0.74505805969E-08  0.93827000000E+00  0.93827000000E+00 0.  1.
     999902    2    1    2    0    0  0.43606922009E-02  0.18595861390E-01 -0.12629000154E-01  0.10210321105E+01  0.10207753217E+01 0.  0.
     999903    2    3    3    0    0 -0.10869471662E+00  0.51225025207E-01  0.47869797223E-01  0.13114094175E+00  0.21630637722E-01 0.  0.
         14    1    1    2    0    0 -0.43606922009E-02 -0.18595861390E-01  0.12629000154E-01  0.22897889470E-01  0.00000000000E+00 0. -1.
     999901    1    3    3    0    0  0.11305540882E+00 -0.32629163817E-01 -0.60498797376E-01  0.88989116878E+00  0.88000000000E+00 0.  1.
        -11    1    4    4    0    0 -0.81288802954E-01  0.39272989640E-01  0.45624070858E-01  0.10115361666E+00  0.51100000000E-03 0.  1.
         11    1    4    4    0    0 -0.27405913663E-01  0.11952035567E-01  0.22457263643E-02  0.29987325086E-01  0.51100000000E-03 0. -1.
</event>
<event>
 8    1  0.1115874E+005  0.1043930E+01  0.7957747E-01            NaN
         13   -1    0    0    0    0  0.00000000000E+00  0.00000000000E+00  0.74505805969E-08  0.10566000000E+00  0.10566000000E+00 0.  1.
     999900   -1    0    0    0    0 -0.00000000000E+00 -0.00000000000E+00 -0.74505805969E-08  0.93827000000E+00  0.93827000000E+00 0.  1.
     999902    2    1    2    0    0  0.15212138042E-01  0.16772355728E-01  0.11927283133E-01  0.10183374006E+01  0.10180157564E+01 0.  0.
     999903    2    3    3    0    0  0.12868222221E+00 -0.10298456035E-01  0.89215937472E-03  0.13057050395E+00  0.19562414035E-01 0.  0.
         14    1    1    2    0    0 -0.15212138042E-01 -0.16772355728E-01 -0.11927283133E-01  0.25592599387E-01  0.00000000000E+00 0. -1.
     999901    1    3    3    0    0 -0.11347008417E+00  0.27070811763E-01  0.11035123758E-01  0.88776689666E+00  0.88000000000E+00 0. -1.
        -11    1    4    4    0    0  0.90762060393E-01 -0.22376003036E-02  0.80396867062E-02  0.91146344662E-01  0.51100000000E-03 0. -1.
         11    1    4    4    0    0  0.37920161822E-01 -0.80608557311E-02 -0.71475273315E-02  0.39424159289E-01  0.51100000000E-03 0.  1.
</event>
<event>
 8    1  0.1115874E+005  0.1043930E+01  0.7957747E-01            NaN
         13   -1    0    0    0    0  0.00000000000E+00  0.00000000000E+00  0.74505805969E-08  0.10566000000E+00  0.10566000000E+00 0. -1.
     999900   -1    0    0    0    0 -0.00000000000E+00 -0.00000000000E+00 -0.74505805969E-08  0.93827000000E+00  0.93827000000E+00 0.  1.
     999902    2    1    2    0    0 -0.15633249379E-01  0.84960264421E-02  0.15318128022E-01  0.10204517974E+01  0.10201816725E+01 0.  0.
     999903    2    3    3    0    0  0.83998903206E-01  0.55217037062E-01  0.81806147596E-01  0.13110930127E+00  0.19815806168E-01 0.  0.
         14    1    1    2    0    0  0.15633249379E-01 -0.84960264421E-02 -0.15318128022E-01  0.23478202604E-01  0.00000000000E+00 0.  1.
     999901    1    3    3    0    0 -0.99632152585E-01 -0.46721010620E-01 -0.66488019574E-01  0.88934249612E+00  0.88000000000E+00 0.  1.
        -11    1    4    4    0    0  0.26252526803E-01  0.21392846975E-01  0.16787558954E-01  0.37801221169E-01  0.51100000000E-03 0. -1.
         11    1    4    4    0    0  0.57746376403E-01  0.33824190087E-01  0.65018588642E-01  0.93308080104E-01  0.51100000000E-03 0.  1.
</event>
<event>
 8    1  0.1115874E+005  0.1043930E+01  0.7957747E-01            NaN
         13   -1    0    0    0    0  0.00000000000E+00  0.00000000000E+00  0.74505805969E-08  0.10566000000E+00  0.10566000000E+00 0.  1.
     999900   -1    0    0    0    0 -0.00000000000E+00 -0.00000000000E+00 -0.74505805969E-08  0.93827000000E+00  0.93827000000E+00 0.  1.
     999902    2    1    2    0    0  0.33288357423E-02  0.22194092992E-01  0.55640815311E-02  0.10208081940E+01  0.10205463002E+01 0.  0.
     999903    2    3    3    0    0  0.12273192726E+00 -0.75494947501E-02  0.41839680694E-01  0.13150639009E+00  0.20573062860E-01 0.  0.
         14    1    1    2    0    0 -0.33288357423E-02 -0.22194092992E-01 -0.55640815311E-02  0.23121806037E-01  0.00000000000E+00 0.  1.
     999901    1    3    3    0    0 -0.11940309151E+00  0.29743587742E-01 -0.36275599163E-01  0.88930180387E+00  0.88000000000E+00 0.  1.
        -11    1    4    4    0    0  0.59061113894E-01  0.66003516373E-02  0.20997326917E-01  0.63031172247E-01  0.51100000000E-03 0.  1.
         11    1    4    4    0    0  0.63670813361E-01 -0.14149846387E-01  0.20842353778E-01  0.68475217844E-01  0.51100000000E-03 0. -1.
</event>
<event>
 8    1  0.1115874E+005  0.1043930E+01  0.7957747E-01            NaN
         13   -1    0    0    0    0  0.00000000000E+00  0.00000000000E+00  0.74505805969E-08  0.10566000000E+00  0.10566000000E+00 0.  1.
     999900   -1    0    0    0    0 -0.00000000000E+00 -0.00000000000E+00 -0.74505805969E-08  0.93827000000E+00  0.93827000000E+00 0. -1.
     999902    2    1    2    0    0  0.20093674021E-01 -0.12326593186E-01 -0.11535476489E-04  0.10203566937E+01  0.10200843503E+01 0.  0.
     999903    2    3    3    0    0  0.28581080332E-01  0.65142489498E-01  0.10758183842E+00  0.13038488017E+00  0.19129634798E-01 0.  0.
         14    1    1    2    0    0 -0.20093674021E-01  0.12326593186E-01  0.11535476489E-04  0.23573306266E-01  0.00000000000E+00 0. -1.
     999901    1    3    3    0    0 -0.84874063103E-02 -0.77469082684E-01 -0.10759337390E+00  0.88997181357E+00  0.88000000000E+00 0. -1.
        -11    1    4    4    0    0 -0.11102616337E-02  0.11123647673E-01  0.10253270610E-01  0.15177578781E-01  0.51100000000E-03 0. -1.
         11    1    4    4    0    0  0.29691341965E-01  0.54018841825E-01  0.97328567809E-01  0.11520730139E+00  0.51100000000E-03 0.  1.
</event>
<event>
 8    1  0.1115874E+005  0.1043930E+01  0.7957747E-01            NaN
         13   -1    0    0    0    0  0.00000000000E+00  0.00000000000E+00  0.74505805969E-08  0.10566000000E+00  0.10566000000E+00 0.  1.
     999900   -1    0    0    0    0 -0.00000000000E+00 -0.00000000000E+00 -0.74505805969E-08  0.93827000000E+00  0.93827000000E+00 0.  1.
     999902    2    1    2    0    0  0.21160182135E-01  0.12686687599E-01 -0.14804622993E-02  0.10192136670E+01  0.10189139325E+01 0.  0.
     999903    2    3    3    0    0  0.10517024047E+00 -0.71744200287E-01 -0.24289395715E-01  0.13089699360E+00  0.18331351121E-01 0.  0.
         14    1    1    2    0    0 -0.21160182135E-01 -0.12686687599E-01  0.14804622993E-02  0.24716333037E-01  0.00000000000E+00 0. -1.
     999901    1    3    3    0    0 -0.84010058336E-01  0.84430887885E-01  0.22808933416E-01  0.88831667336E+00  0.88000000000E+00 0.  1.
        -11    1    4    4    0    0  0.46519537616E-01 -0.42800909394E-01 -0.11547269909E-01  0.64261853290E-01  0.51100000000E-03 0. -1.
         11    1    4    4    0    0  0.58650702854E-01 -0.28943290893E-01 -0.12742125806E-01  0.66635140310E-01  0.51100000000E-03 0.  1.
</event>
<event>
 8    1  0.1115874E+005  0.1043930E+01  0.7957747E-01            NaN
         13   -1    0    0    0    0  0.00000000000E+00  0.00000000000E+00  0.74505805969E-08  0.10566000000E+00  0.10566000000E+00 0.  1.
     999900   -1    0    0    0    0 -0.00000000000E+00 -0.00000000000E+00 -0.74505805969E-08  0.93827000000E+00  0.93827000000E+00 0. -1.
     999902    2    1    2    0    0  0.16649412697E-01 -0.10919814864E-01  0.12425215618E-01  0.10204602049E+01  0.10201902756E+01 0.  0.
     999903    2    3    3    0    0  0.35990928352E-01 -0.12043191188E+00  0.38330155848E-01  0.13308313759E+00  0.21041110716E-01 0.  0.
         14    1    1    2    0    0 -0.16649412697E-01  0.10919814864E-01 -0.12425215618E-01  0.23469795120E-01  0.00000000000E+00 0. -1.
     999901    1    3    3    0    0 -0.19341515655E-01  0.10951209702E+00 -0.25904940231E-01  0.88737706729E+00  0.88000000000E+00 0.  1.
        -11    1    4    4    0    0  0.67993335424E-02 -0.25379091224E-01 -0.63180590288E-03  0.26286679282E-01  0.51100000000E-03 0. -1.
         11    1    4    4    0    0  0.29191594809E-01 -0.95052820660E-01  0.38961961751E-01  0.10679645831E+00  0.51100000000E-03 0.  1.
</event>
<event>
 8    1  0.1115874E+005  0.1043930E+01  0.7957747E-01            NaN
         13   -1    0    0    0    0  0.00000000000E+00  0.00000000000E+00  0.74505805969E-08  0.10566000000E+00  0.10566000000E+00 0.  1.
     999900   -1    0    0    0    0 -0.00000000000E+00 -0.00000000000E+00 -0.74505805969E-08  0.93827000000E+00  0.93827000000E+00 0. -1.
     999902    2    1    2    0    0  0.37645095618E-02 -0.39464528501E-02 -0.22670065045E-01  0.10206130990E+01  0.10203467156E+01 0.  0.
     999903    2    3    3    0    0 -0.46850087989E-01 -0.11997828413E+00 -0.19067440608E-01  0.13154718343E+00  0.18744993173E-01 0.  0.
         14    1    1    2    0    0 -0.37645095618E-02  0.39464528501E-02  0.22670065045E-01  0.23316900984E-01  0.00000000000E+00 0.  1.
     999901    1    3    3    0    0  0.50614597551E-01  0.11603183128E+00 -0.36026244369E-02  0.88906591559E+00  0.88000000000E+00 0.  1.
        -11    1    4    4    0    0 -0.13439727276E-01 -0.37234725917E-01 -0.14613793738E-01  0.42200416725E-01  0.51100000000E-03 0.  1.
         11    1    4    4    0    0 -0.33410360712E-01 -0.82743558215E-01 -0.44536468700E-02  0.89346766704E-01  0.51100000000E-03 0. -1.
</event>
<event>
 8    1  0.1115874E+005  0.1043930E+01  0.7957747E-01            NaN
         13   -1    0    0    0    0  0.00000000000E+00  0.00000000000E+00  0.74505805969E-08  0.10566000000E+00  0.10566000000E+00 0.  1.
     999900   -1    0    0    0    0 -0.00000000000E+00 -0.00000000000E+00 -0.74505805969E-08  0.93827000000E+00  0.93827000000E+00 0.  1.
     999902    2    1    2    0    0 -0.34590480733E-03  0.15871450389E-01  0.15368341328E-01  0.10218345592E+01  0.10215956431E+01 0.  0.
     999903    2    3    3    0    0 -0.15576516027E-01 -0.57393151864E-01 -0.11323449496E+00  0.12934458004E+00  0.19270905611E-01 0.  0.
         14    1    1    2    0    0  0.34590480733E-03 -0.15871450389E-01 -0.15368341328E-01  0.22095440769E-01  0.00000000000E+00 0. -1.
     999901    1    3    3    0    0  0.15230611219E-01  0.73264602253E-01  0.12860283629E+00  0.89248997919E+00  0.88000000000E+00 0. -1.
        -11    1    4    4    0    0 -0.17662317520E-01 -0.41727370470E-01 -0.70799276281E-01  0.84059083682E-01  0.51100000000E-03 0.  1.
         11    1    4    4    0    0  0.20858014938E-02 -0.15665781393E-01 -0.42435218681E-01  0.45285496354E-01  0.51100000000E-03 0. -1.
</event>
<event>
 8    1  0.1115874E+005  0.1043930E+01  0.7957747E-01            NaN
         13   -1    0    0    0    0  0.00000000000E+00  0.00000000000E+00  0.74505805969E-08  0.10566000000E+00  0.10566000000E+00 0.  1.
     999900   -1    0    0    0    0 -0.00000000000E+00 -0.00000000000E+00 -0.74505805969E-08  0.93827000000E+00  0.93827000000E+00 0. -1.
     999902    2    1    2    0    0  0.40557335919E-02  0.14749096066E-01  0.22297682895E-01  0.10168898175E+01  0.10165302403E+01 0.  0.
     999903    2    3    3    0    0 -0.84273869981E-01  0.32465865797E-01  0.90987850636E-01  0.12962754397E+00  0.19193581986E-01 0.  0.
         14    1    1    2    0    0 -0.40557335919E-02 -0.14749096066E-01 -0.22297682895E-01  0.27040182547E-01  0.00000000000E+00 0. -1.
     999901    1    3    3    0    0  0.88329603573E-01 -0.17716769731E-01 -0.68690167741E-01  0.88726227348E+00  0.88000000000E+00 0. -1.
        -11    1    4    4    0    0 -0.22806507319E-02  0.38267242185E-02  0.96241024928E-02  0.10617422276E-01  0.51100000000E-03 0. -1.
         11    1    4    4    0    0 -0.81993219249E-01  0.28639141578E-01  0.81363748143E-01  0.11901012170E+00  0.51100000000E-03 0.  1.
</event>
<event>
 8    1  0.1115874E+005  0.1043930E+01  0.7957747E-01            NaN
         13   -1    0    0    0    0  0.00000000000E+00  0.00000000000E+00  0.74505805969E-08  0.10566000000E+00  0.10566000000E+00 0. -1.
     999900   -1    0    0    0    0 -0.00000000000E+00 -0.00000000000E+00 -0.74505805969E-08  0.93827000000E+00  0.93827000000E+00 0. -1.
     999902    2    1    2    0    0  0.50301661763E-02 -0.12732416384E-01 -0.18642074585E-01  0.10208011448E+01  0.10205390895E+01 0.  0.
     999903    2    3    3    0    0  0.12931517127E-01  0.24335293096E-01  0.12394212080E+00  0.12851940721E+00  0.19903720698E-01 0.  0.
         14    1    1    2    0    0 -0.50301661763E-02  0.12732416384E-01  0.18642074585E-01  0.23128855215E-01  0.00000000000E+00 0. -1.
     999901    1    3    3    0    0 -0.79013509507E-02 -0.37067709479E-01 -0.14258419538E+00  0.89228173757E+00  0.88000000000E+00 0. -1.
        -11    1    4    4    0    0 -0.38018979735E-02  0.13540045445E-01  0.50825925706E-01  0.52738250860E-01  0.51100000000E-03 0. -1.
         11    1    4    4    0    0  0.16733415101E-01  0.10795247650E-01  0.73116195090E-01  0.75781156353E-01  0.51100000000E-03 0.  1.
</event>
<event>
 8    1  0.1115874E+005  0.1043930E+01  0.7957747E-01            NaN
         13   -1    0    0    0    0  0.00000000000E+00  0.00000000000E+00  0.74505805969E-08  0.10566000000E+00  0.10566000000E+00 0.  1.
     999900   -1    0    0    0    0 -0.00000000000E+00 -0.00000000000E+00 -0.74505805969E-08  0.93827000000E+00  0.93827000000E+00 0.  1.
     999902    2    1    2    0    0  0.40781555967E-02 -0.79903528343E-02 -0.21386264989E-01  0.10207384192E+01  0.10204749242E+01 0.  0.
     999903    2    3    3    0    0  0.78507897456E-01  0.99875700318E-01  0.20261038595E-01  0.13005925707E+00  0.19137794736E-01 0.  0.
         14    1    1    2    0    0 -0.40781555967E-02  0.79903528343E-02  0.21386264989E-01  0.23191580835E-01  0.00000000000E+00 0.  1.
     999901    1    3    3    0    0 -0.74429741859E-01 -0.10786605315E+00 -0.41647303584E-01  0.89067916210E+00  0.88000000000E+00 0. -1.
        -11    1    4    4    0    0  0.62765673973E-01  0.65931269399E-01  0.15382585280E-01  0.92321975525E-01  0.51100000000E-03 0.  1.
         11    1    4    4    0    0  0.15742223483E-01  0.33944430919E-01  0.48784533152E-02  0.37737281544E-01  0.51100000000E-03 0. -1.
</event>
<event>
 8    1  0.1115874E+005  0.1043930E+01  0.7957747E-01            NaN
         13   -1    0    0    0    0  0.00000000000E+00  0.00000000000E+00  0.74505805969E-08  0.10566000000E+00  0.10566000000E+00 0. -1.
     999900   -1    0    0    0    0 -0.00000000000E+00 -0.00000000000E+00 -0.74505805969E-08  0.93827000000E+00  0.93827000000E+00 0.  1.
     999902    2    1    2    0    0 -0.14643283048E-01  0.15229980222E-01 -0.10200188467E-01  0.10204689284E+01  0.10201992021E+01 0.  0.
     999903    2    3    3    0    0 -0.86605107631E-01  0.67649190330E-01  0.69252202896E-01  0.13241546138E+00  0.25712432535E-01 0.  0.
         14    1    1    2    0    0  0.14643283048E-01 -0.15229980222E-01  0.10200188467E-01  0.23461071603E-01  0.00000000000E+00 0.  1.
     999901    1    3    3    0    0  0.71961824583E-01 -0.52419210107E-01 -0.79452391362E-01  0.88805346702E+00  0.88000000000E+00 0. -1.
        -11    1    4    4    0    0 -0.42096201085E-01  0.30272262934E-01  0.47605047235E-01  0.70391772902E-01  0.51100000000E-03 0. -1.
         11    1    4    4    0    0 -0.44508906546E-01  0.37376927395E-01  0.21647155660E-01  0.62023688480E-01  0.51100000000E-03 0.  1.
</event>
<event>
 8    1  0.1115874E+005  0.1043930E+01  0.7957747E-01            NaN
         13   -1    0    0    0    0  0.00000000000E+00  0.00000000000E+00  0.74505805969E-08  0.10566000000E+00  0.10566000000E+00 0. -1.
     999900   -1    0    0    0    0 -0.00000000000E+00 -0.00000000000E+00 -0.74505805969E-08  0.93827000000E+00  0.93827000000E+00 0.  1.
     999902    2    1    2    0    0  0.20594487792E-02  0.21893114599E-01  0.76014971363E-02  0.10206634456E+01  0.10203982245E+01 0.  0.
     999903    2    3    3    0    0  0.21372023159E-01 -0.59085245216E-01  0.11222920792E+00  0.13056377242E+00  0.22442682163E-01 0.  0.
         14    1    1    2    0    0 -0.20594487792E-02 -0.21893114599E-01 -0.76014971363E-02  0.23266554425E-01  0.00000000000E+00 0.  1.
     999901    1    3    3    0    0 -0.19312574380E-01  0.80978359815E-01 -0.10462771078E+00  0.89009967316E+00  0.88000000000E+00 0.  1.
        -11    1    4    4    0    0  0.10523749666E-01 -0.47592447452E-01  0.97252255369E-01  0.10878443205E+00  0.51100000000E-03 0. -1.
         11    1    4    4    0    0  0.10848273494E-01 -0.11492797764E-01  0.14976952547E-01  0.21779340367E-01  0.51100000000E-03 0.  1.
</event>
<event>
 8    1  0.1115874E+005  0.1043930E+01  0.7957747E-01            NaN
         13   -1    0    0    0    0  0.00000000000E+00  0.00000000000E+00  0.74505805969E-08  0.10566000000E+00  0.10566000000E+00 0. -1.
     999900   -1    0    0    0    0 -0.00000000000E+00 -0.00000000000E+00 -0.74505805969E-08  0.93827000000E+00  0.93827000000E+00 0.  1.
     999902    2    1    2    0    0  0.22779998843E-01  0.18514591174E-02 -0.61585846483E-02  0.10202596723E+01  0.10199850560E+01 0.  0.
     999903    2    3    3    0    0  0.11237397159E+00 -0.34709177974E-02 -0.69230770267E-01  0.13344880846E+00  0.19383708782E-01 0.  0.
         14    1    1    2    0    0 -0.22779998843E-01 -0.18514591174E-02  0.61585846483E-02  0.23670327692E-01  0.00000000000E+00 0. -1.
     999901    1    3    3    0    0 -0.89593972743E-01  0.53223769148E-02  0.63072185618E-01  0.88681086385E+00  0.88000000000E+00 0. -1.
        -11    1    4    4    0    0  0.70548351921E-01  0.29551590841E-02 -0.52286561250E-01  0.87863237662E-01  0.51100000000E-03 0. -1.
         11    1    4    4    0    0  0.41825619665E-01 -0.64260768814E-02 -0.16944209017E-01  0.45585570794E-01  0.51100000000E-03 0.  1.
</event>
<event>
 8    1  0.1115874E+005  0.1043930E+01  0.7957747E-01            NaN
         13   -1    0    0    0    0  0.00000000000E+00  0.00000000000E+00  0.74505805969E-08  0.10566000000E+00  0.10566000000E+00 0.  1.
     999900   -1    0    0    0    0 -0.00000000000E+00 -0.00000000000E+00 -0.74505805969E-08  0.93827000000E+00  0.93827000000E+00 0. -1.
     999902    2    1    2    0    0 -0.17683731144E-01 -0.54654120354E-02 -0.17242386048E-01  0.10186340526E+01  0.10183199145E+01 0.  0.
     999903    2    3    3    0    0  0.10781053956E+00 -0.51200238080E-01  0.38829438528E-01  0.12679071674E+00  0.17988433355E-01 0.  0.
         14    1    1    2    0    0  0.17683731144E-01  0.54654120354E-02  0.17242386048E-01  0.25295947353E-01  0.00000000000E+00 0.  1.
     999901    1    3    3    0    0 -0.12549427071E+00  0.45734826045E-01 -0.56071824576E-01  0.89184333591E+00  0.88000000000E+00 0. -1.
        -11    1    4    4    0    0  0.42840287519E-01 -0.28952324979E-01  0.12167015460E-01  0.53120850357E-01  0.51100000000E-03 0.  1.
         11    1    4    4    0    0  0.64970252042E-01 -0.22247913101E-01  0.26662423068E-01  0.73669866381E-01  0.51100000000E-03 0. -1.
</event>
<event>
 8    1  0.1115874E+005  0.1043930E+01  0.7957747E-01            NaN
         13   -1    0    0    0    0  0.00000000000E+00  0.00000000000E+00  0.74505805969E-08  0.10566000000E+00  0.10566000000E+00 0. -1.
     999900   -1    0    0    0    0 -0.00000000000E+00 -0.00000000000E+00 -0.74505805969E-08  0.93827000000E+00  0.93827000000E+00 0.  1.
     999902    2    1    2    0    0 -0.18670628616E-01 -0.45889711076E-04 -0.15268710752E-01  0.10198109617E+01  0.10195257082E+01 0.  0.
     999903    2    3    3    0    0 -0.38253870236E-01 -0.24587532334E-02  0.12132160558E+00  0.12905496834E+00  0.21606684550E-01 0.  0.
         14    1    1    2    0    0  0.18670628616E-01  0.45889711076E-04  0.15268710752E-01  0.24119038265E-01  0.00000000000E+00 0. -1.
     999901    1    3    3    0    0  0.19583241620E-01  0.24128635223E-02 -0.13659031633E+00  0.89075599340E+00  0.88000000000E+00 0.  1.
        -11    1    4    4    0    0 -0.16063429516E-01 -0.11315644153E-01  0.64025813345E-01  0.66974946554E-01  0.51100000000E-03 0.  1.
         11    1    4    4    0    0 -0.22190440720E-01  0.88568909201E-02  0.57295792231E-01  0.62080021782E-01  0.51100000000E-03 0. -1.
</event>
<event>
 8    1  0.1115874E+005  0.1043930E+01  0.7957747E-01            NaN
         13   -1    0    0    0    0  0.00000000000E+00  0.00000000000E+00  0.74505805969E-08  0.10566000000E+00  0.10566000000E+00 0. -1.
     999900   -1    0    0    0    0 -0.00000000000E+00 -0.00000000000E+00 -0.74505805969E-08  0.93827000000E+00  0.93827000000E+00 0.  1.
     999902    2    1    2    0    0 -0.12703823924E-01 -0.69986263322E-02 -0.16033295491E-01  0.10223097670E+01  0.10220811245E+01 0.  0.
     999903    2    3    3    0    0  0.11336644101E+00  0.57580657588E-01  0.23053370446E-01  0.13012595009E+00  0.15291269525E-01 0.  0.
         14    1    1    2    0    0  0.12703823924E-01  0.69986263322E-02  0.16033295491E-01  0.21620233050E-01  0.00000000000E+00 0. -1.
     999901    1    3    3    0    0 -0.12607026493E+00 -0.64579283920E-01 -0.39086665937E-01  0.89218381686E+00  0.88000000000E+00 0.  1.
        -11    1    4    4    0    0  0.10220429456E+00  0.47165435961E-01  0.22795612463E-01  0.11484858399E+00  0.51100000000E-03 0.  1.
         11    1    4    4    0    0  0.11162146444E-01  0.10415221626E-01  0.25775798262E-03  0.15277366099E-01  0.51100000000E-03 0. -1.
</event>
<event>
 8    1  0.1115874E+005  0.1043930E+01  0.7957747E-01            NaN
         13   -1    0    0    0    0  0.00000000000E+00  0.00000000000E+00  0.74505805969E-08  0.10566000000E+00  0.10566000000E+00 0. -1.
     999900   -1    0    0    0    0 -0.00000000000E+00 -0.00000000000E+00 -0.74505805969E-08  0.93827000000E+00  0.93827000000E+00 0.  1.
     999902    2    1    2    0    0 -0.19209615645E-01 -0.14032564083E-01 -0.18032774937E-02  0.10200726322E+01  0.10197936071E+01 0.  0.
     999903    2    3    3    0    0 -0.54662515408E-01 -0.49195210392E-01  0.10761372459E+00  0.13189168210E+00  0.20162905807E-01 0.  0.
         14    1    1    2    0    0  0.19209615645E-01  0.14032564083E-01  0.18032774937E-02  0.23857367787E-01  0.00000000000E+00 0.  1.
     999901    1    3    3    0    0  0.35452899763E-01  0.35162646309E-01 -0.10941700209E+00  0.88818095011E+00  0.88000000000E+00 0.  1.
        -11    1    4    4    0    0 -0.93436020046E-02 -0.19322218027E-01  0.23973624447E-01  0.32181466685E-01  0.51100000000E-03 0. -1.
         11    1    4    4    0    0 -0.45318913404E-01 -0.29872992365E-01  0.83640100145E-01  0.99710215416E-01  0.51100000000E-03 0.  1.
</event>
<event>
 8    1  0.1115874E+005  0.1043930E+01  0.7957747E-01            NaN
         13   -1    0    0    0    0  0.00000000000E+00  0.00000000000E+00  0.74505805969E-08  0.10566000000E+00  0.10566000000E+00 0. -1.
     999900   -1    0    0    0    0 -0.00000000000E+00 -0.00000000000E+00 -0.74505805969E-08  0.93827000000E+00  0.93827000000E+00 0. -1.
     999902    2    1    2    0    0  0.25514458086E-02  0.62257997356E-02  0.22596747874E-01  0.10203528188E+01  0.10200803848E+01 0.  0.
     999903    2    3    3    0    0 -0.65984759888E-01  0.15997950195E-01 -0.10690382607E+00  0.12818517478E+00  0.19826448444E-01 0.  0.
         14    1    1    2    0    0 -0.25514458086E-02 -0.62257997356E-02 -0.22596747874E-01  0.23577181183E-01  0.00000000000E+00 0.  1.
     999901    1    3    3    0    0  0.68536205697E-01 -0.97721504592E-02  0.12950057394E+00  0.89216764404E+00  0.88000000000E+00 0.  1.
        -11    1    4    4    0    0 -0.14716192744E-01  0.95232759008E-02 -0.39768719671E-01  0.43463447839E-01  0.51100000000E-03 0. -1.
         11    1    4    4    0    0 -0.51268567144E-01  0.64746742941E-02 -0.67135106394E-01  0.84721726941E-01  0.51100000000E-03 0.  1.
</event>
<event>
 8    1  0.1115874E+005  0.1043930E+01  0.7957747E-01            NaN
         13   -1    0    0    0    0  0.00000000000E+00  0.00000000000E+00  0.74505805969E-08  0.10566000000E+00  0.10566000000E+00 0. -1.
     999900   -1    0    0    0    0 -0.00000000000E+00 -0.00000000000E+00 -0.74505805969E-08  0.93827000000E+00  0.93827000000E+00 0. -1.
     999902    2    1    2    0    0 -0.87191514292E-02  0.24186947646E-01  0.55349153034E-02  0.10176304311E+01  0.10172905322E+01 0.  0.
     999903    2    3    3    0    0 -0.12616640089E+00  0.63188634119E-03  0.20896021774E-01  0.12938234585E+00  0.19616006137E-01 0.  0.
         14    1    1    2    0    0  0.87191514292E-02 -0.24186947646E-01 -0.55349153034E-02  0.26299568923E-01  0.00000000000E+00 0. -1.
     999901    1    3    3    0    0  0.11744724946E+00  0.23555061305E-01 -0.15361106471E-01  0.88824808523E+00  0.88000000000E+00 0. -1.
        -11    1    4    4    0    0 -0.10928424849E+00  0.59440753799E-02  0.22023788924E-01  0.11164088588E+00  0.51100000000E-03 0.  1.
         11    1    4    4    0    0 -0.16882152403E-01 -0.53121890387E-02 -0.11277671501E-02  0.17741459971E-01  0.51100000000E-03 0. -1.
</event>
<event>
 8    1  0.1115874E+005  0.1043930E+01  0.7957747E-01            NaN
         13   -1    0    0    0    0  0.00000000000E+00  0.00000000000E+00  0.74505805969E-08  0.10566000000E+00  0.10566000000E+00 0.  1.
     999900   -1    0    0    0    0 -0.00000000000E+00 -0.00000000000E+00 -0.74505805969E-08  0.93827000000E+00  0.93827000000E+00 0. -1.
     999902    2    1    2    0    0  0.64299576603E-02 -0.22599497149E-01 -0.23334556928E-02  0.10203179979E+01  0.10200447491E+01 0.  0.
     999903    2    3    3    0    0  0.96219302790E-01  0.57335524440E-02 -0.86753258102E-01  0.13127829620E+00  0.20416547399E-01 0.  0.
         14    1    1    2    0    0 -0.64299576603E-02  0.22599497149E-01  0.23334556928E-02  0.23612002083E-01  0.00000000000E+00 0.  1.
     999901    1    3    3    0    0 -0.89789345129E-01 -0.28333049593E-01  0.84419802409E-01  0.88903970172E+00  0.88000000000E+00 0.  1.
        -11    1    4    4    0    0  0.33677587016E-01  0.11087046755E-01 -0.26498022486E-01  0.44266339239E-01  0.51100000000E-03 0.  1.
         11    1    4    4    0    0  0.62541715774E-01 -0.53534943106E-02 -0.60255235616E-01  0.87011956957E-01  0.51100000000E-03 0. -1.
</event>
<event>
 8    1  0.1115874E+005  0.1043930E+01  0.7957747E-01            NaN
         13   -1    0    0    0    0  0.00000000000E+00  0.00000000000E+00  0.74505805969E-08  0.10566000000E+00  0.10566000000E+00 0.  1.
     999900   -1    0    0    0    0 -0.00000000000E+00 -0.00000000000E+00 -0.74505805969E-08  0.93827000000E+00  0.93827000000E+00 0. -1.
     999902    2    1    2    0    0 -0.66854405399E-02 -0.17298587391E-01 -0.13639376134E-01  0.10209089483E+01  0.10206493579E+01 0.  0.
     999903    2    3    3    0    0 -0.48347753792E-01  0.92825216987E-01 -0.76035779318E-01  0.13087731302E+00  0.19834442807E-01 0.  0.
         14    1    1    2    0    0  0.66854405399E-02  0.17298587391E-01  0.13639376134E-01  0.23021051719E-01  0.00000000000E+00 0.  1.
     999901    1    3    3    0    0  0.41662313252E-01 -0.11012380438E+00  0.62396403183E-01  0.89003163526E+00  0.88000000000E+00 0.  1.
        -11    1    4    4    0    0 -0.29789163392E-01  0.59350904495E-01 -0.59555438921E-01  0.89202217158E-01  0.51100000000E-03 0.  1.
         11    1    4    4    0    0 -0.18558590400E-01  0.33474312492E-01 -0.16480340397E-01  0.41675095861E-01  0.51100000000E-03 0. -1.
</event>
<event>
 8    1  0.1115874E+005  0.1043930E+01  0.7957747E-01            NaN
         13   -1    0    0    0    0  0.00000000000E+00  0.00000000000E+00  0.74505805969E-08  0.10566000000E+00  0.10566000000E+00 0.  1.
     999900   -1    0    0    0    0 -0.00000000000E+00 -0.00000000000E+00 -0.74505805969E-08  0.93827000000E+00  0.93827000000E+00 0. -1.
     999902    2    1    2    0    0  0.10635412746E-01  0.24919314035E-01  0.44870340702E-02  0.10164669759E+01  0.10160959086E+01 0.  0.
     999903    2    3    3    0    0 -0.76117868992E-01 -0.58467150851E-01  0.78094716858E-01  0.12523326619E+00  0.19293741221E-01 0.  0.
         14    1    1    2    0    0 -0.10635412746E-01 -0.24919314035E-01 -0.44870340702E-02  0.27463024069E-01  0.00000000000E+00 0. -1.
     999901    1    3    3    0    0  0.86753281738E-01  0.83386464886E-01 -0.73607682788E-01  0.89123370974E+00  0.88000000000E+00 0. -1.
        -11    1    4    4    0    0 -0.54048615489E-01 -0.50588856221E-01  0.54118980667E-01  0.91703927940E-01  0.51100000000E-03 0.  1.
         11    1    4    4    0    0 -0.22069253503E-01 -0.78782946297E-02  0.23975736191E-01  0.33529338248E-01  0.51100000000E-03 0. -1.
</event>
<event>
 8    1  0.1115874E+005  0.1043930E+01  0.7957747E-01            NaN
         13   -1    0    0    0    0  0.00000000000E+00  0.00000000000E+00  0.74505805969E-08  0.10566000000E+00  0.10566000000E+00 0. -1.
     999900   -1    0    0    0    0 -0.00000000000E+00 -0.00000000000E+00 -0.74505805969E-08  0.93827000000E+00  0.93827000000E+00 0.  1.
     999902    2    1    2    0    0 -0.18607457389E-01  0.24646775297E-01 -0.14672526910E-02  0.10130131141E+01  0.10125412167E+01 0.  0.
     999903    2    3    3    0    0 -0.10453683251E+00  0.52568334118E-01 -0.45988219314E-01  0.12726733374E+00  0.19765596880E-01 0.  0.
         14    1    1    2    0    0  0.18607457389E-01 -0.24646775297E-01  0.14672526910E-02  0.30916885896E-01  0.00000000000E+00 0.  1.
     999901    1    3    3    0    0  0.85929375120E-01 -0.27921558820E-01  0.44520966623E-01  0.88574578036E+00  0.88000000000E+00 0.  1.
        -11    1    4    4    0    0 -0.25310336103E-02  0.44796296771E-02 -0.52290007831E-02  0.73536918191E-02  0.51100000000E-03 0.  1.
         11    1    4    4    0    0 -0.10200579890E+00  0.48088704441E-01 -0.40759218531E-01  0.11991364193E+00  0.51100000000E-03 0. -1.
</event>
<event>
 8    1  0.1115874E+005  0.1043930E+01  0.7957747E-01            NaN
         13   -1    0    0    0    0  0.00000000000E+00  0.00000000000E+00  0.74505805969E-08  0.10566000000E+00  0.10566000000E+00 0. -1.
     999900   -1    0    0    0    0 -0.00000000000E+00 -0.00000000000E+00 -0.74505805969E-08  0.93827000000E+00  0.93827000000E+00 0. -1.
     999902    2    1    2    0    0 -0.12196174680E-01  0.12739734838E-01 -0.16180186263E-01  0.10199957996E+01  0.10197149530E+01 0.  0.
     999903    2    3    3    0    0 -0.10295149049E+00 -0.50265207580E-01 -0.62230340253E-01  0.13189289634E+00  0.19937912904E-01 0.  0.
         14    1    1    2    0    0  0.12196174680E-01 -0.12739734838E-01  0.16180186263E-01  0.23934200385E-01  0.00000000000E+00 0. -1.
     999901    1    3    3    0    0  0.90755315809E-01  0.63004942418E-01  0.46050153991E-01  0.88810290327E+00  0.88000000000E+00 0.  1.
        -11    1    4    4    0    0 -0.32922459055E-01 -0.26385706280E-01 -0.25303215738E-01  0.49199671277E-01  0.51100000000E-03 0. -1.
         11    1    4    4    0    0 -0.70029031434E-01 -0.23879501300E-01 -0.36927124515E-01  0.82693225066E-01  0.51100000000E-03 0.  1.
</event>
<event>
 8    1  0.1115874E+005  0.1043930E+01  0.7957747E-01            NaN
         13   -1    0    0    0    0  0.00000000000E+00  0.00000000000E+00  0.74505805969E-08  0.10566000000E+00  0.10566000000E+00 0.  1.
     999900   -1    0    0    0    0 -0.00000000000E+00 -0.00000000000E+00 -0.74505805969E-08  0.93827000000E+00  0.93827000000E+00 0. -1.
     999902    2    1    2    0    0  0.70153661391E-02  0.15929584870E-01  0.20140442508E-01  0.10173103745E+01  0.10169620414E+01 0.  0.
     999903    2    3    3    0    0  0.22218213119E-01 -0.56542792157E-01  0.11257348280E+00  0.12937612080E+00  0.19356013679E-01 0.  0.
         14    1    1    2    0    0 -0.70153661391E-02 -0.15929584870E-01 -0.20140442508E-01  0.26619625479E-01  0.00000000000E+00 0. -1.
     999901    1    3    3    0    0 -0.15202846980E-01  0.72472377027E-01 -0.92433040291E-01  0.88793425372E+00  0.88000000000E+00 0. -1.
        -11    1    4    4    0    0  0.84321457694E-03 -0.22631109769E-01  0.30062578809E-01  0.37641704343E-01  0.51100000000E-03 0. -1.
         11    1    4    4    0    0  0.21374998542E-01 -0.33911682387E-01  0.82510903990E-01  0.91734416460E-01  0.51100000000E-03 0.  1.
</event>
<event>
 8    1  0.1115874E+005  0.1043930E+01  0.7957747E-01            NaN
         13   -1    0    0    0    0  0.00000000000E+00  0.00000000000E+00  0.74505805969E-08  0.10566000000E+00  0.10566000000E+00 0.  1.
     999900   -1    0    0    0    0 -0.00000000000E+00 -0.00000000000E+00 -0.74505805969E-08  0.93827000000E+00  0.93827000000E+00 0.  1.
     999902    2    1    2    0    0 -0.20970814114E-01  0.73188113768E-02 -0.77505796532E-02  0.10204052996E+01  0.10201340911E+01 0.  0.
     999903    2    3    3    0    0  0.68720859622E-01 -0.10034524353E+00  0.35418253984E-01  0.12827319432E+00  0.20194930529E-01 0.  0.
         14    1    1    2    0    0  0.20970814114E-01 -0.73188113768E-02  0.77505796532E-02  0.23524700413E-01  0.00000000000E+00 0.  1.
     999901    1    3    3    0    0 -0.89691673737E-01  0.10766405490E+00 -0.43168833637E-01  0.89213210527E+00  0.88000000000E+00 0.  1.
        -11    1    4    4    0    0  0.33909254176E-01 -0.51583205134E-01  0.28387215799E-01  0.67946741735E-01  0.51100000000E-03 0. -1.
         11    1    4    4    0    0  0.34811605447E-01 -0.48762038394E-01  0.70310381852E-02  0.60326452581E-01  0.51100000000E-03 0.  1.
</event>
<event>
 8    1  0.1115874E+005  0.1043930E+01  0.7957747E-01            NaN
         13   -1    0    0    0    0  0.00000000000E+00  0.00000000000E+00  0.74505805969E-08  0.10566000000E+00  0.10566000000E+00 0. -1.
     999900   -1    0    0    0    0 -0.00000000000E+00 -0.00000000000E+00 -0.74505805969E-08  0.93827000000E+00  0.93827000000E+00 0. -1.
     999902    2    1    2    0    0  0.14186386349E-02  0.15570935286E-01  0.16364880821E-01  0.10212964876E+01  0.10210456599E+01 0.  0.
     999903    2    3    3    0    0  0.79469232857E-01 -0.20870321251E-01 -0.98574956439E-01  0.12965136385E+00  0.18480390463E-01 0.  0.
         14    1    1    2    0    0 -0.14186386349E-02 -0.15570935286E-01 -0.16364880821E-01  0.22633512444E-01  0.00000000000E+00 0.  1.
     999901    1    3    3    0    0 -0.78050594222E-01  0.36441256538E-01  0.11493983726E+00  0.89164512370E+00  0.88000000000E+00 0.  1.
        -11    1    4    4    0    0  0.61186316125E-01 -0.20088352030E-01 -0.86003183409E-01  0.10744354725E+00  0.51100000000E-03 0. -1.
         11    1    4    4    0    0  0.18282916732E-01 -0.78196922130E-03 -0.12571773030E-01  0.22207816601E-01  0.51100000000E-03 0.  1.
</event>
<event>
 8    1  0.1115874E+005  0.1043930E+01  0.7957747E-01            NaN
         13   -1    0    0    0    0  0.00000000000E+00  0.00000000000E+00  0.74505805969E-08  0.10566000000E+00  0.10566000000E+00 0. -1.
     999900   -1    0    0    0    0 -0.00000000000E+00 -0.00000000000E+00 -0.74505805969E-08  0.93827000000E+00  0.93827000000E+00 0. -1.
     999902    2    1    2    0    0  0.18989352362E-01  0.12251172265E-01 -0.69618171699E-02  0.10202835706E+01  0.10200095151E+01 0.  0.
     999903    2    3    3    0    0  0.76808314398E-01 -0.77578113385E-01 -0.70557729317E-01  0.13154470402E+00  0.20192452848E-01 0.  0.
         14    1    1    2    0    0 -0.18989352362E-01 -0.12251172265E-01  0.69618171699E-02  0.23646429399E-01  0.00000000000E+00 0. -1.
     999901    1    3    3    0    0 -0.57818962036E-01  0.89829285651E-01  0.63595912147E-01  0.88873886658E+00  0.88000000000E+00 0. -1.
        -11    1    4    4    0    0  0.36679149146E-01 -0.43434181087E-01 -0.25897625684E-01  0.62472683677E-01  0.51100000000E-03 0.  1.
         11    1    4    4    0    0  0.40129165252E-01 -0.34143932299E-01 -0.44660103633E-01  0.69072020342E-01  0.51100000000E-03 0. -1.
</event>
<event>
 8    1  0.1115874E+005  0.1043930E+01  0.7957747E-01            NaN
         13   -1    0    0    0    0  0.00000000000E+00  0.00000000000E+00  0.74505805969E-08  0.10566000000E+00  0.10566000000E+00 0.  1.
     999900   -1    0    0    0    0 -0.00000000000E+00 -0.00000000000E+00 -0.74505805969E-08  0.93827000000E+00  0.93827000000E+00 0.  1.
     999902    2    1    2    0    0  0.80307078135E-03 -0.23259022733E-01 -0.40501838849E-02  0.10203073191E+01  0.10200338203E+01 0.  0.
     999903    2    3    3    0    0 -0.42146618592E-01 -0.40589726588E-01  0.11542928270E+00  0.13102650183E+00  0.20497841720E-01 0.  0.
         14    1    1    2    0    0 -0.80307078135E-03  0.23259022733E-01  0.40501838849E-02  0.23622680853E-01  0.00000000000E+00 0.  1.
     999901    1    3    3    0    0  0.42949689373E-01  0.17330703855E-01 -0.11947946658E+00  0.88928081732E+00  0.88000000000E+00 0.  1.
        -11    1    4    4    0    0 -0.31679144580E-01 -0.19068263024E-01  0.81566321283E-01  0.89557203757E-01  0.51100000000E-03 0. -1.
         11    1    4    4    0    0 -0.10467474012E-01 -0.21521463564E-01  0.33862961412E-01  0.41469298073E-01  0.51100000000E-03 0.  1.
</event>
<event>
 8    1  0.1115874E+005  0.1043930E+01  0.7957747E-01            NaN
         13   -1    0    0    0    0  0.00000000000E+00  0.00000000000E+00  0.74505805969E-08  0.10566000000E+00  0.10566000000E+00 0. -1.
     999900   -1    0    0    0    0 -0.00000000000E+00 -0.00000000000E+00 -0.74505805969E-08  0.93827000000E+00  0.93827000000E+00 0. -1.
     999902    2    1    2    0    0  0.92159752772E-02 -0.15390199968E-01 -0.14067256568E-01  0.10211335055E+01  0.10208790114E+01 0.  0.
     999903    2    3    3    0    0  0.12084205371E+00  0.11653100640E-01 -0.50439069559E-01  0.13292484177E+00  0.19654951629E-01 0.  0.
         14    1    1    2    0    0 -0.92159752772E-02  0.15390199968E-01  0.14067256568E-01  0.22796494527E-01  0.00000000000E+00 0. -1.
     999901    1    3    3    0    0 -0.11162607843E+00 -0.27043300608E-01  0.36371812991E-01  0.88820866370E+00  0.88000000000E+00 0.  1.
        -11    1    4    4    0    0  0.31644962017E-02  0.38991816959E-02 -0.19246258327E-02  0.54021254802E-02  0.51100000000E-03 0.  1.
         11    1    4    4    0    0  0.11767755751E+00  0.77539189443E-02 -0.48514443726E-01  0.12752271629E+00  0.51100000000E-03 0. -1.
</event>
<event>
 8    1  0.1115874E+005  0.1043930E+01  0.7957747E-01            NaN
         13   -1    0    0    0    0  0.00000000000E+00  0.00000000000E+00  0.74505805969E-08  0.10566000000E+00  0.10566000000E+00 0. -1.
     999900   -1    0    0    0    0 -0.00000000000E+00 -0.00000000000E+00 -0.74505805969E-08  0.93827000000E+00  0.93827000000E+00 0. -1.
     999902    2    1    2    0    0 -0.16309526193E-01  0.16928723815E-01 -0.12234069200E-01  0.10174299097E+01  0.10170847391E+01 0.  0.
     999903    2    3    3    0    0  0.59431688042E-01  0.10838861920E+00 -0.32467473593E-01  0.12922327013E+00  0.19086602269E-01 0.  0.
         14    1    1    2    0    0  0.16309526193E-01 -0.16928723815E-01  0.12234069200E-01  0.26500090261E-01  0.00000000000E+00 0. -1.
     999901    1    3    3    0    0 -0.75741214236E-01 -0.91459895380E-01  0.20233404392E-01  0.88820663961E+00  0.88000000000E+00 0.  1.
        -11    1    4    4    0    0  0.51124797377E-01  0.75714822075E-01 -0.23868972469E-01  0.94427052037E-01  0.51100000000E-03 0.  1.
         11    1    4    4    0    0  0.83068906657E-02  0.32673797121E-01 -0.85985011235E-02  0.34796218091E-01  0.51100000000E-03 0. -1.
</event>
<event>
 8    1  0.1115874E+005  0.1043930E+01  0.7957747E-01            NaN
         13   -1    0    0    0    0  0.00000000000E+00  0.00000000000E+00  0.74505805969E-08  0.10566000000E+00  0.10566000000E+00 0.  1.
     999900   -1    0    0    0    0 -0.00000000000E+00 -0.00000000000E+00 -0.74505805969E-08  0.93827000000E+00  0.93827000000E+00 0.  1.
     999902    2    1    2    0    0 -0.15299676031E-01 -0.17127244513E-01  0.44844974983E-02  0.10205305703E+01  0.10202622759E+01 0.  0.
     999903    2    3    3    0    0  0.11982979167E+00 -0.12301166936E-01 -0.41819293658E-01  0.12899969305E+00  0.19533811863E-01 0.  0.
         14    1    1    2    0    0  0.15299676031E-01  0.17127244513E-01 -0.44844974983E-02  0.23399429674E-01  0.00000000000E+00 0. -1.
     999901    1    3    3    0    0 -0.13512946770E+00 -0.48260775772E-02  0.46303791156E-01  0.89153087728E+00  0.88000000000E+00 0. -1.
        -11    1    4    4    0    0  0.31417028911E-01 -0.11224994718E-01 -0.78403716607E-02  0.34274812338E-01  0.51100000000E-03 0. -1.
         11    1    4    4    0    0  0.88412762754E-01 -0.10761722179E-02 -0.33978921997E-01  0.94724880711E-01  0.51100000000E-03 0.  1.
</event>
<event>
 8    1  0.1115874E+005  0.1043930E+01  0.7957747E-01            NaN
         13   -1    0    0    0    0  0.00000000000E+00  0.00000000000E+00  0.74505805969E-08  0.10566000000E+00  0.10566000000E+00 0.  1.
     999900   -1    0    0    0    0 -0.00000000000E+00 -0.00000000000E+00 -0.74505805969E-08  0.93827000000E+00  0.93827000000E+00 0. -1.
     999902    2    1    2    0    0 -0.10412559450E-02  0.62462254775E-02  0.23159191031E-01  0.10199206752E+01  0.10196380417E+01 0.  0.
     999903    2    3    3    0    0 -0.56987581977E-01 -0.62128198136E-01  0.99788699147E-01  0.13218358875E+00  0.20179671801E-01 0.  0.
         14    1    1    2    0    0  0.10412559450E-02 -0.62462254775E-02 -0.23159191031E-01  0.24009324769E-01  0.00000000000E+00 0. -1.
     999901    1    3    3    0    0  0.55946326032E-01  0.68374423614E-01 -0.76629508115E-01  0.88773708648E+00  0.88000000000E+00 0. -1.
        -11    1    4    4    0    0 -0.17084138616E-01 -0.14367656384E-01  0.40383503352E-01  0.46145268514E-01  0.51100000000E-03 0.  1.
         11    1    4    4    0    0 -0.39903443361E-01 -0.47760541752E-01  0.59405195794E-01  0.86038320235E-01  0.51100000000E-03 0. -1.
</event>
<event>
 8    1  0.1115874E+005  0.1043930E+01  0.7957747E-01            NaN
         13   -1    0    0    0    0  0.00000000000E+00  0.00000000000E+00  0.74505805969E-08  0.10566000000E+00  0.10566000000E+00 0. -1.
     999900   -1    0    0    0    0 -0.00000000000E+00 -0.00000000000E+00 -0.74505805969E-08  0.93827000000E+00  0.93827000000E+00 0. -1.
     999902    2    1    2    0    0  0.19729552159E-01 -0.16950093518E-01 -0.81265348140E-02  0.10166792850E+01  0.10163140101E+01 0.  0.
     999903    2    3    3    0    0 -0.21065790350E-01  0.97348205372E-01  0.72298563862E-01  0.12471708986E+00  0.20170016238E-01 0.  0.
         14    1    1    2    0    0 -0.19729552159E-01  0.16950093518E-01  0.81265348140E-02  0.27250714977E-01  0.00000000000E+00 0. -1.
     999901    1    3    3    0    0  0.40795342509E-01 -0.11429829889E+00 -0.80425098676E-01  0.89196219516E+00  0.88000000000E+00 0. -1.
        -11    1    4    4    0    0 -0.12190073705E-01  0.19671450346E-01  0.20595206669E-01  0.30983665283E-01  0.51100000000E-03 0.  1.
         11    1    4    4    0    0 -0.88757166451E-02  0.77676755026E-01  0.51703357193E-01  0.93733424579E-01  0.51100000000E-03 0. -1.
</event>
<event>
 8    1  0.1115874E+005  0.1043930E+01  0.7957747E-01            NaN
         13   -1    0    0    0    0  0.00000000000E+00  0.00000000000E+00  0.74505805969E-08  0.10566000000E+00  0.10566000000E+00 0.  1.
     999900   -1    0    0    0    0 -0.00000000000E+00 -0.00000000000E+00 -0.74505805969E-08  0.93827000000E+00  0.93827000000E+00 0.  1.
     999902    2    1    2    0    0 -0.87934537985E-02 -0.13875721032E-01 -0.16758883401E-01  0.10204625622E+01  0.10201926878E+01 0.  0.
     999903    2    3    3    0    0 -0.10174296047E+00 -0.58110717096E-02  0.78834522987E-01  0.13038236992E+00  0.19982037186E-01 0.  0.
         14    1    1    2    0    0  0.87934537985E-02  0.13875721032E-01  0.16758883401E-01  0.23467437796E-01  0.00000000000E+00 0.  1.
     999901    1    3    3    0    0  0.92949506674E-01 -0.80646493222E-02 -0.95593406388E-01  0.89008019229E+00  0.88000000000E+00 0.  1.
        -11    1    4    4    0    0 -0.36570349774E-01  0.70951435829E-02  0.31754932184E-01  0.48952715799E-01  0.51100000000E-03 0.  1.
         11    1    4    4    0    0 -0.65172610698E-01 -0.12906215293E-01  0.47079590803E-01  0.81429654117E-01  0.51100000000E-03 0. -1.
</event>
<event>
 8    1  0.1115874E+005  0.1043930E+01  0.7957747E-01            NaN
         13   -1    0    0    0    0  0.00000000000E+00  0.00000000000E+00  0.74505805969E-08  0.10566000000E+00  0.10566000000E+00 0. -1.
     999900   -1    0    0    0    0 -0.00000000000E+00 -0.00000000000E+00 -0.74505805969E-08  0.93827000000E+00  0.93827000000E+00 0.  1.
     999902    2    1    2    0    0 -0.16730858168E-01 -0.91700396884E-02 -0.15293026387E-01  0.10194782537E+01  0.10191849792E+01 0.  0.
     999903    2    3    3    0    0  0.85697454474E-01  0.41304017479E-01  0.82856908936E-01  0.12668902911E+00  0.11608926494E-01 0.  0.
         14    1    1    2    0    0  0.16730858168E-01  0.91700396884E-02  0.15293026387E-01  0.24451746338E-01  0.00000000000E+00 0. -1.
     999901    1    3    3    0    0 -0.10242831264E+00 -0.50474057167E-01 -0.98149935323E-01  0.89278922455E+00  0.88000000000E+00 0.  1.
        -11    1    4    4    0    0  0.39545764311E-01  0.14541113290E-01  0.41950478498E-01  0.59459357699E-01  0.51100000000E-03 0. -1.
         11    1    4    4    0    0  0.46151690163E-01  0.26762904189E-01  0.40906430438E-01  0.67229671408E-01  0.51100000000E-03 0.  1.
</event>
<event>
 8    1  0.1115874E+005  0.1043930E+01  0.7957747E-01            NaN
         13   -1    0    0    0    0  0.00000000000E+00  0.00000000000E+00  0.74505805969E-08  0.10566000000E+00  0.10566000000E+00 0.  1.
     999900   -1    0    0    0    0 -0.00000000000E+00 -0.00000000000E+00 -0.74505805969E-08  0.93827000000E+00  0.93827000000E+00 0. -1.
     999902    2    1    2    0    0  0.18764984784E-02  0.34280785337E-01  0.98052356976E-02  0.10082251525E+01  0.10075927361E+01 0.  0.
     999903    2    3    3    0    0 -0.10304541279E+00  0.48930890788E-01  0.35748057321E-01  0.12149167332E+00  0.21672884325E-01 0.  0.
         14    1    1    2    0    0 -0.18764984784E-02 -0.34280785337E-01 -0.98052356976E-02  0.35704847527E-01  0.00000000000E+00 0. -1.
     999901    1    3    3    0    0  0.10492191126E+00 -0.14650105451E-01 -0.25942821623E-01  0.88673347915E+00  0.88000000000E+00 0. -1.
        -11    1    4    4    0    0 -0.32841939095E-01  0.26553319169E-01  0.96861028458E-02  0.43333052417E-01  0.51100000000E-03 0.  1.
         11    1    4    4    0    0 -0.70203473690E-01  0.22377571619E-01  0.26061954475E-01  0.78158620905E-01  0.51100000000E-03 0. -1.
</event>
<event>
 8    1  0.1115874E+005  0.1043930E+01  0.7957747E-01            NaN
         13   -1    0    0    0    0  0.00000000000E+00  0.00000000000E+00  0.74505805969E-08  0.10566000000E+00  0.10566000000E+00 0. -1.
     999900   -1    0    0    0    0 -0.00000000000E+00 -0.00000000000E+00 -0.74505805969E-08  0.93827000000E+00  0.93827000000E+00 0.  1.
     999902    2    1    2    0    0 -0.13937591288E-01 -0.18774463848E-01 -0.13888997012E-02  0.10205063797E+01  0.10202375239E+01 0.  0.
     999903    2    3    3    0    0  0.63366769333E-01  0.10871590845E+00  0.11028291214E-01  0.12787882817E+00  0.19921728865E-01 0.  0.
         14    1    1    2    0    0  0.13937591288E-01  0.18774463848E-01  0.13888997012E-02  0.23423620260E-01  0.00000000000E+00 0.  1.
     999901    1    3    3    0    0 -0.77304360621E-01 -0.12749037229E+00 -0.12417190915E-01  0.89262755157E+00  0.88000000000E+00 0.  1.
        -11    1    4    4    0    0  0.20450943480E-01  0.25943260486E-01 -0.45425614047E-02  0.33349510326E-01  0.51100000000E-03 0. -1.
         11    1    4    4    0    0  0.42915825853E-01  0.82772647960E-01  0.15570852619E-01  0.94529317840E-01  0.51100000000E-03 0.  1.
</event>
<event>
 8    1  0.1115874E+005  0.1043930E+01  0.7957747E-01            NaN
         13   -1    0    0    0    0  0.00000000000E+00  0.00000000000E+00  0.74505805969E-08  0.10566000000E+00  0.10566000000E+00 0. -1.
     999900   -1    0    0    0    0 -0.00000000000E+00 -0.00000000000E+00 -0.74505805969E-08  0.93827000000E+00  0.93827000000E+00 0.  1.
     999902    2    1    2    0    0 -0.11092581722E-01 -0.33304619644E-02 -0.18106421286E-01  0.10224362838E+01  0.10222103377E+01 0.  0.
     999903    2    3    3    0    0 -0.10644654063E+00  0.23263640042E-01 -0.77009147093E-01  0.13492901345E+00  0.20083997995E-01 0.  0.
         14    1    1    2    0    0  0.11092581722E-01  0.33304619644E-02  0.18106421286E-01  0.21493716243E-01  0.00000000000E+00 0. -1.
     999901    1    3    3    0    0  0.95353958904E-01 -0.26594102006E-01  0.58902725807E-01  0.88750727031E+00  0.88000000000E+00 0. -1.
        -11    1    4    4    0    0 -0.92501337604E-01  0.23925560389E-01 -0.73440520897E-01  0.12051017023E+00  0.51100000000E-03 0. -1.
         11    1    4    4    0    0 -0.13945203022E-01 -0.66192034696E-03 -0.35686261965E-02  0.14418843219E-01  0.51100000000E-03 0.  1.
</event>
<event>
 8    1  0.1115874E+005  0.1043930E+01  0.7957747E-01            NaN
         13   -1    0    0    0    0  0.00000000000E+00  0.00000000000E+00  0.74505805969E-08  0.10566000000E+00  0.10566000000E+00 0. -1.
     999900   -1    0    0    0    0 -0.00000000000E+00 -0.00000000000E+00 -0.74505805969E-08  0.93827000000E+00  0.93827000000E+00 0. -1.
     999902    2    1    2    0    0  0.61334374204E-02 -0.21537754967E-01  0.66427231880E-02  0.10205714959E+01  0.10203041500E+01 0.  0.
     999903    2    3    3    0    0 -0.37846187257E-01  0.73454451077E-01  0.98050506015E-01  0.12966571558E+00  0.19271891321E-01 0.  0.
         14    1    1    2    0    0 -0.61334374204E-02  0.21537754967E-01 -0.66427231880E-02  0.23358504125E-01  0.00000000000E+00 0. -1.
     999901    1    3    3    0    0  0.43979624678E-01 -0.94992206044E-01 -0.91407782827E-01  0.89090578029E+00  0.88000000000E+00 0. -1.
        -11    1    4    4    0    0 -0.22049624733E-01  0.47286641360E-01  0.47335082873E-01  0.70449156088E-01  0.51100000000E-03 0. -1.
         11    1    4    4    0    0 -0.15796562525E-01  0.26167809717E-01  0.50715423142E-01  0.59216559495E-01  0.51100000000E-03 0.  1.
</event>
<event>
 8    1  0.1115874E+005  0.1043930E+01  0.7957747E-01            NaN
         13   -1    0    0    0    0  0.00000000000E+00  0.00000000000E+00  0.74505805969E-08  0.10566000000E+00  0.10566000000E+00 0.  1.
     999900   -1    0    0    0    0 -0.00000000000E+00 -0.00000000000E+00 -0.74505805969E-08  0.93827000000E+00  0.93827000000E+00 0.  1.
     999902    2    1    2    0    0  0.16038565415E-01 -0.13392166007E-01 -0.10088129824E-01  0.10207274990E+01  0.10204637530E+01 0.  0.
     999903    2    3    3    0    0  0.10683087331E-02  0.10559957855E+00  0.71012646678E-01  0.12889764983E+00  0.20479156955E-01 0.  0.
         14    1    1    2    0    0 -0.16038565415E-01  0.13392166007E-01  0.10088129824E-01  0.23202501035E-01  0.00000000000E+00 0.  1.
     999901    1    3    3    0    0  0.14970256682E-01 -0.11899174456E+00 -0.81100776502E-01  0.89182984913E+00  0.88000000000E+00 0.  1.
        -11    1    4    4    0    0 -0.84982871109E-02  0.49786875915E-01  0.27721702418E-01  0.57616905533E-01  0.51100000000E-03 0.  1.
         11    1    4    4    0    0  0.95665958439E-02  0.55812702638E-01  0.43290944260E-01  0.71280744298E-01  0.51100000000E-03 0. -1.
</event>
<event>
 8    1  0.1115874E+005  0.1043930E+01  0.7957747E-01            NaN
         13   -1    0    0    0    0  0.00000000000E+00  0.00000000000E+00  0.74505805969E-08  0.10566000000E+00  0.10566000000E+00 0.  1.
     999900   -1    0    0    0    0 -0.00000000000E+00 -0.00000000000E+00 -0.74505805969E-08  0.93827000000E+00  0.93827000000E+00 0. -1.
     999902    2    1    2    0    0  0.11575092929E-01 -0.13441501872E-01  0.16686738347E-01  0.10195762737E+01  0.10192853741E+01 0.  0.
     999903    2    3    3    0    0 -0.11009100671E+00 -0.16465916310E-02 -0.60659362797E-01  0.12776677661E+00  0.22848411040E-01 0.  0.
         14    1    1    2    0    0 -0.11575092929E-01  0.13441501872E-01 -0.16686738347E-01  0.24353726317E-01  0.00000000000E+00 0. -1.
     999901    1    3    3    0    0  0.12166609964E+00 -0.11794910241E-01  0.77346101143E-01  0.89180949707E+00  0.88000000000E+00 0.  1.
        -11    1    4    4    0    0 -0.64197780652E-01  0.21067033018E-02 -0.22827801877E-01  0.68170102677E-01  0.51100000000E-03 0. -1.
         11    1    4    4    0    0 -0.45893226060E-01 -0.37532949327E-02 -0.37831560920E-01  0.59596673931E-01  0.51100000000E-03 0.  1.
</event>
<event>
 8    1  0.1115874E+005  0.1043930E+01  0.7957747E-01            NaN
         13   -1    0    0    0    0  0.00000000000E+00  0.00000000000E+00  0.74505805969E-08  0.10566000000E+00  0.10566000000E+00 0. -1.
     999900   -1    0    0    0    0 -0.00000000000E+00 -0.00000000000E+00 -0.74505805969E-08  0.93827000000E+00  0.93827000000E+00 0. -1.
     999902    2    1    2    0    0  0.22241489107E-01 -0.10671765174E-02 -0.80077759319E-02  0.10202667969E+01  0.10199923479E+01 0.  0.
     999903    2    3    3    0    0 -0.12521024964E-01  0.23832714576E-01 -0.12688380128E+00  0.13124489262E+00  0.20023697495E-01 0.  0.
         14    1    1    2    0    0 -0.22241489107E-01  0.10671765174E-02  0.80077759319E-02  0.23663203055E-01  0.00000000000E+00 0. -1.
     999901    1    3    3    0    0  0.34762514072E-01 -0.24899891093E-01  0.11887602535E+00  0.88902190432E+00  0.88000000000E+00 0.  1.
        -11    1    4    4    0    0 -0.55665416851E-02 -0.52726050693E-03 -0.85507041810E-02  0.10229372071E-01  0.51100000000E-03 0.  1.
         11    1    4    4    0    0 -0.69544832793E-02  0.24359975083E-01 -0.11833309710E+00  0.12101552055E+00  0.51100000000E-03 0. -1.
</event>
<event>
 8    1  0.1115874E+005  0.1043930E+01  0.7957747E-01            NaN
         13   -1    0    0    0    0  0.00000000000E+00  0.00000000000E+00  0.74505805969E-08  0.10566000000E+00  0.10566000000E+00 0.  1.
     999900   -1    0    0    0    0 -0.00000000000E+00 -0.00000000000E+00 -0.74505805969E-08  0.93827000000E+00  0.93827000000E+00 0. -1.
     999902    2    1    2    0    0 -0.19719754516E-01  0.11727346047E-01 -0.66729844419E-02  0.10200358985E+01  0.10197560033E+01 0.  0.
     999903    2    3    3    0    0  0.58813788236E-01  0.95356888729E-01 -0.64308163905E-01  0.13071973897E+00  0.20002807239E-01 0.  0.
         14    1    1    2    0    0  0.19719754516E-01 -0.11727346047E-01  0.66729844419E-02  0.23894101465E-01  0.00000000000E+00 0. -1.
     999901    1    3    3    0    0 -0.78533542752E-01 -0.83629542682E-01  0.57635179463E-01  0.88931615956E+00  0.88000000000E+00 0.  1.
        -11    1    4    4    0    0  0.36839414600E-01  0.42680443425E-01 -0.37051656135E-01  0.67467392586E-01  0.51100000000E-03 0.  1.
         11    1    4    4    0    0  0.21974373637E-01  0.52676445304E-01 -0.27256507770E-01  0.63252346387E-01  0.51100000000E-03 0. -1.
</event>
<event>
 8    1  0.1115874E+005  0.1043930E+01  0.7957747E-01            NaN
         13   -1    0    0    0    0  0.00000000000E+00  0.00000000000E+00  0.74505805969E-08  0.10566000000E+00  0.10566000000E+00 0. -1.
     999900   -1    0    0    0    0 -0.00000000000E+00 -0.00000000000E+00 -0.74505805969E-08  0.93827000000E+00  0.93827000000E+00 0.  1.
     999902    2    1    2    0    0  0.13027011152E-01  0.12810492495E-01 -0.15091148240E-01  0.10202328590E+01  0.10199576129E+01 0.  0.
     999903    2    3    3    0    0 -0.11727336084E+00 -0.42711538959E-01 -0.23466214596E-01  0.12886816108E+00  0.21886593819E-01 0.  0.
         14    1    1    2    0    0 -0.13027011152E-01 -0.12810492495E-01  0.15091148240E-01  0.23697141024E-01  0.00000000000E+00 0. -1.
     999901    1    3    3    0    0  0.13030037200E+00  0.55522031454E-01  0.83750663561E-02  0.89136469790E+00  0.88000000000E+00 0. -1.
        -11    1    4    4    0    0 -0.36088791314E-01 -0.22189361145E-01 -0.19713032914E-02  0.42413627105E-01  0.51100000000E-03 0. -1.
         11    1    4    4    0    0 -0.81184569529E-01 -0.20522177814E-01 -0.21494911304E-01  0.86454533975E-01  0.51100000000E-03 0.  1.
</event>
<event>
 8    1  0.1115874E+005  0.1043930E+01  0.7957747E-01            NaN
         13   -1    0    0    0    0  0.00000000000E+00  0.00000000000E+00  0.74505805969E-08  0.10566000000E+00  0.10566000000E+00 0. -1.
     999900   -1    0    0    0    0 -0.00000000000E+00 -0.00000000000E+00 -0.74505805969E-08  0.93827000000E+00  0.93827000000E+00 0.  1.
     999902    2    1    2    0    0  0.80430307383E-02 -0.14797215070E-01 -0.14737808473E-01  0.10215503013E+01  0.10213051293E+01 0.  0.
     999903    2    3    3    0    0 -0.82934828096E-01 -0.61542278084E-02 -0.10134261394E+00  0.13258907355E+00  0.19836249492E-01 0.  0.
         14    1    1    2    0    0 -0.80430307383E-02  0.14797215070E-01  0.14737808473E-01  0.22379698744E-01  0.00000000000E+00 0. -1.
     999901    1    3    3    0    0  0.90977858834E-01 -0.86429872615E-02  0.86604805470E-01  0.88896122770E+00  0.88000000000E+00 0. -1.
        -11    1    4    4    0    0 -0.78544120511E-01 -0.10056581049E-01 -0.97248287714E-01  0.12541054291E+00  0.51100000000E-03 0. -1.
         11    1    4    4    0    0 -0.43907075850E-02  0.39023532402E-02 -0.40943262292E-02  0.71785306421E-02  0.51100000000E-03 0.  1.
</event>
<event>
 8    1  0.1115874E+005  0.1043930E+01  0.7957747E-01            NaN
         13   -1    0    0    0    0  0.00000000000E+00  0.00000000000E+00  0.74505805969E-08  0.10566000000E+00  0.10566000000E+00 0.  1.
     999900   -1    0    0    0    0 -0.00000000000E+00 -0.00000000000E+00 -0.74505805969E-08  0.93827000000E+00  0.93827000000E+00 0.  1.
     999902    2    1    2    0    0  0.12542784797E-01  0.18213689989E-01 -0.84879122246E-02  0.10202423533E+01  0.10199673303E+01 0.  0.
     999903    2    3    3    0    0 -0.60980112313E-01 -0.92477352727E-01 -0.62221004645E-01  0.12864526459E+00  0.20187020984E-01 0.  0.
         14    1    1    2    0    0 -0.12542784797E-01 -0.18213689989E-01  0.84879122246E-02  0.23687646726E-01  0.00000000000E+00 0.  1.
     999901    1    3    3    0    0  0.73522897110E-01  0.11069104272E+00  0.53733092420E-01  0.89159708869E+00  0.88000000000E+00 0. -1.
        -11    1    4    4    0    0 -0.95472238929E-02 -0.85814731309E-02 -0.14188646715E-01  0.19140793655E-01  0.51100000000E-03 0. -1.
         11    1    4    4    0    0 -0.51432888420E-01 -0.83895879596E-01 -0.48032357930E-01  0.10950447093E+00  0.51100000000E-03 0.  1.
</event>
<event>
 8    1  0.1115874E+005  0.1043930E+01  0.7957747E-01            NaN
         13   -1    0    0    0    0  0.00000000000E+00  0.00000000000E+00  0.74505805969E-08  0.10566000000E+00  0.10566000000E+00 0.  1.
     999900   -1    0    0    0    0 -0.00000000000E+00 -0.00000000000E+00 -0.74505805969E-08  0.93827000000E+00  0.93827000000E+00 0.  1.
     999902    2    1    2    0    0 -0.74859730094E-02 -0.78896562457E-03 -0.22332733919E-01  0.10203627926E+01  0.10200905917E+01 0.  0.
     999903    2    3    3    0    0  0.11809961982E+00  0.50341513727E-01 -0.36971271608E-02  0.12978244652E+00  0.18655467555E-01 0.  0.
         14    1    1    2    0    0  0.74859730094E-02  0.78896562457E-03  0.22332733919E-01  0.23567207364E-01  0.00000000000E+00 0.  1.
     999901    1    3    3    0    0 -0.12558559283E+00 -0.51130479351E-01 -0.18635606758E-01  0.89058034611E+00  0.88000000000E+00 0. -1.
        -11    1    4    4    0    0  0.59115987639E-01  0.17430496441E-01 -0.77246863738E-02  0.62116455962E-01  0.51100000000E-03 0.  1.
         11    1    4    4    0    0  0.58983632182E-01  0.32911017286E-01  0.40275592130E-02  0.67665990559E-01  0.51100000000E-03 0. -1.
</event>
<event>
 8    1  0.1115874E+005  0.1043930E+01  0.7957747E-01            NaN
         13   -1    0    0    0    0  0.00000000000E+00  0.00000000000E+00  0.74505805969E-08  0.10566000000E+00  0.10566000000E+00 0. -1.
     999900   -1    0    0    0    0 -0.00000000000E+00 -0.00000000000E+00 -0.74505805969E-08  0.93827000000E+00  0.93827000000E+00 0.  1.
     999902    2    1    2    0    0  0.19038647235E-01  0.12640739318E-01 -0.50308413470E-02  0.10205298345E+01  0.10202615231E+01 0.  0.
     999903    2    3    3    0    0  0.11970638214E+00  0.24058904657E-01 -0.50393027893E-01  0.13355627500E+00  0.19732524248E-01 0.  0.
         14    1    1    2    0    0 -0.19038647235E-01 -0.12640739318E-01  0.50308413470E-02  0.23400165463E-01  0.00000000000E+00 0. -1.
     999901    1    3    3    0    0 -0.10066773490E+00 -0.11418165339E-01  0.45362186546E-01  0.88697355954E+00  0.88000000000E+00 0. -1.
        -11    1    4    4    0    0  0.13345739837E-01 -0.34524523408E-02 -0.65177692678E-02  0.15256822611E-01  0.51100000000E-03 0. -1.
         11    1    4    4    0    0  0.10636064230E+00  0.27511356998E-01 -0.43875258625E-01  0.11829945239E+00  0.51100000000E-03 0.  1.
</event>
<event>
 8    1  0.1115874E+005  0.1043930E+01  0.7957747E-01            NaN
         13   -1    0    0    0    0  0.00000000000E+00  0.00000000000E+00  0.74505805969E-08  0.10566000000E+00  0.10566000000E+00 0.  1.
     999900   -1    0    0    0    0 -0.00000000000E+00 -0.00000000000E+00 -0.74505805969E-08  0.93827000000E+00  0.93827000000E+00 0.  1.
     999902    2    1    2    0    0 -0.14133630944E-01  0.16208424537E-01  0.69470841249E-02  0.10213305636E+01  0.10210804990E+01 0.  0.
     999903    2    3    3    0    0 -0.43376171274E-01  0.80183525426E-01  0.96211624331E-01  0.13402221927E+00  0.19859219987E-01 0.  0.
         14    1    1    2    0    0  0.14133630944E-01 -0.16208424537E-01 -0.69470841249E-02  0.22599436442E-01  0.00000000000E+00 0. -1.
     999901    1    3    3    0    0  0.29242540330E-01 -0.63975100889E-01 -0.89264540206E-01  0.88730834428E+00  0.88000000000E+00 0.  1.
        -11    1    4    4    0    0 -0.29493329874E-01  0.33699718126E-01  0.45922655391E-01  0.64145762978E-01  0.51100000000E-03 0. -1.
         11    1    4    4    0    0 -0.13882841400E-01  0.46483807300E-01  0.50288968940E-01  0.69876456296E-01  0.51100000000E-03 0.  1.
</event>
<event>
 8    1  0.1115874E+005  0.1043930E+01  0.7957747E-01            NaN
         13   -1    0    0    0    0  0.00000000000E+00  0.00000000000E+00  0.74505805969E-08  0.10566000000E+00  0.10566000000E+00 0.  1.
     999900   -1    0    0    0    0 -0.00000000000E+00 -0.00000000000E+00 -0.74505805969E-08  0.93827000000E+00  0.93827000000E+00 0.  1.
     999902    2    1    2    0    0  0.42914028812E-02  0.14156660270E-01 -0.43887465665E-02  0.10284998910E+01  0.10283841390E+01 0.  0.
     999903    2    3    3    0    0 -0.11984253687E+00 -0.57882326408E-01 -0.23429805179E-01  0.13666951891E+00  0.20420682503E-01 0.  0.
         14    1    1    2    0    0 -0.42914028812E-02 -0.14156660270E-01  0.43887465665E-02  0.15430109044E-01  0.00000000000E+00 0.  1.
     999901    1    3    3    0    0  0.12413393975E+00  0.72038986678E-01  0.19041058613E-01  0.89183037205E+00  0.88000000000E+00 0.  1.
        -11    1    4    4    0    0 -0.23868265707E-01 -0.70578631709E-02  0.24828678885E-02  0.25018658924E-01  0.51100000000E-03 0. -1.
         11    1    4    4    0    0 -0.95974271160E-01 -0.50824463237E-01 -0.25912673068E-01  0.11165085998E+00  0.51100000000E-03 0.  1.
</event>
<event>
 8    1  0.1115874E+005  0.1043930E+01  0.7957747E-01            NaN
         13   -1    0    0    0    0  0.00000000000E+00  0.00000000000E+00  0.74505805969E-08  0.10566000000E+00  0.10566000000E+00 0.  1.
     999900   -1    0    0    0    0 -0.00000000000E+00 -0.00000000000E+00 -0.74505805969E-08  0.93827000000E+00  0.93827000000E+00 0. -1.
     999902    2    1    2    0    0 -0.40408200519E-02  0.13239744696E-02  0.22571376617E-01  0.10209615830E+01  0.10207031919E+01 0.  0.
     999903    2    3    3    0    0  0.10018531991E+00 -0.61114430619E-01 -0.51001183867E-01  0.12957246244E+00  0.20391917751E-01 0.  0.
         14    1    1    2    0    0  0.40408200519E-02 -0.13239744696E-02 -0.22571376617E-01  0.22968416956E-01  0.00000000000E+00 0. -1.
     999901    1    3    3    0    0 -0.10422613997E+00  0.62438405088E-01  0.73572560484E-01  0.89138912061E+00  0.88000000000E+00 0.  1.
        -11    1    4    4    0    0  0.84265655691E-01 -0.41896359175E-01 -0.38854320393E-01  0.10181318665E+00  0.51100000000E-03 0. -1.
         11    1    4    4    0    0  0.15919664223E-01 -0.19218071444E-01 -0.12146863475E-01  0.27759275788E-01  0.51100000000E-03 0.  1.
</event>
<event>
 8    1  0.1115874E+005  0.1043930E+01  0.7957747E-01            NaN
         13   -1    0    0    0    0  0.00000000000E+00  0.00000000000E+00  0.74505805969E-08  0.10566000000E+00  0.10566000000E+00 0. -1.
     999900   -1    0    0    0    0 -0.00000000000E+00 -0.00000000000E+00 -0.74505805969E-08  0.93827000000E+00  0.93827000000E+00 0. -1.
     999902    2    1    2    0    0 -0.40128394852E-02 -0.15550548052E-01  0.17558945660E-01  0.10201342231E+01  0.10198566537E+01 0.  0.
     999903    2    3    3    0    0  0.12254836132E+00  0.32445438843E-01 -0.12960628962E-01  0.12926229250E+00  0.21678445359E-01 0.  0.
         14    1    1    2    0    0  0.40128394852E-02  0.15550548052E-01 -0.17558945660E-01  0.23795776897E-01  0.00000000000E+00 0.  1.
     999901    1    3    3    0    0 -0.12656120081E+00 -0.47995986894E-01  0.30519574622E-01  0.89087193061E+00  0.88000000000E+00 0.  1.
        -11    1    4    4    0    0  0.67893753783E-01  0.26709036905E-01 -0.14019160254E-01  0.74294901779E-01  0.51100000000E-03 0. -1.
         11    1    4    4    0    0  0.54654607542E-01  0.57364019372E-02  0.10585312917E-02  0.54967390717E-01  0.51100000000E-03 0.  1.
</event>
<event>
 8    1  0.1115874E+005  0.1043930E+01  0.7957747E-01            NaN
         13   -1    0    0    0    0  0.00000000000E+00  0.00000000000E+00  0.74505805969E-08  0.10566000000E+00  0.10566000000E+00 0. -1.
     999900   -1    0    0    0    0 -0.00000000000E+00 -0.00000000000E+00 -0.74505805969E-08  0.93827000000E+00  0.93827000000E+00 0. -1.
     999902    2    1    2    0    0  0.93356924380E-02  0.35502099954E-02  0.21076959691E-01  0.10206062487E+01  0.10203397069E+01 0.  0.
     999903    2    3    3    0    0 -0.94710293037E-01  0.51202033585E-01 -0.67399600744E-01  0.12879664732E+00  0.21311553924E-01 0.  0.
         14    1    1    2    0    0 -0.93356924380E-02 -0.35502099954E-02 -0.21076959691E-01  0.23323751287E-01  0.00000000000E+00 0.  1.
     999901    1    3    3    0    0  0.10404598548E+00 -0.47651823589E-01  0.88476560435E-01  0.89180960139E+00  0.88000000000E+00 0.  1.
        -11    1    4    4    0    0 -0.15520545940E-01  0.73912493778E-02 -0.23856111683E-02  0.17362896512E-01  0.51100000000E-03 0.  1.
         11    1    4    4    0    0 -0.79189747098E-01  0.43810784207E-01 -0.65013989576E-01  0.11143375081E+00  0.51100000000E-03 0. -1.
</event>
<event>
 8    1  0.1115874E+005  0.1043930E+01  0.7957747E-01            NaN
         13   -1    0    0    0    0  0.00000000000E+00  0.00000000000E+00  0.74505805969E-08  0.10566000000E+00  0.10566000000E+00 0.  1.
     999900   -1    0    0    0    0 -0.00000000000E+00 -0.00000000000E+00 -0.74505805969E-08  0.93827000000E+00  0.93827000000E+00 0. -1.
     999902    2    1    2    0    0  0.25026191550E-01  0.92418386272E-02  0.16416413743E-01  0.10126055609E+01  0.10121209421E+01 0.  0.
     999903    2    3    3    0    0  0.10323401019E+00  0.69758506213E-01 -0.81121859854E-02  0.12672724976E+00  0.21690509918E-01 0.  0.
         14    1    1    2    0    0 -0.25026191550E-01 -0.92418386272E-02 -0.16416413743E-01  0.31324439099E-01  0.00000000000E+00 0.  1.
     999901    1    3    3    0    0 -0.78207818640E-01 -0.60516667586E-01  0.24528599728E-01  0.88587831114E+00  0.88000000000E+00 0.  1.
        -11    1    4    4    0    0  0.72318356213E-01  0.43459232938E-01 -0.14577974823E-01  0.85623758641E-01  0.51100000000E-03 0. -1.
         11    1    4    4    0    0  0.30915653976E-01  0.26299273274E-01  0.64657888373E-02  0.41103491115E-01  0.51100000000E-03 0.  1.
</event>
<event>
 8    1  0.1115874E+005  0.1043930E+01  0.7957747E-01            NaN
         13   -1    0    0    0    0  0.00000000000E+00  0.00000000000E+00  0.74505805969E-08  0.10566000000E+00  0.10566000000E+00 0.  1.
     999900   -1    0    0    0    0 -0.00000000000E+00 -0.00000000000E+00 -0.74505805969E-08  0.93827000000E+00  0.93827000000E+00 0.  1.
     999902    2    1    2    0    0  0.11413568594E-01  0.19067314294E-01 -0.33800816553E-02  0.10214520781E+01  0.10212047252E+01 0.  0.
     999903    2    3    3    0    0 -0.96997387147E-01 -0.12288815979E-01 -0.85180945232E-01  0.13048208782E+00  0.14500817241E-01 0.  0.
         14    1    1    2    0    0 -0.11413568594E-01 -0.19067314294E-01  0.33800816553E-02  0.22477921934E-01  0.00000000000E+00 0. -1.
     999901    1    3    3    0    0  0.10841095574E+00  0.31356130274E-01  0.81800863577E-01  0.89096999024E+00  0.88000000000E+00 0.  1.
        -11    1    4    4    0    0 -0.69970639331E-01 -0.88999952501E-02 -0.52466992915E-01  0.87909878571E-01  0.51100000000E-03 0.  1.
         11    1    4    4    0    0 -0.27026747816E-01 -0.33888207294E-02 -0.32713952317E-01  0.42572209252E-01  0.51100000000E-03 0. -1.
</event>
<event>
 8    1  0.1115874E+005  0.1043930E+01  0.7957747E-01            NaN
         13   -1    0    0    0    0  0.00000000000E+00  0.00000000000E+00  0.74505805969E-08  0.10566000000E+00  0.10566000000E+00 0.  1.
     999900   -1    0    0    0    0 -0.00000000000E+00 -0.00000000000E+00 -0.74505805969E-08  0.93827000000E+00  0.93827000000E+00 0.  1.
     999902    2    1    2    0    0  0.40520877106E-02  0.15994436563E-01  0.18548361691E-01  0.10191049494E+01  0.10188025396E+01 0.  0.
     999903    2    3    3    0    0  0.47793181421E-01 -0.11505455718E+00  0.16726204479E-01  0.12832414455E+00  0.25798853460E-01 0.  0.
         14    1    1    2    0    0 -0.40520877106E-02 -0.15994436563E-01 -0.18548361691E-01  0.24825050599E-01  0.00000000000E+00 0. -1.
     999901    1    3    3    0    0 -0.43741093710E-01  0.13104899374E+00  0.18221572122E-02  0.89078080485E+00  0.88000000000E+00 0.  1.
        -11    1    4    4    0    0  0.37068207689E-01 -0.83859829488E-01  0.23484132203E-01  0.94648236166E-01  0.51100000000E-03 0.  1.
         11    1    4    4    0    0  0.10724973732E-01 -0.31194727690E-01 -0.67579277239E-02  0.33675908381E-01  0.51100000000E-03 0. -1.
</event>
<event>
 8    1  0.1115874E+005  0.1043930E+01  0.7957747E-01            NaN
         13   -1    0    0    0    0  0.00000000000E+00  0.00000000000E+00  0.74505805969E-08  0.10566000000E+00  0.10566000000E+00 0. -1.
     999900   -1    0    0    0    0 -0.00000000000E+00 -0.00000000000E+00 -0.74505805969E-08  0.93827000000E+00  0.93827000000E+00 0.  1.
     999902    2    1    2    0    0  0.32362616263E-02  0.37133952515E-01 -0.26824691724E-02  0.10065588954E+01  0.10058649067E+01 0.  0.
     999903    2    3    3    0    0  0.84678344664E-01  0.79864394042E-01  0.27421665471E-01  0.12125388442E+00  0.20045280244E-01 0.  0.
         14    1    1    2    0    0 -0.32362616263E-02 -0.37133952515E-01  0.26824691724E-02  0.37371104607E-01  0.00000000000E+00 0.  1.
     999901    1    3    3    0    0 -0.81442083038E-01 -0.42730441527E-01 -0.30104134643E-01  0.88530501097E+00  0.88000000000E+00 0.  1.
        -11    1    4    4    0    0  0.50240748113E-01  0.51251191572E-01  0.26379437253E-01  0.76465372812E-01  0.51100000000E-03 0. -1.
         11    1    4    4    0    0  0.34437596551E-01  0.28613202471E-01  0.10422282182E-02  0.44788511613E-01  0.51100000000E-03 0.  1.
</event>
<event>
 8    1  0.1115874E+005  0.1043930E+01  0.7957747E-01            NaN
         13   -1    0    0    0    0  0.00000000000E+00  0.00000000000E+00  0.74505805969E-08  0.10566000000E+00  0.10566000000E+00 0. -1.
     999900   -1    0    0    0    0 -0.00000000000E+00 -0.00000000000E+00 -0.74505805969E-08  0.93827000000E+00  0.93827000000E+00 0.  1.
     999902    2    1    2    0    0  0.21223710030E-01  0.66626629180E-03 -0.78787850025E-04  0.10226956885E+01  0.10224752199E+01 0.  0.
     999903    2    3    3    0    0  0.74935628535E-01  0.54576386039E-01 -0.94880328624E-01  0.13433843865E+00  0.21227552872E-01 0.  0.
         14    1    1    2    0    0 -0.21223710030E-01 -0.66626629180E-03  0.78787850025E-04  0.21234311520E-01  0.00000000000E+00 0.  1.
     999901    1    3    3    0    0 -0.53711918505E-01 -0.53910119747E-01  0.94801540774E-01  0.88835724983E+00  0.88000000000E+00 0. -1.
        -11    1    4    4    0    0  0.24533393647E-01  0.63819793481E-02 -0.26166149488E-01  0.36435498683E-01  0.51100000000E-03 0. -1.
         11    1    4    4    0    0  0.50402234888E-01  0.48194406691E-01 -0.68714179135E-01  0.97902939962E-01  0.51100000000E-03 0.  1.
</event>
<event>
 8    1  0.1115874E+005  0.1043930E+01  0.7957747E-01            NaN
         13   -1    0    0    0    0  0.00000000000E+00  0.00000000000E+00  0.74505805969E-08  0.10566000000E+00  0.10566000000E+00 0. -1.
     999900   -1    0    0    0    0 -0.00000000000E+00 -0.00000000000E+00 -0.74505805969E-08  0.93827000000E+00  0.93827000000E+00 0.  1.
     999902    2    1    2    0    0  0.14125580256E-01  0.18429264968E-01  0.48848939071E-02  0.10202017044E+01  0.10199257255E+01 0.  0.
     999903    2    3    3    0    0  0.10341167545E+00  0.59550974669E-01  0.55730713603E-01  0.13326974578E+00  0.20362207585E-01 0.  0.
         14    1    1    2    0    0 -0.14125580256E-01 -0.18429264968E-01 -0.48848939071E-02  0.23728295625E-01  0.00000000000E+00 0. -1.
     999901    1    3    3    0    0 -0.89286095191E-01 -0.41121709701E-01 -0.50845819695E-01  0.88693195860E+00  0.88000000000E+00 0.  1.
        -11    1    4    4    0    0  0.41799413696E-01  0.18242386222E-01  0.30703240774E-01  0.54981139998E-01  0.51100000000E-03 0.  1.
         11    1    4    4    0    0  0.61612261751E-01  0.41308588446E-01  0.25027472829E-01  0.78288605778E-01  0.51100000000E-03 0. -1.
</event>
<event>
 8    1  0.1136485E+005  0.1043930E+01  0.7957747E-01            NaN
         13   -1    0    0    0    0  0.00000000000E+00  0.00000000000E+00  0.74505805969E-08  0.10566000000E+00  0.10566000000E+00 0.  1.
     999900   -1    0    0    0    0 -0.00000000000E+00 -0.00000000000E+00 -0.74505805969E-08  0.93827000000E+00  0.93827000000E+00 0.  1.
     999902    2    1    2    0    0  0.21228266200E-01  0.10847367327E-01  0.98916808247E-03  0.10200703454E+01  0.10197912661E+01 0.  0.
     999903    2    3    3    0    0 -0.10191516058E-01 -0.97737133047E-01 -0.81425524238E-01  0.12902041530E+00  0.18966744319E-01 0.  0.
         14    1    1    2    0    0 -0.21228266200E-01 -0.10847367327E-01 -0.98916808247E-03  0.23859654593E-01  0.00000000000E+00 0. -1.
     999901    1    3    3    0    0  0.31419782257E-01  0.10858450037E+00  0.82414692321E-01  0.89104993011E+00  0.88000000000E+00 0. -1.
        -11    1    4    4    0    0 -0.10361289130E-01 -0.22164107947E-01 -0.21378062757E-01  0.32494410008E-01  0.51100000000E-03 0. -1.
         11    1    4    4    0    0  0.16977307246E-03 -0.75573025101E-01 -0.60047461482E-01  0.96526005290E-01  0.51100000000E-03 0.  1.
</event>
<event>
 8    1  0.1115874E+005  0.1043930E+01  0.7957747E-01            NaN
         13   -1    0    0    0    0  0.00000000000E+00  0.00000000000E+00  0.74505805969E-08  0.10566000000E+00  0.10566000000E+00 0.  1.
     999900   -1    0    0    0    0 -0.00000000000E+00 -0.00000000000E+00 -0.74505805969E-08  0.93827000000E+00  0.93827000000E+00 0. -1.
     999902    2    1    2    0    0 -0.21118653918E-01  0.82762314435E-02 -0.56090768348E-02  0.10205643138E+01  0.10202968015E+01 0.  0.
     999903    2    3    3    0    0  0.79223779011E-01 -0.98097168211E-01 -0.11769794374E-01  0.12847583248E+00  0.21634460952E-01 0.  0.
         14    1    1    2    0    0  0.21118653918E-01 -0.82762314435E-02  0.56090768348E-02  0.23365686233E-01  0.00000000000E+00 0.  1.
     999901    1    3    3    0    0 -0.10034243293E+00  0.10637339965E+00  0.61607175394E-02  0.89208848128E+00  0.88000000000E+00 0. -1.
        -11    1    4    4    0    0  0.37652792415E-01 -0.47201234874E-01 -0.16478148137E-01  0.62589774223E-01  0.51100000000E-03 0. -1.
         11    1    4    4    0    0  0.41570986595E-01 -0.50895933337E-01  0.47083537632E-02  0.65886058259E-01  0.51100000000E-03 0.  1.
</event>
<event>
 8    1  0.1115874E+005  0.1043930E+01  0.7957747E-01            NaN
         13   -1    0    0    0    0  0.00000000000E+00  0.00000000000E+00  0.74505805969E-08  0.10566000000E+00  0.10566000000E+00 0. -1.
     999900   -1    0    0    0    0 -0.00000000000E+00 -0.00000000000E+00 -0.74505805969E-08  0.93827000000E+00  0.93827000000E+00 0.  1.
     999902    2    1    2    0    0  0.11866289518E-01 -0.16536134445E-01  0.14254521831E-01  0.10190815803E+01  0.10187785939E+01 0.  0.
     999903    2    3    3    0    0 -0.10098232303E+00 -0.58957041516E-01 -0.49718574836E-01  0.12856100231E+00  0.19560989836E-01 0.  0.
         14    1    1    2    0    0 -0.11866289518E-01  0.16536134445E-01 -0.14254521831E-01  0.24848419707E-01  0.00000000000E+00 0.  1.
     999901    1    3    3    0    0  0.11284861255E+00  0.42420907071E-01  0.63973096667E-01  0.89052057798E+00  0.88000000000E+00 0. -1.
        -11    1    4    4    0    0 -0.48301534618E-01 -0.23150566890E-01 -0.32190807682E-01  0.62493969421E-01  0.51100000000E-03 0.  1.
         11    1    4    4    0    0 -0.52680788410E-01 -0.35806474626E-01 -0.17527767154E-01  0.66067032891E-01  0.51100000000E-03 0. -1.
</event>
<event>
 8    1  0.1115874E+005  0.1043930E+01  0.7957747E-01            NaN
         13   -1    0    0    0    0  0.00000000000E+00  0.00000000000E+00  0.74505805969E-08  0.10566000000E+00  0.10566000000E+00 0.  1.
     999900   -1    0    0    0    0 -0.00000000000E+00 -0.00000000000E+00 -0.74505805969E-08  0.93827000000E+00  0.93827000000E+00 0.  1.
     999902    2    1    2    0    0 -0.44680305186E-02  0.36591581257E-02 -0.22924093762E-01  0.10202896360E+01  0.10200157227E+01 0.  0.
     999903    2    3    3    0    0 -0.13039171789E-01  0.53191893610E-01 -0.11994817111E+00  0.13353114130E+00  0.21061918158E-01 0.  0.
         14    1    1    2    0    0  0.44680305186E-02 -0.36591581257E-02  0.22924093762E-01  0.23640363993E-01  0.00000000000E+00 0.  1.
     999901    1    3    3    0    0  0.85711412703E-02 -0.49532735485E-01  0.97024077353E-01  0.88675849471E+00  0.88000000000E+00 0. -1.
        -11    1    4    4    0    0  0.12608572061E-02  0.15250997646E-02 -0.20071202223E-01  0.20174983763E-01  0.51100000000E-03 0.  1.
         11    1    4    4    0    0 -0.14300028995E-01  0.51666793846E-01 -0.99876968892E-01  0.11335615754E+00  0.51100000000E-03 0. -1.
</event>
<event>
 8    1  0.1115874E+005  0.1043930E+01  0.7957747E-01            NaN
         13   -1    0    0    0    0  0.00000000000E+00  0.00000000000E+00  0.74505805969E-08  0.10566000000E+00  0.10566000000E+00 0. -1.
     999900   -1    0    0    0    0 -0.00000000000E+00 -0.00000000000E+00 -0.74505805969E-08  0.93827000000E+00  0.93827000000E+00 0.  1.
     999902    2    1    2    0    0  0.20584958141E-01  0.44061270596E-02  0.16541046668E-01  0.10171576134E+01  0.10168052173E+01 0.  0.
     999903    2    3    3    0    0  0.31615854766E-01 -0.12084595325E+00 -0.16838572725E-01  0.12759369595E+00  0.19831969771E-01 0.  0.
         14    1    1    2    0    0 -0.20584958141E-01 -0.44061270596E-02 -0.16541046668E-01  0.26772386562E-01  0.00000000000E+00 0.  1.
     999901    1    3    3    0    0 -0.11030896625E-01  0.12525208031E+00  0.33379619393E-01  0.88956391749E+00  0.88000000000E+00 0.  1.
        -11    1    4    4    0    0  0.33240519239E-01 -0.98871696567E-01 -0.16056671416E-01  0.10553967178E+00  0.51100000000E-03 0.  1.
         11    1    4    4    0    0 -0.16246644726E-02 -0.21974256687E-01 -0.78190130942E-03  0.22054024173E-01  0.51100000000E-03 0. -1.
</event>
<event>
 8    1  0.1115874E+005  0.1043930E+01  0.7957747E-01            NaN
         13   -1    0    0    0    0  0.00000000000E+00  0.00000000000E+00  0.74505805969E-08  0.10566000000E+00  0.10566000000E+00 0.  1.
     999900   -1    0    0    0    0 -0.00000000000E+00 -0.00000000000E+00 -0.74505805969E-08  0.93827000000E+00  0.93827000000E+00 0. -1.
     999902    2    1    2    0    0 -0.18337085687E-01 -0.13305759556E-01 -0.68311641671E-02  0.10202665947E+01  0.10199921409E+01 0.  0.
     999903    2    3    3    0    0 -0.12095175384E-01  0.12400290168E+00  0.26472943171E-01  0.12897439034E+00  0.20262372772E-01 0.  0.
         14    1    1    2    0    0  0.18337085687E-01  0.13305759556E-01  0.68311641671E-02  0.23663405350E-01  0.00000000000E+00 0.  1.
     999901    1    3    3    0    0 -0.62419103035E-02 -0.13730866124E+00 -0.33304107338E-01  0.89129220431E+00  0.88000000000E+00 0. -1.
        -11    1    4    4    0    0 -0.76678120051E-02  0.13060275616E-01  0.20949046034E-02  0.15297577795E-01  0.51100000000E-03 0.  1.
         11    1    4    4    0    0 -0.44273633788E-02  0.11094262607E+00  0.24378038567E-01  0.11367681255E+00  0.51100000000E-03 0. -1.
</event>
<event>
 8    1  0.1115874E+005  0.1043930E+01  0.7957747E-01            NaN
         13   -1    0    0    0    0  0.00000000000E+00  0.00000000000E+00  0.74505805969E-08  0.10566000000E+00  0.10566000000E+00 0.  1.
     999900   -1    0    0    0    0 -0.00000000000E+00 -0.00000000000E+00 -0.74505805969E-08  0.93827000000E+00  0.93827000000E+00 0. -1.
     999902    2    1    2    0    0  0.72374149943E-02  0.34846959770E-02  0.22517550419E-01  0.10200226087E+01  0.10197423983E+01 0.  0.
     999903    2    3    3    0    0  0.78072517038E-01 -0.17097346444E-01  0.10447019596E+00  0.13314185670E+00  0.20617831857E-01 0.  0.
         14    1    1    2    0    0 -0.72374149943E-02 -0.34846959770E-02 -0.22517550419E-01  0.23907391299E-01  0.00000000000E+00 0. -1.
     999901    1    3    3    0    0 -0.70835102044E-01  0.20582042420E-01 -0.81952645541E-01  0.88688075200E+00  0.88000000000E+00 0. -1.
        -11    1    4    4    0    0  0.52106213984E-01 -0.71168053358E-02  0.53194510267E-01  0.74803900282E-01  0.51100000000E-03 0.  1.
         11    1    4    4    0    0  0.25966303055E-01 -0.99805411077E-02  0.51275685693E-01  0.58337956422E-01  0.51100000000E-03 0. -1.
</event>
<event>
 8    1  0.1115874E+005  0.1043930E+01  0.7957747E-01            NaN
         13   -1    0    0    0    0  0.00000000000E+00  0.00000000000E+00  0.74505805969E-08  0.10566000000E+00  0.10566000000E+00 0.  1.
     999900   -1    0    0    0    0 -0.00000000000E+00 -0.00000000000E+00 -0.74505805969E-08  0.93827000000E+00  0.93827000000E+00 0. -1.
     999902    2    1    2    0    0  0.75930451225E-02  0.19515609484E-03 -0.18741681584E-01  0.10237076597E+01  0.10235079039E+01 0.  0.
     999903    2    3    3    0    0  0.71475915624E-01 -0.95249156953E-01 -0.58983894792E-01  0.13533269730E+00  0.25585751854E-01 0.  0.
         14    1    1    2    0    0 -0.75930451225E-02 -0.19515609484E-03  0.18741681584E-01  0.20222340337E-01  0.00000000000E+00 0.  1.
     999901    1    3    3    0    0 -0.63882870502E-01  0.95444313048E-01  0.40242213208E-01  0.88837496237E+00  0.88000000000E+00 0.  1.
        -11    1    4    4    0    0  0.41928265672E-02 -0.16931048837E-01 -0.15345529428E-01  0.23237611834E-01  0.51100000000E-03 0.  1.
         11    1    4    4    0    0  0.67283089057E-01 -0.78318108116E-01 -0.43638365363E-01  0.11209508546E+00  0.51100000000E-03 0. -1.
</event>
<event>
 8    1  0.1115874E+005  0.1043930E+01  0.7957747E-01            NaN
         13   -1    0    0    0    0  0.00000000000E+00  0.00000000000E+00  0.74505805969E-08  0.10566000000E+00  0.10566000000E+00 0. -1.
     999900   -1    0    0    0    0 -0.00000000000E+00 -0.00000000000E+00 -0.74505805969E-08  0.93827000000E+00  0.93827000000E+00 0. -1.
     999902    2    1    2    0    0  0.11238356117E-01  0.20583240127E-01  0.28787881574E-02  0.10203025193E+01  0.10200289080E+01 0.  0.
     999903    2    3    3    0    0  0.69534124007E-01 -0.57130065233E-01  0.92213454854E-01  0.13046071480E+00  0.20441088408E-01 0.  0.
         14    1    1    2    0    0 -0.11238356117E-01 -0.20583240127E-01 -0.28787881574E-02  0.23627480687E-01  0.00000000000E+00 0. -1.
     999901    1    3    3    0    0 -0.58295767890E-01  0.77713305360E-01 -0.89334666696E-01  0.88984180451E+00  0.88000000000E+00 0. -1.
        -11    1    4    4    0    0  0.32220240598E-01 -0.22321867725E-01  0.26754313786E-01  0.47460131796E-01  0.51100000000E-03 0.  1.
         11    1    4    4    0    0  0.37313883410E-01 -0.34808197508E-01  0.65459141068E-01  0.83000583005E-01  0.51100000000E-03 0. -1.
</event>
<event>
 7    1  0.1115874E+005  0.1043930E+01  0.7957747E-01            NaN
         13   -1    0    0    0    0  0.00000000000E+00  0.00000000000E+00  0.74505805969E-08  0.10566000000E+00  0.10566000000E+00 0.  1.
     999900   -1    0    0    0    0 -0.00000000000E+00 -0.00000000000E+00 -0.74505805969E-08  0.93827000000E+00  0.93827000000E+00 0.  1.
     999903    2    1    2    0    0 -0.29001746786E-02  0.52739935993E-01  0.60904002236E-01  0.83206555198E-01  0.20594209817E-01 0.  0.
         14    1    1    2    0    0 -0.41541045885E-02 -0.54542119847E-01 -0.59321866548E-01  0.80691903392E-01  0.00000000000E+00 0.  1.
     999901    1    1    2    0    0  0.70542792671E-02  0.18021838538E-02 -0.15821356880E-02  0.88003154141E+00  0.88000000000E+00 0. -1.
        -11    1    3    3    0    0 -0.10548677415E-01  0.40556001687E-01  0.40874635842E-01  0.58541103887E-01  0.51100000000E-03 0.  1.
         11    1    3    3    0    0  0.76485027368E-02  0.12183934306E-01  0.20029366394E-01  0.24665451312E-01  0.51100000000E-03 0. -1.
</event>
<event>
 8    1  0.1115874E+005  0.1043930E+01  0.7957747E-01            NaN
         13   -1    0    0    0    0  0.00000000000E+00  0.00000000000E+00  0.74505805969E-08  0.10566000000E+00  0.10566000000E+00 0.  1.
     999900   -1    0    0    0    0 -0.00000000000E+00 -0.00000000000E+00 -0.74505805969E-08  0.93827000000E+00  0.93827000000E+00 0.  1.
     999902    2    1    2    0    0 -0.14386058240E-01  0.17308219327E-01  0.38918964068E-02  0.10210896851E+01  0.10208342005E+01 0.  0.
     999903    2    3    3    0    0 -0.30995853538E-01  0.26412080882E-01  0.12467643053E+00  0.13263728384E+00  0.19750842532E-01 0.  0.
         14    1    1    2    0    0  0.14386058240E-01 -0.17308219327E-01 -0.38918964068E-02  0.22840314919E-01  0.00000000000E+00 0.  1.
     999901    1    3    3    0    0  0.16609795298E-01 -0.91038615558E-02 -0.12078453412E+00  0.88845240125E+00  0.88000000000E+00 0.  1.
        -11    1    4    4    0    0 -0.17071299494E-01  0.21284869179E-01  0.55020245578E-01  0.61416312709E-01  0.51100000000E-03 0.  1.
         11    1    4    4    0    0 -0.13924554044E-01  0.51272117035E-02  0.69656184952E-01  0.71220971127E-01  0.51100000000E-03 0. -1.
</event>
<event>
 8    1  0.1115874E+005  0.1043930E+01  0.7957747E-01            NaN
         13   -1    0    0    0    0  0.00000000000E+00  0.00000000000E+00  0.74505805969E-08  0.10566000000E+00  0.10566000000E+00 0.  1.
     999900   -1    0    0    0    0 -0.00000000000E+00 -0.00000000000E+00 -0.74505805969E-08  0.93827000000E+00  0.93827000000E+00 0. -1.
     999902    2    1    2    0    0 -0.70073804716E-02 -0.95781347249E-02 -0.20542266977E-01  0.10202059873E+01  0.10199301092E+01 0.  0.
     999903    2    3    3    0    0 -0.11681104180E+00  0.21243873413E-01  0.49781858472E-01  0.13006424418E+00  0.18502771048E-01 0.  0.
         14    1    1    2    0    0  0.70073804716E-02  0.95781347249E-02  0.20542266977E-01  0.23724012697E-01  0.00000000000E+00 0.  1.
     999901    1    3    3    0    0  0.10980366133E+00 -0.30822008138E-01 -0.70324125449E-01  0.89014174312E+00  0.88000000000E+00 0. -1.
        -11    1    4    4    0    0 -0.47204700789E-01  0.14968772067E-01  0.27828291280E-01  0.56806890694E-01  0.51100000000E-03 0. -1.
         11    1    4    4    0    0 -0.69606341016E-01  0.62751013461E-02  0.21953567191E-01  0.73257353487E-01  0.51100000000E-03 0.  1.
</event>
<event>
 8    1  0.1115874E+005  0.1043930E+01  0.7957747E-01            NaN
         13   -1    0    0    0    0  0.00000000000E+00  0.00000000000E+00  0.74505805969E-08  0.10566000000E+00  0.10566000000E+00 0.  1.
     999900   -1    0    0    0    0 -0.00000000000E+00 -0.00000000000E+00 -0.74505805969E-08  0.93827000000E+00  0.93827000000E+00 0.  1.
     999902    2    1    2    0    0 -0.23578009382E-01 -0.11330039991E-02  0.21654167644E-02  0.10202256701E+01  0.10199502550E+01 0.  0.
     999903    2    3    3    0    0 -0.24479032347E-01  0.10378020693E+00  0.73678734922E-01  0.13111277048E+00  0.19810306083E-01 0.  0.
         14    1    1    2    0    0  0.23578009382E-01  0.11330039991E-02 -0.21654167644E-02  0.23704329863E-01  0.00000000000E+00 0. -1.
     999901    1    3    3    0    0  0.90102296484E-03 -0.10491321093E+00 -0.71513318158E-01  0.88911289966E+00  0.88000000000E+00 0.  1.
        -11    1    4    4    0    0 -0.14195997556E-01  0.61316406329E-01  0.31503106872E-01  0.70384194925E-01  0.51100000000E-03 0.  1.
         11    1    4    4    0    0 -0.10283034791E-01  0.42463800601E-01  0.42175628050E-01  0.60728575551E-01  0.51100000000E-03 0. -1.
</event>
<event>
 8    1  0.1115874E+005  0.1043930E+01  0.7957747E-01            NaN
         13   -1    0    0    0    0  0.00000000000E+00  0.00000000000E+00  0.74505805969E-08  0.10566000000E+00  0.10566000000E+00 0.  1.
     999900   -1    0    0    0    0 -0.00000000000E+00 -0.00000000000E+00 -0.74505805969E-08  0.93827000000E+00  0.93827000000E+00 0. -1.
     999902    2    1    2    0    0  0.17823124513E-01  0.82405653342E-02 -0.11573248022E-01  0.10211372214E+01  0.10208828112E+01 0.  0.
     999903    2    3    3    0    0  0.95314979917E-01 -0.91900653011E-02 -0.91305650788E-01  0.13396977920E+00  0.21018496027E-01 0.  0.
         14    1    1    2    0    0 -0.17823124513E-01 -0.82405653342E-02  0.11573248022E-01  0.22792778554E-01  0.00000000000E+00 0.  1.
     999901    1    3    3    0    0 -0.77491855404E-01  0.17430630635E-01  0.79732402766E-01  0.88716744225E+00  0.88000000000E+00 0. -1.
        -11    1    4    4    0    0  0.69027027981E-01 -0.43737238097E-02 -0.52438824935E-01  0.86798338310E-01  0.51100000000E-03 0.  1.
         11    1    4    4    0    0  0.26287951936E-01 -0.48163414914E-02 -0.38866825853E-01  0.47171440886E-01  0.51100000000E-03 0. -1.
</event>
<event>
 8    1  0.1115874E+005  0.1043930E+01  0.7957747E-01            NaN
         13   -1    0    0    0    0  0.00000000000E+00  0.00000000000E+00  0.74505805969E-08  0.10566000000E+00  0.10566000000E+00 0.  1.
     999900   -1    0    0    0    0 -0.00000000000E+00 -0.00000000000E+00 -0.74505805969E-08  0.93827000000E+00  0.93827000000E+00 0. -1.
     999902    2    1    2    0    0 -0.48451381772E-02 -0.10836310074E-01 -0.21400479091E-01  0.10194579448E+01  0.10191641770E+01 0.  0.
     999903    2    3    3    0    0  0.24584191318E-01 -0.12703344914E+00 -0.10825545467E-01  0.13126895040E+00  0.19299358559E-01 0.  0.
         14    1    1    2    0    0  0.48451381772E-02  0.10836310074E-01  0.21400479091E-01  0.24472055192E-01  0.00000000000E+00 0.  1.
     999901    1    3    3    0    0 -0.29429329495E-01  0.11619713907E+00 -0.10574933624E-01  0.88818899441E+00  0.88000000000E+00 0.  1.
        -11    1    4    4    0    0  0.75565540043E-02 -0.85152051896E-01 -0.44015621079E-02  0.85601450458E-01  0.51100000000E-03 0. -1.
         11    1    4    4    0    0  0.17027637314E-01 -0.41881397248E-01 -0.64239833593E-02  0.45667499944E-01  0.51100000000E-03 0.  1.
</event>
<event>
 8    1  0.1115874E+005  0.1043930E+01  0.7957747E-01            NaN
         13   -1    0    0    0    0  0.00000000000E+00  0.00000000000E+00  0.74505805969E-08  0.10566000000E+00  0.10566000000E+00 0.  1.
     999900   -1    0    0    0    0 -0.00000000000E+00 -0.00000000000E+00 -0.74505805969E-08  0.93827000000E+00  0.93827000000E+00 0.  1.
     999902    2    1    2    0    0  0.34174258930E-02  0.20114571533E-01 -0.17506498224E-01  0.10170459477E+01  0.10166905662E+01 0.  0.
     999903    2    3    3    0    0  0.10247822956E+00 -0.54832833803E-01 -0.49875066820E-01  0.12773279666E+00  0.17880655910E-01 0.  0.
         14    1    1    2    0    0 -0.34174258930E-02 -0.20114571533E-01  0.17506498224E-01  0.26884052294E-01  0.00000000000E+00 0.  1.
     999901    1    3    3    0    0 -0.99060803667E-01  0.74947405336E-01  0.32368568596E-01  0.88931315105E+00  0.88000000000E+00 0. -1.
        -11    1    4    4    0    0  0.36222538250E-01 -0.29204821521E-01 -0.20877989507E-01  0.51001425904E-01  0.51100000000E-03 0.  1.
         11    1    4    4    0    0  0.66255691310E-01 -0.25628012282E-01 -0.28997077313E-01  0.76731370757E-01  0.51100000000E-03 0. -1.
</event>
<event>
 8    1  0.1115874E+005  0.1043930E+01  0.7957747E-01            NaN
         13   -1    0    0    0    0  0.00000000000E+00  0.00000000000E+00  0.74505805969E-08  0.10566000000E+00  0.10566000000E+00 0.  1.
     999900   -1    0    0    0    0 -0.00000000000E+00 -0.00000000000E+00 -0.74505805969E-08  0.93827000000E+00  0.93827000000E+00 0.  1.
     999902    2    1    2    0    0 -0.11839702383E-01  0.21741831678E-01  0.49866483660E-03  0.10191684479E+01  0.10188676021E+01 0.  0.
     999903    2    3    3    0    0  0.12055004277E+00 -0.15058858102E-01 -0.34598761420E-01  0.12781376834E+00  0.19498796508E-01 0.  0.
         14    1    1    2    0    0  0.11839702383E-01 -0.21741831678E-01 -0.49866483660E-03  0.24761552129E-01  0.00000000000E+00 0. -1.
     999901    1    3    3    0    0 -0.13238974516E+00  0.36800689780E-01  0.35097426256E-01  0.89135467953E+00  0.88000000000E+00 0. -1.
        -11    1    4    4    0    0  0.11367601658E+00 -0.17281287110E-01 -0.35896060810E-01  0.12045608300E+00  0.51100000000E-03 0.  1.
         11    1    4    4    0    0  0.68740261979E-02  0.22224290078E-02  0.12972993903E-02  0.73576853407E-02  0.51100000000E-03 0. -1.
</event>
<event>
 8    1  0.1115874E+005  0.1043930E+01  0.7957747E-01            NaN
         13   -1    0    0    0    0  0.00000000000E+00  0.00000000000E+00  0.74505805969E-08  0.10566000000E+00  0.10566000000E+00 0.  1.
     999900   -1    0    0    0    0 -0.00000000000E+00 -0.00000000000E+00 -0.74505805969E-08  0.93827000000E+00  0.93827000000E+00 0.  1.
     999902    2    1    2    0    0 -0.13922201787E-02 -0.19655031158E-01  0.15591337258E-01  0.10188033543E+01  0.10184934592E+01 0.  0.
     999903    2    3    3    0    0 -0.12166924784E+00  0.11608675682E-01  0.38693065217E-01  0.12977148052E+00  0.20132477251E-01 0.  0.
         14    1    1    2    0    0  0.13922201787E-02  0.19655031158E-01 -0.15591337258E-01  0.25126645704E-01  0.00000000000E+00 0. -1.
     999901    1    3    3    0    0  0.12027702766E+00 -0.31263706840E-01 -0.23101727959E-01  0.88903187377E+00  0.88000000000E+00 0.  1.
        -11    1    4    4    0    0 -0.55424277565E-01  0.14918313258E-01  0.21029997916E-01  0.61130422437E-01  0.51100000000E-03 0.  1.
         11    1    4    4    0    0 -0.66244970276E-01 -0.33096375757E-02  0.17663067301E-01  0.68641058086E-01  0.51100000000E-03 0. -1.
</event>
<event>
 8    1  0.1115874E+005  0.1043930E+01  0.7957747E-01            NaN
         13   -1    0    0    0    0  0.00000000000E+00  0.00000000000E+00  0.74505805969E-08  0.10566000000E+00  0.10566000000E+00 0. -1.
     999900   -1    0    0    0    0 -0.00000000000E+00 -0.00000000000E+00 -0.74505805969E-08  0.93827000000E+00  0.93827000000E+00 0. -1.
     999902    2    1    2    0    0 -0.16859661868E-01  0.11533306040E-01  0.11669776395E-01  0.10204045026E+01  0.10201332756E+01 0.  0.
     999903    2    3    3    0    0 -0.10269891973E+00 -0.10024547906E-02  0.83449053489E-01  0.13323045649E+00  0.15444642333E-01 0.  0.
         14    1    1    2    0    0  0.16859661868E-01 -0.11533306040E-01 -0.11669776395E-01  0.23525497394E-01  0.00000000000E+00 0.  1.
     999901    1    3    3    0    0  0.85839257866E-01  0.12535760830E-01 -0.71779277094E-01  0.88717404612E+00  0.88000000000E+00 0. -1.
        -11    1    4    4    0    0 -0.40951042068E-01 -0.24945022856E-02  0.24174312682E-01  0.47622147188E-01  0.51100000000E-03 0.  1.
         11    1    4    4    0    0 -0.61747877666E-01  0.14920474950E-02  0.59274740808E-01  0.85608309298E-01  0.51100000000E-03 0. -1.
</event>
<event>
 8    1  0.1115874E+005  0.1043930E+01  0.7957747E-01            NaN
         13   -1    0    0    0    0  0.00000000000E+00  0.00000000000E+00  0.74505805969E-08  0.10566000000E+00  0.10566000000E+00 0.  1.
     999900   -1    0    0    0    0 -0.00000000000E+00 -0.00000000000E+00 -0.74505805969E-08  0.93827000000E+00  0.93827000000E+00 0.  1.
     999902    2    1    2    0    0 -0.12437194445E-01  0.23327242052E-01 -0.11503482126E-01  0.10150999093E+01  0.10146904216E+01 0.  0.
     999903    2    3    3    0    0 -0.11311080070E+00 -0.40584911304E-01 -0.34881211123E-01  0.12674949617E+00  0.20187808902E-01 0.  0.
         14    1    1    2    0    0  0.12437194445E-01 -0.23327242052E-01  0.11503482126E-01  0.28830090677E-01  0.00000000000E+00 0.  1.
     999901    1    3    3    0    0  0.10067360626E+00  0.63912153356E-01  0.23377728998E-01  0.88835041316E+00  0.88000000000E+00 0. -1.
        -11    1    4    4    0    0 -0.58242450753E-01 -0.28329106862E-01 -0.26169628327E-01  0.69855793840E-01  0.51100000000E-03 0.  1.
         11    1    4    4    0    0 -0.54868349948E-01 -0.12255804442E-01 -0.87115827966E-02  0.56893702326E-01  0.51100000000E-03 0. -1.
</event>
<event>
 8    1  0.1115874E+005  0.1043930E+01  0.7957747E-01            NaN
         13   -1    0    0    0    0  0.00000000000E+00  0.00000000000E+00  0.74505805969E-08  0.10566000000E+00  0.10566000000E+00 0. -1.
     999900   -1    0    0    0    0 -0.00000000000E+00 -0.00000000000E+00 -0.74505805969E-08  0.93827000000E+00  0.93827000000E+00 0. -1.
     999902    2    1    2    0    0  0.20554922203E-01 -0.95445077434E-02  0.69892528776E-02  0.10202139272E+01  0.10199382359E+01 0.  0.
     999903    2    3    3    0    0  0.11692069257E+00 -0.23449572014E-01 -0.54897713909E-01  0.13268380984E+00  0.19258858285E-01 0.  0.
         14    1    1    2    0    0 -0.20554922203E-01  0.95445077434E-02 -0.69892528776E-02  0.23716072833E-01  0.00000000000E+00 0.  1.
     999901    1    3    3    0    0 -0.96365770364E-01  0.13905064271E-01  0.61886966787E-01  0.88753011733E+00  0.88000000000E+00 0.  1.
        -11    1    4    4    0    0  0.48237129938E-01 -0.99615105843E-03 -0.17567357079E-01  0.51348672595E-01  0.51100000000E-03 0. -1.
         11    1    4    4    0    0  0.68683562629E-01 -0.22453420956E-01 -0.37330356831E-01  0.81335137242E-01  0.51100000000E-03 0.  1.
</event>
<event>
 8    1  0.1115874E+005  0.1043930E+01  0.7957747E-01            NaN
         13   -1    0    0    0    0  0.00000000000E+00  0.00000000000E+00  0.74505805969E-08  0.10566000000E+00  0.10566000000E+00 0.  1.
     999900   -1    0    0    0    0 -0.00000000000E+00 -0.00000000000E+00 -0.74505805969E-08  0.93827000000E+00  0.93827000000E+00 0.  1.
     999902    2    1    2    0    0 -0.89299622970E-02 -0.13144364257E-01 -0.17300017624E-01  0.10204393817E+01  0.10201689677E+01 0.  0.
     999903    2    3    3    0    0 -0.95063969815E-01 -0.64621695209E-01  0.60323976166E-01  0.13134182391E+00  0.19964237005E-01 0.  0.
         14    1    1    2    0    0  0.89299622970E-02  0.13144364257E-01  0.17300017624E-01  0.23490618300E-01  0.00000000000E+00 0.  1.
     999901    1    3    3    0    0  0.86134007518E-01  0.51477330952E-01 -0.77623993790E-01  0.88909755779E+00  0.88000000000E+00 0.  1.
        -11    1    4    4    0    0 -0.34570254278E-01 -0.34137028680E-01  0.30162340489E-01  0.57187997978E-01  0.51100000000E-03 0. -1.
         11    1    4    4    0    0 -0.60493715537E-01 -0.30484666529E-01  0.30161635678E-01  0.74153825934E-01  0.51100000000E-03 0.  1.
</event>
<event>
 8    1  0.1115874E+005  0.1043930E+01  0.7957747E-01            NaN
         13   -1    0    0    0    0  0.00000000000E+00  0.00000000000E+00  0.74505805969E-08  0.10566000000E+00  0.10566000000E+00 0. -1.
     999900   -1    0    0    0    0 -0.00000000000E+00 -0.00000000000E+00 -0.74505805969E-08  0.93827000000E+00  0.93827000000E+00 0. -1.
     999902    2    1    2    0    0 -0.67553679182E-02  0.15678110592E-01 -0.16374758293E-01  0.10202747499E+01  0.10200004875E+01 0.  0.
     999903    2    3    3    0    0 -0.96421668039E-01 -0.81078732418E-01  0.22547791430E-01  0.12959136233E+00  0.20362204540E-01 0.  0.
         14    1    1    2    0    0  0.67553679182E-02 -0.15678110592E-01  0.16374758293E-01  0.23655250085E-01  0.00000000000E+00 0. -1.
     999901    1    3    3    0    0  0.89666300121E-01  0.96756843010E-01 -0.38922549723E-01  0.89068338759E+00  0.88000000000E+00 0. -1.
        -11    1    4    4    0    0 -0.67510534008E-01 -0.49529573771E-01  0.68674024108E-02  0.84013529963E-01  0.51100000000E-03 0. -1.
         11    1    4    4    0    0 -0.28911134031E-01 -0.31549158647E-01  0.15680389019E-01  0.45577832365E-01  0.51100000000E-03 0.  1.
</event>
<event>
 8    1  0.1115874E+005  0.1043930E+01  0.7957747E-01            NaN
         13   -1    0    0    0    0  0.00000000000E+00  0.00000000000E+00  0.74505805969E-08  0.10566000000E+00  0.10566000000E+00 0. -1.
     999900   -1    0    0    0    0 -0.00000000000E+00 -0.00000000000E+00 -0.74505805969E-08  0.93827000000E+00  0.93827000000E+00 0.  1.
     999902    2    1    2    0    0  0.17278198581E-01 -0.10826235520E-01 -0.13468406318E-01  0.10194935213E+01  0.10192006174E+01 0.  0.
     999903    2    3    3    0    0  0.17023173861E-01 -0.12856996397E+00 -0.96509312489E-02  0.13164318272E+00  0.20414774015E-01 0.  0.
         14    1    1    2    0    0 -0.17278198581E-01  0.10826235520E-01  0.13468406318E-01  0.24436478684E-01  0.00000000000E+00 0.  1.
     999901    1    3    3    0    0  0.25502472024E-03  0.11774372845E+00 -0.38174750691E-02  0.88785033860E+00  0.88000000000E+00 0.  1.
        -11    1    4    4    0    0 -0.23282321078E-02 -0.33631580912E-01 -0.83853624673E-02  0.34743047133E-01  0.51100000000E-03 0. -1.
         11    1    4    4    0    0  0.19351405969E-01 -0.94938383062E-01 -0.12655687816E-02  0.96900135587E-01  0.51100000000E-03 0.  1.
</event>
<event>
 8    1  0.1115874E+005  0.1043930E+01  0.7957747E-01            NaN
         13   -1    0    0    0    0  0.00000000000E+00  0.00000000000E+00  0.74505805969E-08  0.10566000000E+00  0.10566000000E+00 0.  1.
     999900   -1    0    0    0    0 -0.00000000000E+00 -0.00000000000E+00 -0.74505805969E-08  0.93827000000E+00  0.93827000000E+00 0.  1.
     999902    2    1    2    0    0 -0.22187899185E-02 -0.15067134884E-01 -0.19032020207E-01  0.10195546154E+01  0.10192631919E+01 0.  0.
     999903    2    3    3    0    0 -0.69128185708E-01  0.72771528599E-01  0.76224569188E-01  0.12755331724E+00  0.19628101245E-01 0.  0.
         14    1    1    2    0    0  0.22187899185E-02  0.15067134884E-01  0.19032020207E-01  0.24375384622E-01  0.00000000000E+00 0.  1.
     999901    1    3    3    0    0  0.66909395789E-01 -0.87838663483E-01 -0.95256589395E-01  0.89200129813E+00  0.88000000000E+00 0.  1.
        -11    1    4    4    0    0 -0.33090428045E-01  0.21245422711E-01  0.31559495050E-01  0.50424272560E-01  0.51100000000E-03 0.  1.
         11    1    4    4    0    0 -0.36037757662E-01  0.51526105888E-01  0.44665074137E-01  0.77129044685E-01  0.51100000000E-03 0. -1.
</event>
<event>
 8    1  0.1115874E+005  0.1043930E+01  0.7957747E-01            NaN
         13   -1    0    0    0    0  0.00000000000E+00  0.00000000000E+00  0.74505805969E-08  0.10566000000E+00  0.10566000000E+00 0. -1.
     999900   -1    0    0    0    0 -0.00000000000E+00 -0.00000000000E+00 -0.74505805969E-08  0.93827000000E+00  0.93827000000E+00 0. -1.
     999902    2    1    2    0    0  0.11997120116E-01 -0.36880701737E-02  0.18766157624E-01  0.10213534320E+01  0.10211038789E+01 0.  0.
     999903    2    3    3    0    0  0.14784221963E-01 -0.11595485396E+00  0.60889929970E-01  0.13321717503E+00  0.19368293020E-01 0.  0.
         14    1    1    2    0    0 -0.11997120116E-01  0.36880701737E-02 -0.18766157624E-01  0.22576568044E-01  0.00000000000E+00 0.  1.
     999901    1    3    3    0    0 -0.27871018477E-02  0.11226678378E+00 -0.42123772346E-01  0.88813625693E+00  0.88000000000E+00 0. -1.
        -11    1    4    4    0    0  0.51863906834E-02 -0.19990720832E-01  0.33961662186E-02  0.20936156134E-01  0.51100000000E-03 0.  1.
         11    1    4    4    0    0  0.95978312800E-02 -0.95964133127E-01  0.57493763751E-01  0.11228101889E+00  0.51100000000E-03 0. -1.
</event>
<event>
 8    1  0.1115874E+005  0.1043930E+01  0.7957747E-01            NaN
         13   -1    0    0    0    0  0.00000000000E+00  0.00000000000E+00  0.74505805969E-08  0.10566000000E+00  0.10566000000E+00 0. -1.
     999900   -1    0    0    0    0 -0.00000000000E+00 -0.00000000000E+00 -0.74505805969E-08  0.93827000000E+00  0.93827000000E+00 0. -1.
     999902    2    1    2    0    0 -0.16005611159E-01 -0.15309540809E-01 -0.84858824702E-02  0.10202114033E+01  0.10199356527E+01 0.  0.
     999903    2    3    3    0    0  0.11816697101E-01 -0.12286112986E+00  0.41733149697E-01  0.13180644139E+00  0.19919604616E-01 0.  0.
         14    1    1    2    0    0  0.16005611159E-01  0.15309540809E-01  0.84858824702E-02  0.23718596705E-01  0.00000000000E+00 0. -1.
     999901    1    3    3    0    0 -0.27822308260E-01  0.10755158905E+00 -0.50219032167E-01  0.88840496190E+00  0.88000000000E+00 0. -1.
        -11    1    4    4    0    0  0.33903684280E-02 -0.10282865908E+00  0.30355398098E-01  0.10727040152E+00  0.51100000000E-03 0.  1.
         11    1    4    4    0    0  0.84263286726E-02 -0.20032470776E-01  0.11377751599E-01  0.24536039875E-01  0.51100000000E-03 0. -1.
</event>
<event>
 8    1  0.1115874E+005  0.1043930E+01  0.7957747E-01            NaN
         13   -1    0    0    0    0  0.00000000000E+00  0.00000000000E+00  0.74505805969E-08  0.10566000000E+00  0.10566000000E+00 0. -1.
     999900   -1    0    0    0    0 -0.00000000000E+00 -0.00000000000E+00 -0.74505805969E-08  0.93827000000E+00  0.93827000000E+00 0. -1.
     999902    2    1    2    0    0  0.95296457676E-05  0.12686420006E-01  0.20895238820E-01  0.10194850343E+01  0.10191919244E+01 0.  0.
     999903    2    3    3    0    0 -0.96439922046E-01  0.86187663458E-01  0.26447935449E-03  0.13092971369E+00  0.20335881628E-01 0.  0.
         14    1    1    2    0    0 -0.95296457676E-05 -0.12686420006E-01 -0.20895238820E-01  0.24444965714E-01  0.00000000000E+00 0. -1.
     999901    1    3    3    0    0  0.96449451691E-01 -0.73501243452E-01  0.20630759466E-01  0.88855532059E+00  0.88000000000E+00 0.  1.
        -11    1    4    4    0    0 -0.38370432630E-01  0.22839956439E-01  0.45338745305E-02  0.44886198877E-01  0.51100000000E-03 0. -1.
         11    1    4    4    0    0 -0.58069489416E-01  0.63347707019E-01 -0.42693951760E-02  0.86043514815E-01  0.51100000000E-03 0.  1.
</event>
<event>
 8    1  0.1115874E+005  0.1043930E+01  0.7957747E-01            NaN
         13   -1    0    0    0    0  0.00000000000E+00  0.00000000000E+00  0.74505805969E-08  0.10566000000E+00  0.10566000000E+00 0.  1.
     999900   -1    0    0    0    0 -0.00000000000E+00 -0.00000000000E+00 -0.74505805969E-08  0.93827000000E+00  0.93827000000E+00 0. -1.
     999902    2    1    2    0    0 -0.13096758806E-01 -0.12638952507E-01 -0.14696629350E-01  0.10205364298E+01  0.10202682713E+01 0.  0.
     999903    2    3    3    0    0  0.93850932646E-01  0.83508418101E-01 -0.21000150780E-01  0.12884037175E+00  0.19421163933E-01 0.  0.
         14    1    1    2    0    0  0.13096758806E-01  0.12638952507E-01  0.14696629350E-01  0.23393570184E-01  0.00000000000E+00 0.  1.
     999901    1    3    3    0    0 -0.10694769145E+00 -0.96147370608E-01  0.63035214300E-02  0.89169605806E+00  0.88000000000E+00 0.  1.
        -11    1    4    4    0    0  0.21277415789E-01  0.17053664774E-01 -0.12704804242E-01  0.30087025055E-01  0.51100000000E-03 0. -1.
         11    1    4    4    0    0  0.72573516857E-01  0.66454753327E-01 -0.82953465380E-02  0.98753346698E-01  0.51100000000E-03 0.  1.
</event>
<event>
 8    1  0.1115874E+005  0.1043930E+01  0.7957747E-01            NaN
         13   -1    0    0    0    0  0.00000000000E+00  0.00000000000E+00  0.74505805969E-08  0.10566000000E+00  0.10566000000E+00 0. -1.
     999900   -1    0    0    0    0 -0.00000000000E+00 -0.00000000000E+00 -0.74505805969E-08  0.93827000000E+00  0.93827000000E+00 0. -1.
     999902    2    1    2    0    0 -0.30362849529E-03 -0.14195873627E-01 -0.19317261291E-01  0.10199556053E+01  0.10196738033E+01 0.  0.
     999903    2    3    3    0    0  0.89066861791E-01  0.67835393964E-01  0.59048902206E-01  0.12818351053E+00  0.20240873909E-01 0.  0.
         14    1    1    2    0    0  0.30362849529E-03  0.14195873627E-01  0.19317261291E-01  0.23974394718E-01  0.00000000000E+00 0.  1.
     999901    1    3    3    0    0 -0.89370490287E-01 -0.82031267591E-01 -0.78366163497E-01  0.89177209475E+00  0.88000000000E+00 0. -1.
        -11    1    4    4    0    0  0.29004171483E-01  0.23945601860E-01  0.30774132825E-01  0.48599816707E-01  0.51100000000E-03 0. -1.
         11    1    4    4    0    0  0.60062690309E-01  0.43889792103E-01  0.28274769381E-01  0.79583693823E-01  0.51100000000E-03 0.  1.
</event>
<event>
 8    1  0.1115874E+005  0.1043930E+01  0.7957747E-01            NaN
         13   -1    0    0    0    0  0.00000000000E+00  0.00000000000E+00  0.74505805969E-08  0.10566000000E+00  0.10566000000E+00 0. -1.
     999900   -1    0    0    0    0 -0.00000000000E+00 -0.00000000000E+00 -0.74505805969E-08  0.93827000000E+00  0.93827000000E+00 0.  1.
     999902    2    1    2    0    0  0.16325093670E-01  0.17506126922E-01  0.15775667500E-02  0.10199412135E+01  0.10196590690E+01 0.  0.
     999903    2    3    3    0    0  0.98675631231E-01 -0.77989293564E-01  0.29374441201E-01  0.13051800002E+00  0.18785111736E-01 0.  0.
         14    1    1    2    0    0 -0.16325093670E-01 -0.17506126922E-01 -0.15775667500E-02  0.23988786547E-01  0.00000000000E+00 0.  1.
     999901    1    3    3    0    0 -0.82350537561E-01  0.95495420486E-01 -0.27796874451E-01  0.88942321344E+00  0.88000000000E+00 0.  1.
        -11    1    4    4    0    0  0.34269969147E-01 -0.20978851043E-01  0.19297009116E-02  0.40230931421E-01  0.51100000000E-03 0.  1.
         11    1    4    4    0    0  0.64405662084E-01 -0.57010442521E-01  0.27444740290E-01  0.90287068595E-01  0.51100000000E-03 0. -1.
</event>
<event>
 8    1  0.1115874E+005  0.1043930E+01  0.7957747E-01            NaN
         13   -1    0    0    0    0  0.00000000000E+00  0.00000000000E+00  0.74505805969E-08  0.10566000000E+00  0.10566000000E+00 0. -1.
     999900   -1    0    0    0    0 -0.00000000000E+00 -0.00000000000E+00 -0.74505805969E-08  0.93827000000E+00  0.93827000000E+00 0.  1.
     999902    2    1    2    0    0  0.20002072954E-01 -0.10506130842E-01  0.73970134420E-02  0.10201565376E+01  0.10198794947E+01 0.  0.
     999903    2    3    3    0    0  0.11279418028E+00 -0.92995203256E-02  0.68118002989E-01  0.13319607078E+00  0.17091599027E-01 0.  0.
         14    1    1    2    0    0 -0.20002072954E-01  0.10506130842E-01 -0.73970134420E-02  0.23773462423E-01  0.00000000000E+00 0. -1.
     999901    1    3    3    0    0 -0.92792107323E-01 -0.12066105161E-02 -0.60720989547E-01  0.88696046680E+00  0.88000000000E+00 0.  1.
        -11    1    4    4    0    0  0.90654120678E-01 -0.13688428728E-01  0.51446800067E-01  0.10513123720E+00  0.51100000000E-03 0.  1.
         11    1    4    4    0    0  0.22140059598E-01  0.43889084029E-02  0.16671202922E-01  0.28064833580E-01  0.51100000000E-03 0. -1.
</event>
<event>
 8    1  0.1115874E+005  0.1043930E+01  0.7957747E-01            NaN
         13   -1    0    0    0    0  0.00000000000E+00  0.00000000000E+00  0.74505805969E-08  0.10566000000E+00  0.10566000000E+00 0.  1.
     999900   -1    0    0    0    0 -0.00000000000E+00 -0.00000000000E+00 -0.74505805969E-08  0.93827000000E+00  0.93827000000E+00 0.  1.
     999902    2    1    2    0    0  0.11731314928E-01  0.14583176270E-01  0.13574375770E-01  0.10208095230E+01  0.10205476597E+01 0.  0.
     999903    2    3    3    0    0 -0.15516326243E-01  0.11536489761E+00  0.61710429499E-01  0.13333193511E+00  0.20479546619E-01 0.  0.
         14    1    1    2    0    0 -0.11731314928E-01 -0.14583176270E-01 -0.13574375770E-01  0.23120477020E-01  0.00000000000E+00 0. -1.
     999901    1    3    3    0    0  0.27247641171E-01 -0.10078172134E+00 -0.48136053729E-01  0.88747758787E+00  0.88000000000E+00 0.  1.
        -11    1    4    4    0    0 -0.15455882133E-01  0.85534453845E-01  0.54647352476E-01  0.10267239814E+00  0.51100000000E-03 0. -1.
         11    1    4    4    0    0 -0.60444109572E-04  0.29830443767E-01  0.70630770234E-02  0.30659536964E-01  0.51100000000E-03 0.  1.
</event>
<event>
 8    1  0.1115874E+005  0.1043930E+01  0.7957747E-01            NaN
         13   -1    0    0    0    0  0.00000000000E+00  0.00000000000E+00  0.74505805969E-08  0.10566000000E+00  0.10566000000E+00 0.  1.
     999900   -1    0    0    0    0 -0.00000000000E+00 -0.00000000000E+00 -0.74505805969E-08  0.93827000000E+00  0.93827000000E+00 0.  1.
     999902    2    1    2    0    0 -0.20921445312E-02 -0.22810621931E-01 -0.82799804416E-02  0.10195730786E+01  0.10192821018E+01 0.  0.
     999903    2    3    3    0    0  0.11101577043E+00  0.83128860394E-02  0.61866797182E-01  0.12902120280E+00  0.20624374396E-01 0.  0.
         14    1    1    2    0    0  0.20921445312E-02  0.22810621931E-01  0.82799804416E-02  0.24356921352E-01  0.00000000000E+00 0. -1.
     999901    1    3    3    0    0 -0.11310791496E+00 -0.31123507970E-01 -0.70146777624E-01  0.89055187585E+00  0.88000000000E+00 0.  1.
        -11    1    4    4    0    0  0.67770031799E-01  0.22829471475E-02  0.26410231868E-01  0.72771907534E-01  0.51100000000E-03 0.  1.
         11    1    4    4    0    0  0.43245738628E-01  0.60299388919E-02  0.35456565314E-01  0.56249295261E-01  0.51100000000E-03 0. -1.
</event>
<event>
 8    1  0.1115874E+005  0.1043930E+01  0.7957747E-01            NaN
         13   -1    0    0    0    0  0.00000000000E+00  0.00000000000E+00  0.74505805969E-08  0.10566000000E+00  0.10566000000E+00 0.  1.
     999900   -1    0    0    0    0 -0.00000000000E+00 -0.00000000000E+00 -0.74505805969E-08  0.93827000000E+00  0.93827000000E+00 0.  1.
     999902    2    1    2    0    0  0.16852015048E-01 -0.13854136976E-01  0.83668696728E-02  0.10205648116E+01  0.10202973109E+01 0.  0.
     999903    2    3    3    0    0 -0.98331176253E-02 -0.10402293529E+00 -0.77242526363E-01  0.13142394692E+00  0.19707477693E-01 0.  0.
         14    1    1    2    0    0 -0.16852015048E-01  0.13854136976E-01 -0.83668696728E-02  0.23365188436E-01  0.00000000000E+00 0.  1.
     999901    1    3    3    0    0  0.26685132673E-01  0.90168798310E-01  0.85609396035E-01  0.88914086465E+00  0.88000000000E+00 0. -1.
        -11    1    4    4    0    0 -0.50528310769E-02 -0.29742293826E-01 -0.33507351500E-01  0.45090341199E-01  0.51100000000E-03 0. -1.
         11    1    4    4    0    0 -0.47802865484E-02 -0.74280641460E-01 -0.43735174862E-01  0.86333605719E-01  0.51100000000E-03 0.  1.
</event>
<event>
 8    1  0.1115874E+005  0.1043930E+01  0.7957747E-01            NaN
         13   -1    0    0    0    0  0.00000000000E+00  0.00000000000E+00  0.74505805969E-08  0.10566000000E+00  0.10566000000E+00 0. -1.
     999900   -1    0    0    0    0 -0.00000000000E+00 -0.00000000000E+00 -0.74505805969E-08  0.93827000000E+00  0.93827000000E+00 0. -1.
     999902    2    1    2    0    0  0.12588186479E-01 -0.58419745140E-02  0.93175024581E-02  0.10272145294E+01  0.10270785182E+01 0.  0.
     999903    2    3    3    0    0  0.35955664757E-01  0.94647505692E-03  0.13259756988E+00  0.13828815613E+00  0.15741440368E-01 0.  0.
         14    1    1    2    0    0 -0.12588186479E-01  0.58419745140E-02 -0.93175024581E-02  0.16715470592E-01  0.00000000000E+00 0.  1.
     999901    1    3    3    0    0 -0.23367478279E-01 -0.67884495709E-02 -0.12328006742E+00  0.88892637328E+00  0.88000000000E+00 0. -1.
        -11    1    4    4    0    0  0.24470569774E-01  0.51916496334E-02  0.10729827101E+00  0.11017686733E+00  0.51100000000E-03 0.  1.
         11    1    4    4    0    0  0.11485094983E-01 -0.42451745764E-02  0.25299298864E-01  0.28111288800E-01  0.51100000000E-03 0. -1.
</event>
<event>
 8    1  0.1115874E+005  0.1043930E+01  0.7957747E-01            NaN
         13   -1    0    0    0    0  0.00000000000E+00  0.00000000000E+00  0.74505805969E-08  0.10566000000E+00  0.10566000000E+00 0.  1.
     999900   -1    0    0    0    0 -0.00000000000E+00 -0.00000000000E+00 -0.74505805969E-08  0.93827000000E+00  0.93827000000E+00 0.  1.
     999902    2    1    2    0    0 -0.12874809316E-01 -0.19324394542E-01  0.94724712109E-03  0.10206901589E+01  0.10204255535E+01 0.  0.
     999903    2    3    3    0    0 -0.12857836387E+00 -0.12586827169E-01  0.23412171553E-01  0.13280650646E+00  0.19965332650E-01 0.  0.
         14    1    1    2    0    0  0.12874809316E-01  0.19324394542E-01 -0.94724712109E-03  0.23239841145E-01  0.00000000000E+00 0. -1.
     999901    1    3    3    0    0  0.11570355456E+00 -0.67375673735E-02 -0.22464924432E-01  0.88788365239E+00  0.88000000000E+00 0.  1.
        -11    1    4    4    0    0 -0.86316638977E-01 -0.94200315425E-02  0.25112431084E-01  0.90389128077E-01  0.51100000000E-03 0.  1.
         11    1    4    4    0    0 -0.42261724897E-01 -0.31667956261E-02 -0.17002595316E-02  0.42417378388E-01  0.51100000000E-03 0. -1.
</event>
<event>
 8    1  0.1115874E+005  0.1043930E+01  0.7957747E-01            NaN
         13   -1    0    0    0    0  0.00000000000E+00  0.00000000000E+00  0.74505805969E-08  0.10566000000E+00  0.10566000000E+00 0. -1.
     999900   -1    0    0    0    0 -0.00000000000E+00 -0.00000000000E+00 -0.74505805969E-08  0.93827000000E+00  0.93827000000E+00 0. -1.
     999902    2    1    2    0    0  0.19152889945E-01  0.37895329965E-02 -0.12427342098E-01  0.10207862625E+01  0.10205238660E+01 0.  0.
     999903    2    3    3    0    0  0.43151106196E-01  0.36365824649E-01  0.11596422102E+00  0.13054948353E+00  0.20272541136E-01 0.  0.
         14    1    1    2    0    0 -0.19152889945E-01 -0.37895329965E-02  0.12427342098E-01  0.23143737494E-01  0.00000000000E+00 0. -1.
     999901    1    3    3    0    0 -0.23998216252E-01 -0.32576291652E-01 -0.12839156312E+00  0.89023677898E+00  0.88000000000E+00 0. -1.
        -11    1    4    4    0    0  0.28033107663E-01  0.11074600180E-01  0.65642367136E-01  0.72233533616E-01  0.51100000000E-03 0. -1.
         11    1    4    4    0    0  0.15117998534E-01  0.25291224469E-01  0.50321853886E-01  0.58315949914E-01  0.51100000000E-03 0.  1.
</event>
<event>
 8    1  0.1115874E+005  0.1043930E+01  0.7957747E-01            NaN
         13   -1    0    0    0    0  0.00000000000E+00  0.00000000000E+00  0.74505805969E-08  0.10566000000E+00  0.10566000000E+00 0. -1.
     999900   -1    0    0    0    0 -0.00000000000E+00 -0.00000000000E+00 -0.74505805969E-08  0.93827000000E+00  0.93827000000E+00 0. -1.
     999902    2    1    2    0    0  0.12574060347E-01 -0.21223800875E-01  0.88570170482E-02  0.10177192490E+01  0.10173816719E+01 0.  0.
     999903    2    3    3    0    0 -0.39956303181E-01 -0.50382368830E-01  0.11099710227E+00  0.12977653790E+00  0.19664786431E-01 0.  0.
         14    1    1    2    0    0 -0.12574060347E-01  0.21223800875E-01 -0.88570170482E-02  0.26210751004E-01  0.00000000000E+00 0.  1.
     999901    1    3    3    0    0  0.52530363529E-01  0.29158567955E-01 -0.10214008522E+00  0.88794271109E+00  0.88000000000E+00 0. -1.
        -11    1    4    4    0    0 -0.32666754989E-01 -0.31244919851E-01  0.62544779755E-01  0.77171707857E-01  0.51100000000E-03 0.  1.
         11    1    4    4    0    0 -0.72895481928E-02 -0.19137448979E-01  0.48452322511E-01  0.52604830044E-01  0.51100000000E-03 0. -1.
</event>
<event>
 8    1  0.1115874E+005  0.1043930E+01  0.7957747E-01            NaN
         13   -1    0    0    0    0  0.00000000000E+00  0.00000000000E+00  0.74505805969E-08  0.10566000000E+00  0.10566000000E+00 0. -1.
     999900   -1    0    0    0    0 -0.00000000000E+00 -0.00000000000E+00 -0.74505805969E-08  0.93827000000E+00  0.93827000000E+00 0. -1.
     999902    2    1    2    0    0 -0.13001027088E-02 -0.21880279825E-03 -0.22506758907E-01  0.10213846604E+01  0.10211358049E+01 0.  0.
     999903    2    3    3    0    0  0.46779898576E-01 -0.11797086066E+00  0.23326264790E-01  0.13106005682E+00  0.22959551185E-01 0.  0.
         14    1    1    2    0    0  0.13001027088E-02  0.21880279825E-03  0.22506758907E-01  0.22545339612E-01  0.00000000000E+00 0. -1.
     999901    1    3    3    0    0 -0.48080001285E-01  0.11775205786E+00 -0.45833023698E-01  0.89032460357E+00  0.88000000000E+00 0. -1.
        -11    1    4    4    0    0  0.84494779898E-02 -0.46623568401E-01  0.26010612917E-02  0.47457111686E-01  0.51100000000E-03 0.  1.
         11    1    4    4    0    0  0.38330420587E-01 -0.71347292254E-01  0.20725203499E-01  0.83602945136E-01  0.51100000000E-03 0. -1.
</event>
<event>
 8    1  0.1115874E+005  0.1043930E+01  0.7957747E-01            NaN
         13   -1    0    0    0    0  0.00000000000E+00  0.00000000000E+00  0.74505805969E-08  0.10566000000E+00  0.10566000000E+00 0. -1.
     999900   -1    0    0    0    0 -0.00000000000E+00 -0.00000000000E+00 -0.74505805969E-08  0.93827000000E+00  0.93827000000E+00 0.  1.
     999902    2    1    2    0    0 -0.70709682844E-02 -0.20177277532E-01 -0.39598458708E-03  0.10225459423E+01  0.10223223201E+01 0.  0.
     999903    2    3    3    0    0 -0.21622437560E-01 -0.11561491344E+00 -0.63148119772E-01  0.13504500251E+00  0.20374730852E-01 0.  0.
         14    1    1    2    0    0  0.70709682844E-02  0.20177277532E-01  0.39598458708E-03  0.21384057727E-01  0.00000000000E+00 0. -1.
     999901    1    3    3    0    0  0.14551469276E-01  0.95437635907E-01  0.62752135185E-01  0.88750093976E+00  0.88000000000E+00 0. -1.
        -11    1    4    4    0    0 -0.12799115847E-01 -0.99611489799E-01 -0.48047765584E-01  0.11133335154E+00  0.51100000000E-03 0. -1.
         11    1    4    4    0    0 -0.88233217128E-02 -0.16003423640E-01 -0.15100354188E-01  0.23711650972E-01  0.51100000000E-03 0.  1.
</event>
<event>
 8    1  0.1115874E+005  0.1043930E+01  0.7957747E-01            NaN
         13   -1    0    0    0    0  0.00000000000E+00  0.00000000000E+00  0.74505805969E-08  0.10566000000E+00  0.10566000000E+00 0.  1.
     999900   -1    0    0    0    0 -0.00000000000E+00 -0.00000000000E+00 -0.74505805969E-08  0.93827000000E+00  0.93827000000E+00 0. -1.
     999902    2    1    2    0    0 -0.18042913377E-01  0.15917685748E-01 -0.28607067347E-02  0.10196997898E+01  0.10194118688E+01 0.  0.
     999903    2    3    3    0    0 -0.11059961941E+00 -0.62323818079E-01  0.25054322036E-01  0.13095476137E+00  0.20122036654E-01 0.  0.
         14    1    1    2    0    0  0.18042913377E-01 -0.15917685748E-01  0.28607067347E-02  0.24230210187E-01  0.00000000000E+00 0. -1.
     999901    1    3    3    0    0  0.92556706032E-01  0.78241503827E-01 -0.27915028771E-01  0.88874502844E+00  0.88000000000E+00 0.  1.
        -11    1    4    4    0    0 -0.73751182470E-01 -0.38829253501E-01  0.69170621043E-02  0.83636443685E-01  0.51100000000E-03 0.  1.
         11    1    4    4    0    0 -0.36848436939E-01 -0.23494564578E-01  0.18137259932E-01  0.47318317683E-01  0.51100000000E-03 0. -1.
</event>
<event>
 8    1  0.1115874E+005  0.1043930E+01  0.7957747E-01            NaN
         13   -1    0    0    0    0  0.00000000000E+00  0.00000000000E+00  0.74505805969E-08  0.10566000000E+00  0.10566000000E+00 0.  1.
     999900   -1    0    0    0    0 -0.00000000000E+00 -0.00000000000E+00 -0.74505805969E-08  0.93827000000E+00  0.93827000000E+00 0.  1.
     999902    2    1    2    0    0 -0.73502453623E-03 -0.91662919372E-02 -0.22145057831E-01  0.10199515773E+01  0.10196696795E+01 0.  0.
     999903    2    3    3    0    0  0.12432660898E+00  0.31279432786E-01 -0.14219875395E-02  0.12994836693E+00  0.21190738630E-01 0.  0.
         14    1    1    2    0    0  0.73502453623E-03  0.91662919372E-02  0.22145057831E-01  0.23978422702E-01  0.00000000000E+00 0.  1.
     999901    1    3    3    0    0 -0.12506163351E+00 -0.40445724723E-01 -0.20723070291E-01  0.89000321037E+00  0.88000000000E+00 0.  1.
        -11    1    4    4    0    0  0.25250313563E-01 -0.21390628962E-02  0.88094847968E-03  0.25361212832E-01  0.51100000000E-03 0. -1.
         11    1    4    4    0    0  0.99076295415E-01  0.33418495682E-01 -0.23029360192E-02  0.10458715410E+00  0.51100000000E-03 0.  1.
</event>
<event>
 8    1  0.1115874E+005  0.1043930E+01  0.7957747E-01            NaN
         13   -1    0    0    0    0  0.00000000000E+00  0.00000000000E+00  0.74505805969E-08  0.10566000000E+00  0.10566000000E+00 0.  1.
     999900   -1    0    0    0    0 -0.00000000000E+00 -0.00000000000E+00 -0.74505805969E-08  0.93827000000E+00  0.93827000000E+00 0. -1.
     999902    2    1    2    0    0  0.13614873215E-02  0.17824216342E-01 -0.15548275032E-01  0.10202381197E+01  0.10199629972E+01 0.  0.
     999903    2    3    3    0    0 -0.95767226864E-03  0.69457032132E-01 -0.11201323747E+00  0.13345922101E+00  0.20957143303E-01 0.  0.
         14    1    1    2    0    0 -0.13614873215E-02 -0.17824216342E-01  0.15548275032E-01  0.23691880306E-01  0.00000000000E+00 0.  1.
     999901    1    3    3    0    0  0.23191595901E-02 -0.51632815789E-01  0.96464962442E-01  0.88677889868E+00  0.88000000000E+00 0.  1.
        -11    1    4    4    0    0 -0.85574353368E-02  0.53281058356E-01 -0.75509038695E-01  0.92811512889E-01  0.51100000000E-03 0.  1.
         11    1    4    4    0    0  0.75997630682E-02  0.16175973775E-01 -0.36504198778E-01  0.40647708124E-01  0.51100000000E-03 0. -1.
</event>
<event>
 8    1  0.1115874E+005  0.1043930E+01  0.7957747E-01            NaN
         13   -1    0    0    0    0  0.00000000000E+00  0.00000000000E+00  0.74505805969E-08  0.10566000000E+00  0.10566000000E+00 0. -1.
     999900   -1    0    0    0    0 -0.00000000000E+00 -0.00000000000E+00 -0.74505805969E-08  0.93827000000E+00  0.93827000000E+00 0.  1.
     999902    2    1    2    0    0  0.44274215001E-02 -0.24070981431E-01 -0.35269370921E-02  0.10192024143E+01  0.10189024035E+01 0.  0.
     999903    2    3    3    0    0 -0.88279659555E-02 -0.16442341146E-01  0.12657805719E+00  0.12950515627E+00  0.20032408056E-01 0.  0.
         14    1    1    2    0    0 -0.44274215001E-02  0.24070981431E-01  0.35269370921E-02  0.24727585678E-01  0.00000000000E+00 0.  1.
     999901    1    3    3    0    0  0.13255387456E-01 -0.76286402854E-02 -0.13010499428E+00  0.88969725805E+00  0.88000000000E+00 0.  1.
        -11    1    4    4    0    0  0.14147492856E-02 -0.26396191708E-02  0.76439123364E-01  0.76499475858E-01  0.51100000000E-03 0. -1.
         11    1    4    4    0    0 -0.10242715241E-01 -0.13802721975E-01  0.50138933828E-01  0.53005680411E-01  0.51100000000E-03 0.  1.
</event>
<event>
 7    1  0.1115874E+005  0.1043930E+01  0.7957747E-01            NaN
         13   -1    0    0    0    0  0.00000000000E+00  0.00000000000E+00  0.74505805969E-08  0.10566000000E+00  0.10566000000E+00 0.  1.
     999900   -1    0    0    0    0 -0.00000000000E+00 -0.00000000000E+00 -0.74505805969E-08  0.93827000000E+00  0.93827000000E+00 0.  1.
     999903    2    1    2    0    0 -0.26506450486E-01  0.11106739301E+00 -0.35617870156E-01  0.12132341517E+00  0.20302233564E-01 0.  0.
         14    1    1    2    0    0 -0.76076515559E-02 -0.37334066803E-01  0.38222128245E-02  0.38292534744E-01  0.00000000000E+00 0.  1.
     999901    1    1    2    0    0  0.34114102042E-01 -0.73733326204E-01  0.31795657331E-01  0.88431405008E+00  0.88000000000E+00 0. -1.
        -11    1    3    3    0    0 -0.15494238862E-01  0.74731454770E-01 -0.33331145968E-01  0.83283180670E-01  0.51100000000E-03 0.  1.
         11    1    3    3    0    0 -0.11012211625E-01  0.36335938237E-01 -0.22867241877E-02  0.38040234502E-01  0.51100000000E-03 0. -1.
</event>
<event>
 8    1  0.1115874E+005  0.1043930E+01  0.7957747E-01            NaN
         13   -1    0    0    0    0  0.00000000000E+00  0.00000000000E+00  0.74505805969E-08  0.10566000000E+00  0.10566000000E+00 0. -1.
     999900   -1    0    0    0    0 -0.00000000000E+00 -0.00000000000E+00 -0.74505805969E-08  0.93827000000E+00  0.93827000000E+00 0.  1.
     999902    2    1    2    0    0 -0.14004498493E-01  0.18235359879E-01  0.46967411440E-02  0.10204627099E+01  0.10201928389E+01 0.  0.
     999903    2    3    3    0    0  0.12684706004E+00  0.23067546711E-02  0.12362850607E-01  0.12908644184E+00  0.20370852557E-01 0.  0.
         14    1    1    2    0    0  0.14004498493E-01 -0.18235359879E-01 -0.46967411440E-02  0.23467290114E-01  0.00000000000E+00 0. -1.
     999901    1    3    3    0    0 -0.14085155853E+00  0.15928605207E-01 -0.76661094629E-02  0.89137626805E+00  0.88000000000E+00 0. -1.
        -11    1    4    4    0    0  0.37270934749E-01 -0.14561754777E-02  0.12772462063E-01  0.39428922535E-01  0.51100000000E-03 0. -1.
         11    1    4    4    0    0  0.89576125289E-01  0.37629301488E-02 -0.40961145639E-03  0.89657519303E-01  0.51100000000E-03 0.  1.
</event>
<event>
 8    1  0.1115874E+005  0.1043930E+01  0.7957747E-01            NaN
         13   -1    0    0    0    0  0.00000000000E+00  0.00000000000E+00  0.74505805969E-08  0.10566000000E+00  0.10566000000E+00 0. -1.
     999900   -1    0    0    0    0 -0.00000000000E+00 -0.00000000000E+00 -0.74505805969E-08  0.93827000000E+00  0.93827000000E+00 0. -1.
     999902    2    1    2    0    0  0.11291195897E-02  0.15442069045E-01  0.17118900449E-01  0.10208477739E+01  0.10205867863E+01 0.  0.
     999903    2    3    3    0    0  0.12407650399E+00  0.30507254394E-01  0.26890180006E-01  0.13211918936E+00  0.20167473914E-01 0.  0.
         14    1    1    2    0    0 -0.11291195897E-02 -0.15442069045E-01 -0.17118900449E-01  0.23082226063E-01  0.00000000000E+00 0.  1.
     999901    1    3    3    0    0 -0.12294738440E+00 -0.15065185349E-01 -0.97712795571E-02  0.88872858458E+00  0.88000000000E+00 0.  1.
        -11    1    4    4    0    0  0.87455927580E-01  0.29450100908E-01  0.14341811786E-01  0.93390558402E-01  0.51100000000E-03 0.  1.
         11    1    4    4    0    0  0.36620576407E-01  0.10571534866E-02  0.12548368221E-01  0.38728630958E-01  0.51100000000E-03 0. -1.
</event>
<event>
 8    1  0.1115874E+005  0.1043930E+01  0.7957747E-01            NaN
         13   -1    0    0    0    0  0.00000000000E+00  0.00000000000E+00  0.74505805969E-08  0.10566000000E+00  0.10566000000E+00 0. -1.
     999900   -1    0    0    0    0 -0.00000000000E+00 -0.00000000000E+00 -0.74505805969E-08  0.93827000000E+00  0.93827000000E+00 0.  1.
     999902    2    1    2    0    0 -0.43208576646E-02  0.17445311201E-01  0.12944812881E-01  0.10217810299E+01  0.10215409421E+01 0.  0.
     999903    2    3    3    0    0  0.60427002337E-01 -0.40555022017E-01 -0.10526893439E+00  0.12963148303E+00  0.20655275878E-01 0.  0.
         14    1    1    2    0    0  0.43208576646E-02 -0.17445311201E-01 -0.12944812881E-01  0.22148970053E-01  0.00000000000E+00 0.  1.
     999901    1    3    3    0    0 -0.64747860002E-01  0.58000333218E-01  0.11821374727E+00  0.89214954692E+00  0.88000000000E+00 0. -1.
        -11    1    4    4    0    0  0.27484575390E-01 -0.97624080628E-02 -0.53811688696E-01  0.61210011084E-01  0.51100000000E-03 0. -1.
         11    1    4    4    0    0  0.32942426947E-01 -0.30792613954E-01 -0.51457245695E-01  0.68421471942E-01  0.51100000000E-03 0.  1.
</event>
<event>
 8    1  0.1115874E+005  0.1043930E+01  0.7957747E-01            NaN
         13   -1    0    0    0    0  0.00000000000E+00  0.00000000000E+00  0.74505805969E-08  0.10566000000E+00  0.10566000000E+00 0.  1.
     999900   -1    0    0    0    0 -0.00000000000E+00 -0.00000000000E+00 -0.74505805969E-08  0.93827000000E+00  0.93827000000E+00 0.  1.
     999902    2    1    2    0    0  0.31315736442E-02  0.22959114289E-01 -0.46160508372E-02  0.10203029899E+01  0.10200293895E+01 0.  0.
     999903    2    3    3    0    0  0.57552123472E-01 -0.74151847774E-01 -0.86972324559E-01  0.12947489701E+00  0.19718526143E-01 0.  0.
         14    1    1    2    0    0 -0.31315736442E-02 -0.22959114289E-01  0.46160508372E-02  0.23627010132E-01  0.00000000000E+00 0. -1.
     999901    1    3    3    0    0 -0.54420549828E-01  0.97110962063E-01  0.82356273722E-01  0.89082809285E+00  0.88000000000E+00 0. -1.
        -11    1    4    4    0    0  0.32103744775E-01 -0.25700702564E-01 -0.39532640016E-01  0.57046185574E-01  0.51100000000E-03 0. -1.
         11    1    4    4    0    0  0.25448378698E-01 -0.48451145209E-01 -0.47439684543E-01  0.72428711441E-01  0.51100000000E-03 0.  1.
</event>
<event>
 8    1  0.1115874E+005  0.1043930E+01  0.7957747E-01            NaN
         13   -1    0    0    0    0  0.00000000000E+00  0.00000000000E+00  0.74505805969E-08  0.10566000000E+00  0.10566000000E+00 0. -1.
     999900   -1    0    0    0    0 -0.00000000000E+00 -0.00000000000E+00 -0.74505805969E-08  0.93827000000E+00  0.93827000000E+00 0.  1.
     999902    2    1    2    0    0 -0.86892365297E-02 -0.21896274860E-01 -0.60469475261E-03  0.10203648703E+01  0.10200927179E+01 0.  0.
     999903    2    3    3    0    0 -0.11849485005E+00  0.34040744559E-01  0.39300334118E-01  0.13088264208E+00  0.19645558219E-01 0.  0.
         14    1    1    2    0    0  0.86892365297E-02  0.21896274860E-01  0.60469475261E-03  0.23565129746E-01  0.00000000000E+00 0. -1.
     999901    1    3    3    0    0  0.10980561352E+00 -0.55937019419E-01 -0.39905028871E-01  0.88948222817E+00  0.88000000000E+00 0. -1.
        -11    1    4    4    0    0 -0.48698699435E-01  0.43830367667E-02  0.18059491321E-01  0.52126583292E-01  0.51100000000E-03 0. -1.
         11    1    4    4    0    0 -0.69796150617E-01  0.29657707792E-01  0.21240842798E-01  0.78756058791E-01  0.51100000000E-03 0.  1.
</event>
<event>
 8    1  0.1115874E+005  0.1043930E+01  0.7957747E-01            NaN
         13   -1    0    0    0    0  0.00000000000E+00  0.00000000000E+00  0.74505805969E-08  0.10566000000E+00  0.10566000000E+00 0. -1.
     999900   -1    0    0    0    0 -0.00000000000E+00 -0.00000000000E+00 -0.74505805969E-08  0.93827000000E+00  0.93827000000E+00 0. -1.
     999902    2    1    2    0    0 -0.20971065568E-01  0.96357211715E-02  0.59434896637E-02  0.10200981351E+01  0.10198197132E+01 0.  0.
     999903    2    3    3    0    0  0.68658718086E-01 -0.10309803625E+00  0.25612245171E-01  0.12817366629E+00  0.20719000431E-01 0.  0.
         14    1    1    2    0    0  0.20971065568E-01 -0.96357211715E-02 -0.59434896637E-02  0.23831864865E-01  0.00000000000E+00 0.  1.
     999901    1    3    3    0    0 -0.89629783655E-01  0.11273375743E+00 -0.19668755507E-01  0.89192446884E+00  0.88000000000E+00 0. -1.
        -11    1    4    4    0    0  0.53976786141E-01 -0.76389725383E-01  0.27890880996E-01  0.97606587635E-01  0.51100000000E-03 0. -1.
         11    1    4    4    0    0  0.14681931946E-01 -0.26708310871E-01 -0.22786358249E-02  0.30567078655E-01  0.51100000000E-03 0.  1.
</event>
<event>
 8    1  0.1115874E+005  0.1043930E+01  0.7957747E-01            NaN
         13   -1    0    0    0    0  0.00000000000E+00  0.00000000000E+00  0.74505805969E-08  0.10566000000E+00  0.10566000000E+00 0.  1.
     999900   -1    0    0    0    0 -0.00000000000E+00 -0.00000000000E+00 -0.74505805969E-08  0.93827000000E+00  0.93827000000E+00 0.  1.
     999902    2    1    2    0    0 -0.12043311728E-01  0.17676304806E-01  0.10229783130E-01  0.10202204751E+01  0.10199449378E+01 0.  0.
     999903    2    3    3    0    0  0.41393476389E-01 -0.10837867648E+00  0.53651487025E-01  0.12857548238E+00  0.13921753003E-01 0.  0.
         14    1    1    2    0    0  0.12043311728E-01 -0.17676304806E-01 -0.10229783130E-01  0.23709524919E-01  0.00000000000E+00 0. -1.
     999901    1    3    3    0    0 -0.53436788117E-01  0.12605498129E+00 -0.43421703894E-01  0.89164499270E+00  0.88000000000E+00 0. -1.
        -11    1    4    4    0    0  0.30204428103E-01 -0.77136794935E-01  0.31276999805E-01  0.88548881685E-01  0.51100000000E-03 0. -1.
         11    1    4    4    0    0  0.11189048286E-01 -0.31241881548E-01  0.22374487220E-01  0.40026600699E-01  0.51100000000E-03 0.  1.
</event>
<event>
 8    1  0.1115874E+005  0.1043930E+01  0.7957747E-01            NaN
         13   -1    0    0    0    0  0.00000000000E+00  0.00000000000E+00  0.74505805969E-08  0.10566000000E+00  0.10566000000E+00 0.  1.
     999900   -1    0    0    0    0 -0.00000000000E+00 -0.00000000000E+00 -0.74505805969E-08  0.93827000000E+00  0.93827000000E+00 0.  1.
     999902    2    1    2    0    0  0.99395150654E-02 -0.10229261588E-01  0.16916194580E-01  0.10218033330E+01  0.10215637337E+01 0.  0.
     999903    2    3    3    0    0  0.72798414656E-01  0.10770853147E+00  0.83397456348E-03  0.13156785738E+00  0.20215554765E-01 0.  0.
         14    1    1    2    0    0 -0.99395150654E-02  0.10229261588E-01 -0.16916194580E-01  0.22126666976E-01  0.00000000000E+00 0. -1.
     999901    1    3    3    0    0 -0.62858899590E-01 -0.11793779306E+00  0.16082220017E-01  0.89023547564E+00  0.88000000000E+00 0.  1.
        -11    1    4    4    0    0  0.62567956413E-01  0.77408586610E-01 -0.86604644598E-03  0.99538181659E-01  0.51100000000E-03 0.  1.
         11    1    4    4    0    0  0.10230458243E-01  0.30299944862E-01  0.17000210095E-02  0.32029675723E-01  0.51100000000E-03 0. -1.
</event>
<event>
 8    1  0.1115874E+005  0.1043930E+01  0.7957747E-01            NaN
         13   -1    0    0    0    0  0.00000000000E+00  0.00000000000E+00  0.74505805969E-08  0.10566000000E+00  0.10566000000E+00 0.  1.
     999900   -1    0    0    0    0 -0.00000000000E+00 -0.00000000000E+00 -0.74505805969E-08  0.93827000000E+00  0.93827000000E+00 0. -1.
     999902    2    1    2    0    0 -0.50747810942E-02  0.21811454898E-01  0.18957614709E-01  0.10145891731E+01  0.10141648318E+01 0.  0.
     999903    2    3    3    0    0 -0.94833452477E-01  0.35903325338E-01  0.75773439568E-01  0.12808861593E+00  0.19561362630E-01 0.  0.
         14    1    1    2    0    0  0.50747810942E-02 -0.21811454898E-01 -0.18957614709E-01  0.29340826903E-01  0.00000000000E+00 0. -1.
     999901    1    3    3    0    0  0.89758671383E-01 -0.14091870440E-01 -0.56815824859E-01  0.88650055717E+00  0.88000000000E+00 0. -1.
        -11    1    4    4    0    0 -0.50597140936E-01  0.29092317821E-01  0.39514468220E-01  0.70484664621E-01  0.51100000000E-03 0.  1.
         11    1    4    4    0    0 -0.44236311542E-01  0.68110075163E-02  0.36258971349E-01  0.57603951310E-01  0.51100000000E-03 0. -1.
</event>
<event>
 8    1  0.1115874E+005  0.1043930E+01  0.7957747E-01            NaN
         13   -1    0    0    0    0  0.00000000000E+00  0.00000000000E+00  0.74505805969E-08  0.10566000000E+00  0.10566000000E+00 0. -1.
     999900   -1    0    0    0    0 -0.00000000000E+00 -0.00000000000E+00 -0.74505805969E-08  0.93827000000E+00  0.93827000000E+00 0. -1.
     999902    2    1    2    0    0  0.79122122050E-02 -0.10459238366E-01  0.20472776827E-01  0.10196167657E+01  0.10193268444E+01 0.  0.
     999903    2    3    3    0    0 -0.42311528481E-02 -0.26968990411E-01 -0.12301681961E+00  0.12775954762E+00  0.21074510738E-01 0.  0.
         14    1    1    2    0    0 -0.79122122050E-02  0.10459238366E-01 -0.20472776827E-01  0.24313234260E-01  0.00000000000E+00 0.  1.
     999901    1    3    3    0    0  0.12143365053E-01  0.16509752045E-01  0.14348959644E+00  0.89185721812E+00  0.88000000000E+00 0.  1.
        -11    1    4    4    0    0  0.27544286669E-02 -0.26726888965E-01 -0.86574350235E-01  0.90649284116E-01  0.51100000000E-03 0. -1.
         11    1    4    4    0    0 -0.69855815150E-02 -0.24210144549E-03 -0.36442469375E-01  0.37110263504E-01  0.51100000000E-03 0.  1.
</event>
<event>
 8    1  0.1115874E+005  0.1043930E+01  0.7957747E-01            NaN
         13   -1    0    0    0    0  0.00000000000E+00  0.00000000000E+00  0.74505805969E-08  0.10566000000E+00  0.10566000000E+00 0.  1.
     999900   -1    0    0    0    0 -0.00000000000E+00 -0.00000000000E+00 -0.74505805969E-08  0.93827000000E+00  0.93827000000E+00 0.  1.
     999902    2    1    2    0    0 -0.14089857888E-02  0.22358556891E-01  0.50967839112E-02  0.10209546325E+01  0.10206960831E+01 0.  0.
     999903    2    3    3    0    0 -0.92460701672E-01 -0.73660877221E-01 -0.48958887600E-01  0.12942103113E+00  0.19440278698E-01 0.  0.
         14    1    1    2    0    0  0.14089857888E-02 -0.22358556891E-01 -0.50967839112E-02  0.22975367537E-01  0.00000000000E+00 0. -1.
     999901    1    3    3    0    0  0.91051715884E-01  0.96019434112E-01  0.54055671511E-01  0.89153360134E+00  0.88000000000E+00 0. -1.
        -11    1    4    4    0    0 -0.47792694044E-01 -0.36748224880E-01 -0.35375357305E-01  0.69901721447E-01  0.51100000000E-03 0. -1.
         11    1    4    4    0    0 -0.44668007628E-01 -0.36912652340E-01 -0.13583530295E-01  0.59519309678E-01  0.51100000000E-03 0.  1.
</event>
<event>
 8    1  0.1115874E+005  0.1043930E+01  0.7957747E-01            NaN
         13   -1    0    0    0    0  0.00000000000E+00  0.00000000000E+00  0.74505805969E-08  0.10566000000E+00  0.10566000000E+00 0. -1.
     999900   -1    0    0    0    0 -0.00000000000E+00 -0.00000000000E+00 -0.74505805969E-08  0.93827000000E+00  0.93827000000E+00 0.  1.
     999902    2    1    2    0    0 -0.14097985516E-01  0.34249276072E-02 -0.19477400761E-01  0.10196431215E+01  0.10193538359E+01 0.  0.
     999903    2    3    3    0    0  0.95178250150E-01  0.23458817353E-01 -0.82352387301E-01  0.13043228246E+00  0.24928882838E-01 0.  0.
         14    1    1    2    0    0  0.14097985516E-01 -0.34249276072E-02  0.19477400761E-01  0.24286878455E-01  0.00000000000E+00 0.  1.
     999901    1    3    3    0    0 -0.10927623567E+00 -0.20033889745E-01  0.62874986540E-01  0.88921083909E+00  0.88000000000E+00 0. -1.
        -11    1    4    4    0    0  0.49634181525E-01  0.75531950347E-02 -0.27005141834E-01  0.57010012606E-01  0.51100000000E-03 0. -1.
         11    1    4    4    0    0  0.45544068624E-01  0.15905622318E-01 -0.55347245466E-01  0.73422269850E-01  0.51100000000E-03 0.  1.
</event>
<event>
 8    1  0.1115874E+005  0.1043930E+01  0.7957747E-01            NaN
         13   -1    0    0    0    0  0.00000000000E+00  0.00000000000E+00  0.74505805969E-08  0.10566000000E+00  0.10566000000E+00 0.  1.
     999900   -1    0    0    0    0 -0.00000000000E+00 -0.00000000000E+00 -0.74505805969E-08  0.93827000000E+00  0.93827000000E+00 0.  1.
     999902    2    1    2    0    0  0.45870028024E-02 -0.20303307147E-01  0.11097819997E-01  0.10203413060E+01  0.10200686027E+01 0.  0.
     999903    2    3    3    0    0 -0.10797552404E+00 -0.32901172250E-01 -0.61332770219E-01  0.13013053374E+00  0.20761651726E-01 0.  0.
         14    1    1    2    0    0 -0.45870028024E-02  0.20303307147E-01 -0.11097819997E-01  0.23588693997E-01  0.00000000000E+00 0.  1.
     999901    1    3    3    0    0  0.11256252684E+00  0.12597865103E-01  0.72430590217E-01  0.89021077226E+00  0.88000000000E+00 0. -1.
        -11    1    4    4    0    0 -0.78907149685E-01 -0.15939208230E-01 -0.49225966731E-01  0.94360232895E-01  0.51100000000E-03 0. -1.
         11    1    4    4    0    0 -0.29068374351E-01 -0.16961964020E-01 -0.12106803489E-01  0.35770300845E-01  0.51100000000E-03 0.  1.
</event>
<event>
 8    1  0.1115874E+005  0.1043930E+01  0.7957747E-01            NaN
         13   -1    0    0    0    0  0.00000000000E+00  0.00000000000E+00  0.74505805969E-08  0.10566000000E+00  0.10566000000E+00 0. -1.
     999900   -1    0    0    0    0 -0.00000000000E+00 -0.00000000000E+00 -0.74505805969E-08  0.93827000000E+00  0.93827000000E+00 0.  1.
     999902    2    1    2    0    0 -0.11243119436E-01  0.10582212075E-01  0.16817490603E-01  0.10210997802E+01  0.10208445240E+01 0.  0.
     999903    2    3    3    0    0 -0.94980111346E-01  0.85399792090E-01  0.34411903606E-01  0.13378973433E+00  0.20029175258E-01 0.  0.
         14    1    1    2    0    0  0.11243119436E-01 -0.10582212075E-01 -0.16817490603E-01  0.22830219824E-01  0.00000000000E+00 0.  1.
     999901    1    3    3    0    0  0.83736991909E-01 -0.74817580015E-01 -0.17594413004E-01  0.88731004585E+00  0.88000000000E+00 0. -1.
        -11    1    4    4    0    0 -0.40768362819E-01  0.24309532949E-01  0.15685844441E-01  0.49993195897E-01  0.51100000000E-03 0.  1.
         11    1    4    4    0    0 -0.54211748526E-01  0.61090259141E-01  0.18726059165E-01  0.83796538431E-01  0.51100000000E-03 0. -1.
</event>
<event>
 8    1  0.1115874E+005  0.1043930E+01  0.7957747E-01            NaN
         13   -1    0    0    0    0  0.00000000000E+00  0.00000000000E+00  0.74505805969E-08  0.10566000000E+00  0.10566000000E+00 0.  1.
     999900   -1    0    0    0    0 -0.00000000000E+00 -0.00000000000E+00 -0.74505805969E-08  0.93827000000E+00  0.93827000000E+00 0.  1.
     999902    2    1    2    0    0 -0.17379853894E-01 -0.13236810458E-01  0.81933119168E-02  0.10205975584E+01  0.10203308156E+01 0.  0.
     999903    2    3    3    0    0  0.12649084481E+00 -0.10870317502E-01  0.12594294394E-02  0.12888434384E+00  0.22169580531E-01 0.  0.
         14    1    1    2    0    0  0.17379853894E-01  0.13236810458E-01 -0.81933119168E-02  0.23332441634E-01  0.00000000000E+00 0. -1.
     999901    1    3    3    0    0 -0.14387069870E+00 -0.23664929555E-02  0.69338824773E-02  0.89171321453E+00  0.88000000000E+00 0. -1.
        -11    1    4    4    0    0  0.82883693278E-01 -0.36086544756E-02  0.10777190906E-01  0.83660850840E-01  0.51100000000E-03 0.  1.
         11    1    4    4    0    0  0.43607151533E-01 -0.72616630264E-02 -0.95177614667E-02  0.45223492999E-01  0.51100000000E-03 0. -1.
</event>
<event>
 8    1  0.1115874E+005  0.1043930E+01  0.7957747E-01            NaN
         13   -1    0    0    0    0  0.00000000000E+00  0.00000000000E+00  0.74505805969E-08  0.10566000000E+00  0.10566000000E+00 0.  1.
     999900   -1    0    0    0    0 -0.00000000000E+00 -0.00000000000E+00 -0.74505805969E-08  0.93827000000E+00  0.93827000000E+00 0.  1.
     999902    2    1    2    0    0 -0.17133153910E-01  0.68912720366E-02 -0.14856343564E-01  0.10202288284E+01  0.10199534875E+01 0.  0.
     999903    2    3    3    0    0  0.83874912092E-02 -0.90092148479E-01  0.88753615955E-01  0.12849337942E+00  0.21128156165E-01 0.  0.
         14    1    1    2    0    0  0.17133153910E-01 -0.68912720366E-02  0.14856343564E-01  0.23701171643E-01  0.00000000000E+00 0.  1.
     999901    1    3    3    0    0 -0.25520645119E-01  0.96983420515E-01 -0.10360995952E+00  0.89173544894E+00  0.88000000000E+00 0.  1.
        -11    1    4    4    0    0  0.52389406694E-02 -0.14068225330E-01  0.25271647524E-01  0.29398618213E-01  0.51100000000E-03 0. -1.
         11    1    4    4    0    0  0.31485505398E-02 -0.76023923149E-01  0.63481968431E-01  0.99094761205E-01  0.51100000000E-03 0.  1.
</event>
<event>
 7    1  0.1115874E+005  0.1043930E+01  0.7957747E-01            NaN
         13   -1    0    0    0    0  0.00000000000E+00  0.00000000000E+00  0.74505805969E-08  0.10566000000E+00  0.10566000000E+00 0.  1.
     999900   -1    0    0    0    0 -0.00000000000E+00 -0.00000000000E+00 -0.74505805969E-08  0.93827000000E+00  0.93827000000E+00 0.  1.
     999903    2    1    2    0    0 -0.10239403574E+00  0.13616137357E-01  0.11705637268E-01  0.10561027989E+00  0.18616431545E-01 0.  0.
         14    1    1    2    0    0  0.82754814609E-02  0.35131144166E-01  0.35603137065E-01  0.50697773646E-01  0.00000000000E+00 0. -1.
     999901    1    1    2    0    0  0.94118554277E-01 -0.48747281523E-01 -0.47308774333E-01  0.88762194646E+00  0.88000000000E+00 0.  1.
        -11    1    3    3    0    0 -0.58357300507E-01  0.33689694623E-03  0.93534799227E-03  0.58368005096E-01  0.51100000000E-03 0.  1.
         11    1    3    3    0    0 -0.44036735231E-01  0.13279240411E-01  0.10770289276E-01  0.47242274794E-01  0.51100000000E-03 0. -1.
</event>
<event>
 8    1  0.1115874E+005  0.1043930E+01  0.7957747E-01            NaN
         13   -1    0    0    0    0  0.00000000000E+00  0.00000000000E+00  0.74505805969E-08  0.10566000000E+00  0.10566000000E+00 0.  1.
     999900   -1    0    0    0    0 -0.00000000000E+00 -0.00000000000E+00 -0.74505805969E-08  0.93827000000E+00  0.93827000000E+00 0. -1.
     999902    2    1    2    0    0 -0.15038442541E-01  0.11255660640E-01 -0.17462346973E-01  0.10182828128E+01  0.10179597775E+01 0.  0.
     999903    2    3    3    0    0  0.55012605459E-01  0.22813335916E-01  0.10958264357E+00  0.12632924963E+00  0.20096977027E-01 0.  0.
         14    1    1    2    0    0  0.15038442541E-01 -0.11255660640E-01  0.17462346973E-01  0.25647187220E-01  0.00000000000E+00 0.  1.
     999901    1    3    3    0    0 -0.70051048000E-01 -0.11557675275E-01 -0.12704499055E+00  0.89195356314E+00  0.88000000000E+00 0. -1.
        -11    1    4    4    0    0  0.10913914920E-01  0.12674601659E-01  0.20948074892E-01  0.26811229527E-01  0.51100000000E-03 0.  1.
         11    1    4    4    0    0  0.44098690539E-01  0.10138734256E-01  0.88634568683E-01  0.99518020108E-01  0.51100000000E-03 0. -1.
</event>
<event>
 8    1  0.1115874E+005  0.1043930E+01  0.7957747E-01            NaN
         13   -1    0    0    0    0  0.00000000000E+00  0.00000000000E+00  0.74505805969E-08  0.10566000000E+00  0.10566000000E+00 0. -1.
     999900   -1    0    0    0    0 -0.00000000000E+00 -0.00000000000E+00 -0.74505805969E-08  0.93827000000E+00  0.93827000000E+00 0. -1.
     999902    2    1    2    0    0 -0.78622770420E-02  0.30050705821E-02 -0.23255079662E-01  0.10191985508E+01  0.10188984451E+01 0.  0.
     999903    2    3    3    0    0 -0.93472610146E-01  0.30315012685E-01 -0.86123074618E-01  0.13239116085E+00  0.21309778246E-01 0.  0.
         14    1    1    2    0    0  0.78622770420E-02 -0.30050705821E-02  0.23255079662E-01  0.24731449201E-01  0.00000000000E+00 0. -1.
     999901    1    3    3    0    0  0.85610333104E-01 -0.27309942103E-01  0.62867994956E-01  0.88680738995E+00  0.88000000000E+00 0.  1.
        -11    1    4    4    0    0 -0.82646328508E-02  0.28167579690E-02 -0.17562321541E-01  0.19619748737E-01  0.51100000000E-03 0. -1.
         11    1    4    4    0    0 -0.85207977295E-01  0.27498254716E-01 -0.68560753077E-01  0.11277141212E+00  0.51100000000E-03 0.  1.
</event>
<event>
 8    1  0.1115874E+005  0.1043930E+01  0.7957747E-01            NaN
         13   -1    0    0    0    0  0.00000000000E+00  0.00000000000E+00  0.74505805969E-08  0.10566000000E+00  0.10566000000E+00 0.  1.
     999900   -1    0    0    0    0 -0.00000000000E+00 -0.00000000000E+00 -0.74505805969E-08  0.93827000000E+00  0.93827000000E+00 0. -1.
     999902    2    1    2    0    0  0.17710224771E-01  0.14288397127E-01  0.82419309038E-02  0.10197279385E+01  0.10194406941E+01 0.  0.
     999903    2    3    3    0    0 -0.11487388226E+00  0.30349685080E-01  0.45941112428E-01  0.12885323428E+00  0.19376737699E-01 0.  0.
         14    1    1    2    0    0 -0.17710224771E-01 -0.14288397127E-01 -0.82419309038E-02  0.24202061460E-01  0.00000000000E+00 0. -1.
     999901    1    3    3    0    0  0.13258410703E+00 -0.16061287953E-01 -0.37699181524E-01  0.89087470426E+00  0.88000000000E+00 0.  1.
        -11    1    4    4    0    0 -0.53112315268E-01  0.44176118938E-02  0.22971533622E-01  0.58037796356E-01  0.51100000000E-03 0. -1.
         11    1    4    4    0    0 -0.61761566988E-01  0.25932073186E-01  0.22969578805E-01  0.70815437922E-01  0.51100000000E-03 0.  1.
</event>
<event>
 8    1  0.1115874E+005  0.1043930E+01  0.7957747E-01            NaN
         13   -1    0    0    0    0  0.00000000000E+00  0.00000000000E+00  0.74505805969E-08  0.10566000000E+00  0.10566000000E+00 0. -1.
     999900   -1    0    0    0    0 -0.00000000000E+00 -0.00000000000E+00 -0.74505805969E-08  0.93827000000E+00  0.93827000000E+00 0. -1.
     999902    2    1    2    0    0  0.86839090907E-02 -0.92457605991E-02 -0.18559071361E-01  0.10214503760E+01  0.10212029853E+01 0.  0.
     999903    2    3    3    0    0 -0.47482851405E-01 -0.85228912229E-01 -0.89058982721E-01  0.13358868528E+00  0.19895873294E-01 0.  0.
         14    1    1    2    0    0 -0.86839090907E-02  0.92457605991E-02  0.18559071361E-01  0.22479624017E-01  0.00000000000E+00 0. -1.
     999901    1    3    3    0    0  0.56166760496E-01  0.75983151630E-01  0.70499911360E-01  0.88786169070E+00  0.88000000000E+00 0.  1.
        -11    1    4    4    0    0 -0.29058144471E-01 -0.46975005316E-01 -0.62913229525E-01  0.83721935326E-01  0.51100000000E-03 0. -1.
         11    1    4    4    0    0 -0.18424706934E-01 -0.38253906913E-01 -0.26145753197E-01  0.49866749954E-01  0.51100000000E-03 0.  1.
</event>
<event>
 8    1  0.1115874E+005  0.1043930E+01  0.7957747E-01            NaN
         13   -1    0    0    0    0  0.00000000000E+00  0.00000000000E+00  0.74505805969E-08  0.10566000000E+00  0.10566000000E+00 0. -1.
     999900   -1    0    0    0    0 -0.00000000000E+00 -0.00000000000E+00 -0.74505805969E-08  0.93827000000E+00  0.93827000000E+00 0. -1.
     999902    2    1    2    0    0  0.13984315412E-01 -0.17948750092E-01 -0.58854225906E-02  0.10204277255E+01  0.10201570399E+01 0.  0.
     999903    2    3    3    0    0  0.78034672667E-01 -0.62015650648E-01  0.84541886423E-01  0.13238412398E+00  0.21044587398E-01 0.  0.
         14    1    1    2    0    0 -0.13984315412E-01  0.17948750092E-01  0.58854225906E-02  0.23502274496E-01  0.00000000000E+00 0. -1.
     999901    1    3    3    0    0 -0.64050357255E-01  0.44066900556E-01 -0.90427309014E-01  0.88804360152E+00  0.88000000000E+00 0. -1.
        -11    1    4    4    0    0  0.63281210725E-01 -0.57697476335E-01  0.64980231344E-01  0.10749977671E+00  0.51100000000E-03 0.  1.
         11    1    4    4    0    0  0.14753461942E-01 -0.43181743132E-02  0.19561655079E-01  0.24884347271E-01  0.51100000000E-03 0. -1.
</event>
<event>
 8    1  0.1115874E+005  0.1043930E+01  0.7957747E-01            NaN
         13   -1    0    0    0    0  0.00000000000E+00  0.00000000000E+00  0.74505805969E-08  0.10566000000E+00  0.10566000000E+00 0. -1.
     999900   -1    0    0    0    0 -0.00000000000E+00 -0.00000000000E+00 -0.74505805969E-08  0.93827000000E+00  0.93827000000E+00 0.  1.
     999902    2    1    2    0    0  0.12812153155E-01  0.88672844759E-02 -0.17307648570E-01  0.10206419193E+01  0.10203762016E+01 0.  0.
     999903    2    3    3    0    0  0.11189614778E+00  0.63213752968E-01 -0.29536065392E-01  0.13333097563E+00  0.19698818510E-01 0.  0.
         14    1    1    2    0    0 -0.12812153155E-01 -0.88672844759E-02  0.17307648570E-01  0.23288080674E-01  0.00000000000E+00 0. -1.
     999901    1    3    3    0    0 -0.99083994625E-01 -0.54346468493E-01  0.12228416823E-01  0.88731094370E+00  0.88000000000E+00 0. -1.
        -11    1    4    4    0    0  0.46948923747E-01  0.35947281860E-01 -0.18979302995E-01  0.62103812904E-01  0.51100000000E-03 0. -1.
         11    1    4    4    0    0  0.64947224033E-01  0.27266471109E-01 -0.10556762397E-01  0.71227162724E-01  0.51100000000E-03 0.  1.
</event>
<event>
 8    1  0.1115874E+005  0.1043930E+01  0.7957747E-01            NaN
         13   -1    0    0    0    0  0.00000000000E+00  0.00000000000E+00  0.74505805969E-08  0.10566000000E+00  0.10566000000E+00 0. -1.
     999900   -1    0    0    0    0 -0.00000000000E+00 -0.00000000000E+00 -0.74505805969E-08  0.93827000000E+00  0.93827000000E+00 0. -1.
     999902    2    1    2    0    0  0.68430181541E-02 -0.17567846084E-01 -0.22719547862E-01  0.10144065522E+01  0.10139768337E+01 0.  0.
     999903    2    3    3    0    0 -0.44067031156E-01  0.86887610072E-01  0.70800010881E-01  0.12185477036E+00  0.18562960424E-01 0.  0.
         14    1    1    2    0    0 -0.68430181541E-02  0.17567846084E-01  0.22719547862E-01  0.29523447776E-01  0.00000000000E+00 0. -1.
     999901    1    3    3    0    0  0.50910049310E-01 -0.10445545616E+00 -0.93519558743E-01  0.89255178186E+00  0.88000000000E+00 0. -1.
        -11    1    4    4    0    0 -0.18670975995E-01  0.56176175119E-01  0.39339302915E-01  0.71078898912E-01  0.51100000000E-03 0.  1.
         11    1    4    4    0    0 -0.25396055161E-01  0.30711434953E-01  0.31460707966E-01  0.50775871448E-01  0.51100000000E-03 0. -1.
</event>
<event>
 8    1  0.1115874E+005  0.1043930E+01  0.7957747E-01            NaN
         13   -1    0    0    0    0  0.00000000000E+00  0.00000000000E+00  0.74505805969E-08  0.10566000000E+00  0.10566000000E+00 0.  1.
     999900   -1    0    0    0    0 -0.00000000000E+00 -0.00000000000E+00 -0.74505805969E-08  0.93827000000E+00  0.93827000000E+00 0. -1.
     999902    2    1    2    0    0  0.21736207450E-01 -0.67020113745E-02  0.64015305050E-02  0.10203003732E+01  0.10200267115E+01 0.  0.
     999903    2    3    3    0    0 -0.85671560775E-01  0.56834656728E-01 -0.73331826669E-01  0.12792671539E+00  0.20442435705E-01 0.  0.
         14    1    1    2    0    0 -0.21736207450E-01  0.67020113745E-02 -0.64015305050E-02  0.23629626818E-01  0.00000000000E+00 0. -1.
     999901    1    3    3    0    0  0.10740776823E+00 -0.63536668102E-01  0.79733357174E-01  0.89237365779E+00  0.88000000000E+00 0.  1.
        -11    1    4    4    0    0 -0.37119953465E-01  0.24187523868E-01 -0.19458006979E-01  0.48392173052E-01  0.51100000000E-03 0. -1.
         11    1    4    4    0    0 -0.48551607311E-01  0.32647132860E-01 -0.53873819690E-01  0.79534542341E-01  0.51100000000E-03 0.  1.
</event>
<event>
 8    1  0.1115874E+005  0.1043930E+01  0.7957747E-01            NaN
         13   -1    0    0    0    0  0.00000000000E+00  0.00000000000E+00  0.74505805969E-08  0.10566000000E+00  0.10566000000E+00 0.  1.
     999900   -1    0    0    0    0 -0.00000000000E+00 -0.00000000000E+00 -0.74505805969E-08  0.93827000000E+00  0.93827000000E+00 0. -1.
     999902    2    1    2    0    0 -0.10128372829E-01  0.13017175120E-01  0.16829898342E-01  0.10203656994E+01  0.10200935664E+01 0.  0.
     999903    2    3    3    0    0 -0.12967108043E+00 -0.26112896211E-02 -0.10034118644E-01  0.13173957822E+00  0.20814057748E-01 0.  0.
         14    1    1    2    0    0  0.10128372829E-01 -0.13017175120E-01 -0.16829898342E-01  0.23564300593E-01  0.00000000000E+00 0.  1.
     999901    1    3    3    0    0  0.11954270760E+00  0.15628464741E-01  0.26864016986E-01  0.88862612119E+00  0.88000000000E+00 0. -1.
        -11    1    4    4    0    0 -0.63755742877E-01 -0.10231692481E-01  0.35718616932E-03  0.64574538200E-01  0.51100000000E-03 0.  1.
         11    1    4    4    0    0 -0.65915337549E-01  0.76204028599E-02 -0.10391304813E-01  0.67165040018E-01  0.51100000000E-03 0. -1.
</event>
<event>
 8    1  0.1115874E+005  0.1043930E+01  0.7957747E-01            NaN
         13   -1    0    0    0    0  0.00000000000E+00  0.00000000000E+00  0.74505805969E-08  0.10566000000E+00  0.10566000000E+00 0. -1.
     999900   -1    0    0    0    0 -0.00000000000E+00 -0.00000000000E+00 -0.74505805969E-08  0.93827000000E+00  0.93827000000E+00 0. -1.
     999902    2    1    2    0    0  0.31839566376E-01  0.35253149179E-02 -0.82043917447E-02  0.10108619206E+01  0.10103209018E+01 0.  0.
     999903    2    3    3    0    0  0.11561035846E+00  0.24818360078E-02  0.44233605462E-01  0.12532909906E+00  0.19464242215E-01 0.  0.
         14    1    1    2    0    0 -0.31839566376E-01 -0.35253149179E-02  0.82043917447E-02  0.33068079414E-01  0.00000000000E+00 0.  1.
     999901    1    3    3    0    0 -0.83770792084E-01  0.10434789101E-02 -0.52437997206E-01  0.88553282153E+00  0.88000000000E+00 0. -1.
        -11    1    4    4    0    0  0.52407227119E-01  0.24445868427E-02  0.98721294120E-02  0.53387391013E-01  0.51100000000E-03 0. -1.
         11    1    4    4    0    0  0.63203131341E-01  0.37249165107E-04  0.34361476050E-01  0.71941708043E-01  0.51100000000E-03 0.  1.
</event>
<event>
 8    1  0.1115874E+005  0.1043930E+01  0.7957747E-01            NaN
         13   -1    0    0    0    0  0.00000000000E+00  0.00000000000E+00  0.74505805969E-08  0.10566000000E+00  0.10566000000E+00 0.  1.
     999900   -1    0    0    0    0 -0.00000000000E+00 -0.00000000000E+00 -0.74505805969E-08  0.93827000000E+00  0.93827000000E+00 0. -1.
     999902    2    1    2    0    0  0.61387336626E-02 -0.19448343890E-01  0.11895750774E-01  0.10203200229E+01  0.10200468216E+01 0.  0.
     999903    2    3    3    0    0 -0.11711624150E+00  0.30609755478E-01  0.42311787431E-01  0.12980178195E+00  0.20125707199E-01 0.  0.
         14    1    1    2    0    0 -0.61387336626E-02  0.19448343890E-01 -0.11895750774E-01  0.23609977076E-01  0.00000000000E+00 0. -1.
     999901    1    3    3    0    0  0.12325497516E+00 -0.50058099368E-01 -0.30416036657E-01  0.89051824097E+00  0.88000000000E+00 0.  1.
        -11    1    4    4    0    0 -0.53607046037E-01  0.21276515313E-01  0.12464263233E-01  0.59008681290E-01  0.51100000000E-03 0.  1.
         11    1    4    4    0    0 -0.63509195460E-01  0.93332401645E-02  0.29847524198E-01  0.70793100664E-01  0.51100000000E-03 0. -1.
</event>
<event>
 8    1  0.1115874E+005  0.1043930E+01  0.7957747E-01            NaN
         13   -1    0    0    0    0  0.00000000000E+00  0.00000000000E+00  0.74505805969E-08  0.10566000000E+00  0.10566000000E+00 0.  1.
     999900   -1    0    0    0    0 -0.00000000000E+00 -0.00000000000E+00 -0.74505805969E-08  0.93827000000E+00  0.93827000000E+00 0. -1.
     999902    2    1    2    0    0 -0.22810617194E-01 -0.67006866625E-02  0.17014513556E-02  0.10200947657E+01  0.10198162641E+01 0.  0.
     999903    2    3    3    0    0  0.43822170883E-02 -0.90931203811E-01  0.92003909865E-01  0.13105665386E+00  0.20577644100E-01 0.  0.
         14    1    1    2    0    0  0.22810617194E-01  0.67006866625E-02 -0.17014513556E-02  0.23835234323E-01  0.00000000000E+00 0.  1.
     999901    1    3    3    0    0 -0.27192834282E-01  0.84230517149E-01 -0.90302458509E-01  0.88903811182E+00  0.88000000000E+00 0. -1.
        -11    1    4    4    0    0 -0.10209965347E-02 -0.68535127585E-01  0.79019047793E-01  0.10460581811E+00  0.51100000000E-03 0. -1.
         11    1    4    4    0    0  0.54032136230E-02 -0.22396076226E-01  0.12984862071E-01  0.26450835749E-01  0.51100000000E-03 0.  1.
</event>
<event>
 8    1  0.1115874E+005  0.1043930E+01  0.7957747E-01            NaN
         13   -1    0    0    0    0  0.00000000000E+00  0.00000000000E+00  0.74505805969E-08  0.10566000000E+00  0.10566000000E+00 0. -1.
     999900   -1    0    0    0    0 -0.00000000000E+00 -0.00000000000E+00 -0.74505805969E-08  0.93827000000E+00  0.93827000000E+00 0. -1.
     999902    2    1    2    0    0  0.57209701017E-02  0.15058692527E-01  0.17242987869E-01  0.10203330860E+01  0.10200601904E+01 0.  0.
     999903    2    3    3    0    0  0.10436117638E+00 -0.15580816413E-01  0.77905199696E-01  0.13221790555E+00  0.16683447918E-01 0.  0.
         14    1    1    2    0    0 -0.57209701017E-02 -0.15058692527E-01 -0.17242987869E-01  0.23596913997E-01  0.00000000000E+00 0.  1.
     999901    1    3    3    0    0 -0.98640206274E-01  0.30639508940E-01 -0.60662211827E-01  0.88811518045E+00  0.88000000000E+00 0.  1.
        -11    1    4    4    0    0  0.67779929752E-01 -0.21627739526E-02  0.51302773844E-01  0.85035476087E-01  0.51100000000E-03 0.  1.
         11    1    4    4    0    0  0.36581246624E-01 -0.13418042461E-01  0.26602425852E-01  0.47182429466E-01  0.51100000000E-03 0. -1.
</event>
<event>
 8    1  0.1115874E+005  0.1043930E+01  0.7957747E-01            NaN
         13   -1    0    0    0    0  0.00000000000E+00  0.00000000000E+00  0.74505805969E-08  0.10566000000E+00  0.10566000000E+00 0.  1.
     999900   -1    0    0    0    0 -0.00000000000E+00 -0.00000000000E+00 -0.74505805969E-08  0.93827000000E+00  0.93827000000E+00 0. -1.
     999902    2    1    2    0    0  0.23259871766E-01 -0.14708678324E-02  0.54885817392E-02  0.10199861153E+01  0.10197050386E+01 0.  0.
     999903    2    3    3    0    0  0.94948822203E-01  0.81782878239E-01  0.38704924998E-01  0.13253255743E+00  0.19054908799E-01 0.  0.
         14    1    1    2    0    0 -0.23259871766E-01  0.14708678324E-02 -0.54885817392E-02  0.23943884736E-01  0.00000000000E+00 0.  1.
     999901    1    3    3    0    0 -0.71688950437E-01 -0.83253746072E-01 -0.33216343259E-01  0.88745355783E+00  0.88000000000E+00 0.  1.
        -11    1    4    4    0    0  0.56477331557E-01  0.36189075988E-01  0.21586662402E-01  0.70466895173E-01  0.51100000000E-03 0.  1.
         11    1    4    4    0    0  0.38471490646E-01  0.45593802251E-01  0.17118262596E-01  0.62065662258E-01  0.51100000000E-03 0. -1.
</event>
<event>
 8    1  0.1115874E+005  0.1043930E+01  0.7957747E-01            NaN
         13   -1    0    0    0    0  0.00000000000E+00  0.00000000000E+00  0.74505805969E-08  0.10566000000E+00  0.10566000000E+00 0. -1.
     999900   -1    0    0    0    0 -0.00000000000E+00 -0.00000000000E+00 -0.74505805969E-08  0.93827000000E+00  0.93827000000E+00 0. -1.
     999902    2    1    2    0    0  0.16379388591E-01  0.16284508101E-01 -0.35987754182E-02  0.10205543554E+01  0.10202866125E+01 0.  0.
     999903    2    3    3    0    0 -0.34900440794E-01  0.12091828872E+00 -0.35331565388E-01  0.13230618126E+00  0.20428724236E-01 0.  0.
         14    1    1    2    0    0 -0.16379388591E-01 -0.16284508101E-01  0.35987754182E-02  0.23375644573E-01  0.00000000000E+00 0. -1.
     999901    1    3    3    0    0  0.51279829385E-01 -0.10463378061E+00  0.31732789970E-01  0.88824817416E+00  0.88000000000E+00 0.  1.
        -11    1    4    4    0    0 -0.35260442867E-02  0.37003345898E-01 -0.39702849035E-02  0.37385891445E-01  0.51100000000E-03 0.  1.
         11    1    4    4    0    0 -0.31374396507E-01  0.83914942818E-01 -0.31361280485E-01  0.94920289817E-01  0.51100000000E-03 0. -1.
</event>
<event>
 8    1  0.1115874E+005  0.1043930E+01  0.7957747E-01            NaN
         13   -1    0    0    0    0  0.00000000000E+00  0.00000000000E+00  0.74505805969E-08  0.10566000000E+00  0.10566000000E+00 0. -1.
     999900   -1    0    0    0    0 -0.00000000000E+00 -0.00000000000E+00 -0.74505805969E-08  0.93827000000E+00  0.93827000000E+00 0.  1.
     999902    2    1    2    0    0 -0.18997197180E-01 -0.14325617389E-01 -0.86293126722E-02  0.10186202815E+01  0.10183057969E+01 0.  0.
     999903    2    3    3    0    0 -0.12752444924E-01  0.63722438132E-01 -0.10998796475E+00  0.12934862881E+00  0.20261821546E-01 0.  0.
         14    1    1    2    0    0  0.18997197180E-01  0.14325617389E-01  0.86293126722E-02  0.25309718519E-01  0.00000000000E+00 0. -1.
     999901    1    3    3    0    0 -0.62447522566E-02 -0.78048055521E-01  0.10135865207E+00  0.88927165268E+00  0.88000000000E+00 0. -1.
        -11    1    4    4    0    0 -0.13662575896E-02  0.48676559037E-01 -0.71895612341E-01  0.86836134497E-01  0.51100000000E-03 0.  1.
         11    1    4    4    0    0 -0.11386187334E-01  0.15045879095E-01 -0.38092352404E-01  0.42512494310E-01  0.51100000000E-03 0. -1.
</event>
<event>
 8    1  0.1115874E+005  0.1043930E+01  0.7957747E-01            NaN
         13   -1    0    0    0    0  0.00000000000E+00  0.00000000000E+00  0.74505805969E-08  0.10566000000E+00  0.10566000000E+00 0. -1.
     999900   -1    0    0    0    0 -0.00000000000E+00 -0.00000000000E+00 -0.74505805969E-08  0.93827000000E+00  0.93827000000E+00 0.  1.
     999902    2    1    2    0    0 -0.74568629248E-02  0.21242691075E-02 -0.21960376698E-01  0.10206410441E+01  0.10203753061E+01 0.  0.
     999903    2    3    3    0    0  0.63941114006E-02 -0.11288577418E+00 -0.64944463090E-01  0.13200906668E+00  0.20604070660E-01 0.  0.
         14    1    1    2    0    0  0.74568629248E-02 -0.21242691075E-02  0.21960376698E-01  0.23288955937E-01  0.00000000000E+00 0. -1.
     999901    1    3    3    0    0 -0.13850974325E-01  0.11501004328E+00  0.42984086392E-01  0.88863197738E+00  0.88000000000E+00 0.  1.
        -11    1    4    4    0    0  0.46673861953E-02 -0.45013646978E-01 -0.37503434543E-01  0.58777390480E-01  0.51100000000E-03 0.  1.
         11    1    4    4    0    0  0.17267252053E-02 -0.67872127197E-01 -0.27441028547E-01  0.73231676199E-01  0.51100000000E-03 0. -1.
</event>
<event>
 8    1  0.1115874E+005  0.1043930E+01  0.7957747E-01            NaN
         13   -1    0    0    0    0  0.00000000000E+00  0.00000000000E+00  0.74505805969E-08  0.10566000000E+00  0.10566000000E+00 0. -1.
     999900   -1    0    0    0    0 -0.00000000000E+00 -0.00000000000E+00 -0.74505805969E-08  0.93827000000E+00  0.93827000000E+00 0. -1.
     999902    2    1    2    0    0  0.49660870131E-02 -0.23413548096E-02  0.19831740462E-01  0.10233522962E+01  0.10231453857E+01 0.  0.
     999903    2    3    3    0    0 -0.14897563411E-01 -0.90003454494E-01  0.97958332561E-01  0.13533035240E+00  0.19897490979E-01 0.  0.
         14    1    1    2    0    0 -0.49660870131E-02  0.23413548096E-02 -0.19831740462E-01  0.20577703767E-01  0.00000000000E+00 0.  1.
     999901    1    3    3    0    0  0.19863650424E-01  0.87662099684E-01 -0.78126592099E-01  0.88802194383E+00  0.88000000000E+00 0. -1.
        -11    1    4    4    0    0 -0.33458615728E-02 -0.60268493023E-01  0.53844791134E-01  0.80888866318E-01  0.51100000000E-03 0. -1.
         11    1    4    4    0    0 -0.11551701838E-01 -0.29734961471E-01  0.44113541427E-01  0.54441486086E-01  0.51100000000E-03 0.  1.
</event>
<event>
 8    1  0.1115874E+005  0.1043930E+01  0.7957747E-01            NaN
         13   -1    0    0    0    0  0.00000000000E+00  0.00000000000E+00  0.74505805969E-08  0.10566000000E+00  0.10566000000E+00 0. -1.
     999900   -1    0    0    0    0 -0.00000000000E+00 -0.00000000000E+00 -0.74505805969E-08  0.93827000000E+00  0.93827000000E+00 0.  1.
     999902    2    1    2    0    0  0.19819230890E-01  0.92390451521E-02  0.95037322069E-02  0.10200871228E+01  0.10198084405E+01 0.  0.
     999903    2    3    3    0    0  0.10193139363E-01  0.12846406356E+00  0.19932980302E-01  0.13193396264E+00  0.20058192225E-01 0.  0.
         14    1    1    2    0    0 -0.19819230890E-01 -0.92390451521E-02 -0.95037322069E-02  0.23842877223E-01  0.00000000000E+00 0.  1.
     999901    1    3    3    0    0  0.96260915279E-02 -0.11922501841E+00 -0.10429248095E-01  0.88815316014E+00  0.88000000000E+00 0.  1.
        -11    1    4    4    0    0  0.13365672336E-02  0.93624828388E-01  0.76713115544E-02  0.93949481343E-01  0.51100000000E-03 0. -1.
         11    1    4    4    0    0  0.88565721289E-02  0.34839235177E-01  0.12261668748E-01  0.37984481292E-01  0.51100000000E-03 0.  1.
</event>
<event>
 8    1  0.1115874E+005  0.1043930E+01  0.7957747E-01            NaN
         13   -1    0    0    0    0  0.00000000000E+00  0.00000000000E+00  0.74505805969E-08  0.10566000000E+00  0.10566000000E+00 0.  1.
     999900   -1    0    0    0    0 -0.00000000000E+00 -0.00000000000E+00 -0.74505805969E-08  0.93827000000E+00  0.93827000000E+00 0. -1.
     999902    2    1    2    0    0  0.16524225774E-01 -0.54491849985E-02  0.15835038538E-01  0.10204035872E+01  0.10201323388E+01 0.  0.
     999903    2    3    3    0    0 -0.23590704513E-01  0.42252537165E-01  0.12124501028E+00  0.13192402970E+00  0.19021010958E-01 0.  0.
         14    1    1    2    0    0 -0.16524225774E-01  0.54491849985E-02 -0.15835038538E-01  0.23526412817E-01  0.00000000000E+00 0.  1.
     999901    1    3    3    0    0  0.40114930286E-01 -0.47701722164E-01 -0.10540997174E+00  0.88847955749E+00  0.88000000000E+00 0. -1.
        -11    1    4    4    0    0 -0.12453573689E-01  0.36544017627E-01  0.80200085076E-01  0.89010513363E-01  0.51100000000E-03 0. -1.
         11    1    4    4    0    0 -0.11137130824E-01  0.57085195381E-02  0.41044925202E-01  0.42913516334E-01  0.51100000000E-03 0.  1.
</event>
<event>
 8    1  0.1115874E+005  0.1043930E+01  0.7957747E-01            NaN
         13   -1    0    0    0    0  0.00000000000E+00  0.00000000000E+00  0.74505805969E-08  0.10566000000E+00  0.10566000000E+00 0.  1.
     999900   -1    0    0    0    0 -0.00000000000E+00 -0.00000000000E+00 -0.74505805969E-08  0.93827000000E+00  0.93827000000E+00 0.  1.
     999902    2    1    2    0    0 -0.75653630750E-02 -0.13758499764E-01  0.17719202979E-01  0.10202550937E+01  0.10199803699E+01 0.  0.
     999903    2    3    3    0    0 -0.12829938945E+00  0.19216907771E-01 -0.38250375337E-02  0.13113854514E+00  0.18779356525E-01 0.  0.
         14    1    1    2    0    0  0.75653630750E-02  0.13758499764E-01 -0.17719202979E-01  0.23674906302E-01  0.00000000000E+00 0. -1.
     999901    1    3    3    0    0  0.12073402637E+00 -0.32975407535E-01  0.21544240513E-01  0.88911654856E+00  0.88000000000E+00 0. -1.
        -11    1    4    4    0    0 -0.65105422634E-01  0.19090673036E-01 -0.35581295165E-02  0.67941822613E-01  0.51100000000E-03 0.  1.
         11    1    4    4    0    0 -0.63193966813E-01  0.12623473541E-03 -0.26690801724E-03  0.63196722524E-01  0.51100000000E-03 0. -1.
</event>
<event>
 8    1  0.1115874E+005  0.1043930E+01  0.7957747E-01            NaN
         13   -1    0    0    0    0  0.00000000000E+00  0.00000000000E+00  0.74505805969E-08  0.10566000000E+00  0.10566000000E+00 0. -1.
     999900   -1    0    0    0    0 -0.00000000000E+00 -0.00000000000E+00 -0.74505805969E-08  0.93827000000E+00  0.93827000000E+00 0. -1.
     999902    2    1    2    0    0  0.55014186760E-04 -0.20894668153E-01  0.52592469953E-02  0.10223835418E+01  0.10221564736E+01 0.  0.
     999903    2    3    3    0    0  0.12225911806E+00 -0.47604906180E-01  0.16537525217E-01  0.13346595313E+00  0.18059675013E-01 0.  0.
         14    1    1    2    0    0 -0.55014186760E-04  0.20894668153E-01 -0.52592469953E-02  0.21546458241E-01  0.00000000000E+00 0.  1.
     999901    1    3    3    0    0 -0.12220410388E+00  0.26710238027E-01 -0.11278278222E-01  0.88891758863E+00  0.88000000000E+00 0.  1.
        -11    1    4    4    0    0  0.38651500452E-01 -0.12533954587E-01  0.13241868289E-01  0.42739287565E-01  0.51100000000E-03 0. -1.
         11    1    4    4    0    0  0.83607617612E-01 -0.35070951593E-01  0.32956569279E-02  0.90726665562E-01  0.51100000000E-03 0.  1.
</event>
<event>
 8    1  0.1115874E+005  0.1043930E+01  0.7957747E-01            NaN
         13   -1    0    0    0    0  0.00000000000E+00  0.00000000000E+00  0.74505805969E-08  0.10566000000E+00  0.10566000000E+00 0. -1.
     999900   -1    0    0    0    0 -0.00000000000E+00 -0.00000000000E+00 -0.74505805969E-08  0.93827000000E+00  0.93827000000E+00 0. -1.
     999902    2    1    2    0    0 -0.20494051573E-01  0.97651203683E-02 -0.75073825031E-02  0.10200192385E+01  0.10197389481E+01 0.  0.
     999903    2    3    3    0    0 -0.60678003699E-01 -0.79213956458E-01  0.81199571536E-01  0.13018726003E+00  0.19967003461E-01 0.  0.
         14    1    1    2    0    0  0.20494051573E-01 -0.97651203683E-02  0.75073825031E-02  0.23910761547E-01  0.00000000000E+00 0. -1.
     999901    1    3    3    0    0  0.40183952126E-01  0.88979076826E-01 -0.88706954039E-01  0.88983197842E+00  0.88000000000E+00 0. -1.
        -11    1    4    4    0    0 -0.27021890949E-01 -0.19970615215E-01  0.28001073118E-01  0.43741619532E-01  0.51100000000E-03 0.  1.
         11    1    4    4    0    0 -0.33656112750E-01 -0.59243341242E-01  0.53198498418E-01  0.86445640502E-01  0.51100000000E-03 0. -1.
</event>
<event>
 8    1  0.1115874E+005  0.1043930E+01  0.7957747E-01            NaN
         13   -1    0    0    0    0  0.00000000000E+00  0.00000000000E+00  0.74505805969E-08  0.10566000000E+00  0.10566000000E+00 0.  1.
     999900   -1    0    0    0    0 -0.00000000000E+00 -0.00000000000E+00 -0.74505805969E-08  0.93827000000E+00  0.93827000000E+00 0.  1.
     999902    2    1    2    0    0  0.14324083130E-01 -0.12091157213E-01  0.12271091234E-01  0.10215256451E+01  0.10212799266E+01 0.  0.
     999903    2    3    3    0    0  0.44611414237E-01 -0.11626390565E+00 -0.42489830501E-01  0.13317433927E+00  0.20555897159E-01 0.  0.
         14    1    1    2    0    0 -0.14324083130E-01  0.12091157213E-01 -0.12271091234E-01  0.22404354941E-01  0.00000000000E+00 0. -1.
     999901    1    3    3    0    0 -0.30287331107E-01  0.10417274844E+00  0.54760921735E-01  0.88835130579E+00  0.88000000000E+00 0.  1.
        -11    1    4    4    0    0  0.21533981145E-01 -0.79557248115E-01 -0.33026490257E-01  0.88792332165E-01  0.51100000000E-03 0. -1.
         11    1    4    4    0    0  0.23077433092E-01 -0.36706657533E-01 -0.94633402442E-02  0.44382007108E-01  0.51100000000E-03 0.  1.
</event>
<event>
 8    1  0.1115874E+005  0.1043930E+01  0.7957747E-01            NaN
         13   -1    0    0    0    0  0.00000000000E+00  0.00000000000E+00  0.74505805969E-08  0.10566000000E+00  0.10566000000E+00 0. -1.
     999900   -1    0    0    0    0 -0.00000000000E+00 -0.00000000000E+00 -0.74505805969E-08  0.93827000000E+00  0.93827000000E+00 0.  1.
     999902    2    1    2    0    0 -0.44036772324E-02  0.90661380627E-02  0.21607905591E-01  0.10200869965E+01  0.10198083112E+01 0.  0.
     999903    2    3    3    0    0 -0.66386758076E-01 -0.61590520906E-01  0.94483342156E-01  0.13208637992E+00  0.17863815439E-01 0.  0.
         14    1    1    2    0    0  0.44036772324E-02 -0.90661380627E-02 -0.21607905591E-01  0.23843003514E-01  0.00000000000E+00 0.  1.
     999901    1    3    3    0    0  0.61983080843E-01  0.70656658968E-01 -0.72875436565E-01  0.88800061657E+00  0.88000000000E+00 0. -1.
        -11    1    4    4    0    0 -0.20414637842E-01 -0.14186291834E-01  0.36746636196E-01  0.44368735693E-01  0.51100000000E-03 0. -1.
         11    1    4    4    0    0 -0.45972120233E-01 -0.47404229071E-01  0.57736705960E-01  0.87717644227E-01  0.51100000000E-03 0.  1.
</event>
<event>
 8    1  0.1115874E+005  0.1043930E+01  0.7957747E-01            NaN
         13   -1    0    0    0    0  0.00000000000E+00  0.00000000000E+00  0.74505805969E-08  0.10566000000E+00  0.10566000000E+00 0. -1.
     999900   -1    0    0    0    0 -0.00000000000E+00 -0.00000000000E+00 -0.74505805969E-08  0.93827000000E+00  0.93827000000E+00 0.  1.
     999902    2    1    2    0    0 -0.18124531141E-01 -0.71287299842E-02  0.13915296605E-01  0.10199935654E+01  0.10197126657E+01 0.  0.
     999903    2    3    3    0    0 -0.11019754927E+00 -0.71360080626E-01  0.16655441316E-02  0.13277703971E+00  0.19778960185E-01 0.  0.
         14    1    1    2    0    0  0.18124531141E-01  0.71287299842E-02 -0.13915296605E-01  0.23936434569E-01  0.00000000000E+00 0. -1.
     999901    1    3    3    0    0  0.92073018127E-01  0.64231350642E-01  0.12249752474E-01  0.88721652572E+00  0.88000000000E+00 0.  1.
        -11    1    4    4    0    0 -0.30114408978E-01 -0.20198927271E-01 -0.83660499952E-02  0.37217283680E-01  0.51100000000E-03 0.  1.
         11    1    4    4    0    0 -0.80083140290E-01 -0.51161153355E-01  0.10031594127E-01  0.95559756032E-01  0.51100000000E-03 0. -1.
</event>
<event>
 8    1  0.1115874E+005  0.1043930E+01  0.7957747E-01            NaN
         13   -1    0    0    0    0  0.00000000000E+00  0.00000000000E+00  0.74505805969E-08  0.10566000000E+00  0.10566000000E+00 0.  1.
     999900   -1    0    0    0    0 -0.00000000000E+00 -0.00000000000E+00 -0.74505805969E-08  0.93827000000E+00  0.93827000000E+00 0. -1.
     999902    2    1    2    0    0 -0.19891740130E-02 -0.10482168248E-01 -0.21154805367E-01  0.10202369957E+01  0.10199618468E+01 0.  0.
     999903    2    3    3    0    0 -0.12010664091E+00  0.66804757352E-03 -0.50404883090E-01  0.13179362080E+00  0.20071242230E-01 0.  0.
         14    1    1    2    0    0  0.19891740130E-02  0.10482168248E-01  0.21154805367E-01  0.23693004337E-01  0.00000000000E+00 0.  1.
     999901    1    3    3    0    0  0.11811746690E+00 -0.11150215821E-01  0.29250077724E-01  0.88844337487E+00  0.88000000000E+00 0. -1.
        -11    1    4    4    0    0 -0.73670547298E-01  0.10172143192E-01 -0.31077584168E-01  0.80603346054E-01  0.51100000000E-03 0.  1.
         11    1    4    4    0    0 -0.46436093612E-01 -0.95040956185E-02 -0.19327298922E-01  0.51190274741E-01  0.51100000000E-03 0. -1.
</event>
<event>
 8    1  0.1115874E+005  0.1043930E+01  0.7957747E-01            NaN
         13   -1    0    0    0    0  0.00000000000E+00  0.00000000000E+00  0.74505805969E-08  0.10566000000E+00  0.10566000000E+00 0. -1.
     999900   -1    0    0    0    0 -0.00000000000E+00 -0.00000000000E+00 -0.74505805969E-08  0.93827000000E+00  0.93827000000E+00 0. -1.
     999902    2    1    2    0    0 -0.12211659810E-01 -0.75489618239E-03  0.18566481105E-01  0.10216946964E+01  0.10214527126E+01 0.  0.
     999903    2    3    3    0    0 -0.74146349626E-01 -0.10781370098E-01  0.10984306323E+00  0.13475171608E+00  0.21877096283E-01 0.  0.
         14    1    1    2    0    0  0.12211659810E-01  0.75489618239E-03 -0.18566481105E-01  0.22235303555E-01  0.00000000000E+00 0.  1.
     999901    1    3    3    0    0  0.61934689816E-01  0.10026473916E-01 -0.91276582124E-01  0.88694298037E+00  0.88000000000E+00 0. -1.
        -11    1    4    4    0    0 -0.37809924258E-01 -0.14210580401E-01  0.69167752134E-01  0.80099750461E-01  0.51100000000E-03 0.  1.
         11    1    4    4    0    0 -0.36336425368E-01  0.34292103028E-02  0.40675311096E-01  0.54651965615E-01  0.51100000000E-03 0. -1.
</event>
<event>
 8    1  0.1115874E+005  0.1043930E+01  0.7957747E-01            NaN
         13   -1    0    0    0    0  0.00000000000E+00  0.00000000000E+00  0.74505805969E-08  0.10566000000E+00  0.10566000000E+00 0.  1.
     999900   -1    0    0    0    0 -0.00000000000E+00 -0.00000000000E+00 -0.74505805969E-08  0.93827000000E+00  0.93827000000E+00 0. -1.
     999902    2    1    2    0    0 -0.55491341982E-02  0.21858056816E-01 -0.64189708985E-02  0.10204828099E+01  0.10202134063E+01 0.  0.
     999903    2    3    3    0    0 -0.12352193532E-01 -0.25939163389E-01 -0.12613084714E+00  0.13106626561E+00  0.21070322699E-01 0.  0.
         14    1    1    2    0    0  0.55491341982E-02 -0.21858056816E-01  0.64189708985E-02  0.23447190141E-01  0.00000000000E+00 0. -1.
     999901    1    3    3    0    0  0.68030593341E-02  0.47797220205E-01  0.11971187624E+00  0.88941654425E+00  0.88000000000E+00 0.  1.
        -11    1    4    4    0    0  0.11499366934E-02 -0.18661320923E-01 -0.49545750607E-01  0.52958566608E-01  0.51100000000E-03 0. -1.
         11    1    4    4    0    0 -0.13502130226E-01 -0.72778424663E-02 -0.76585096530E-01  0.78107699000E-01  0.51100000000E-03 0.  1.
</event>
<event>
 8    1  0.1115874E+005  0.1043930E+01  0.7957747E-01            NaN
         13   -1    0    0    0    0  0.00000000000E+00  0.00000000000E+00  0.74505805969E-08  0.10566000000E+00  0.10566000000E+00 0.  1.
     999900   -1    0    0    0    0 -0.00000000000E+00 -0.00000000000E+00 -0.74505805969E-08  0.93827000000E+00  0.93827000000E+00 0. -1.
     999902    2    1    2    0    0 -0.14334677232E-03  0.10365599523E-01 -0.19599177656E-01  0.10217580816E+01  0.10215174905E+01 0.  0.
     999903    2    3    3    0    0 -0.12846101530E+00 -0.20730617595E-01 -0.56066353512E-04  0.13169385245E+00  0.20279957349E-01 0.  0.
         14    1    1    2    0    0  0.14334677232E-03 -0.10365599523E-01  0.19599177656E-01  0.22171918423E-01  0.00000000000E+00 0.  1.
     999901    1    3    3    0    0  0.12831766853E+00  0.31096217118E-01 -0.19543111302E-01  0.89006422913E+00  0.88000000000E+00 0.  1.
        -11    1    4    4    0    0 -0.61187182658E-01 -0.16777893894E-01 -0.75114066818E-02  0.63890933601E-01  0.51100000000E-03 0.  1.
         11    1    4    4    0    0 -0.67273832647E-01 -0.39527237011E-02  0.74553403283E-02  0.67802918846E-01  0.51100000000E-03 0. -1.
</event>
<event>
 8    1  0.1115874E+005  0.1043930E+01  0.7957747E-01            NaN
         13   -1    0    0    0    0  0.00000000000E+00  0.00000000000E+00  0.74505805969E-08  0.10566000000E+00  0.10566000000E+00 0.  1.
     999900   -1    0    0    0    0 -0.00000000000E+00 -0.00000000000E+00 -0.74505805969E-08  0.93827000000E+00  0.93827000000E+00 0. -1.
     999902    2    1    2    0    0  0.10573570436E-01  0.18937603647E-01 -0.88120172077E-02  0.10205187875E+01  0.10202502197E+01 0.  0.
     999903    2    3    3    0    0 -0.65750950236E-01 -0.44559075394E-01 -0.10185219786E+00  0.13006174983E+00  0.15280376418E-01 0.  0.
         14    1    1    2    0    0 -0.10573570436E-01 -0.18937603647E-01  0.88120172077E-02  0.23411212505E-01  0.00000000000E+00 0.  1.
     999901    1    3    3    0    0  0.76324520672E-01  0.63496679041E-01  0.93040180655E-01  0.89045703766E+00  0.88000000000E+00 0.  1.
        -11    1    4    4    0    0 -0.36621302610E-01 -0.23103857364E-01 -0.43337370584E-01  0.61264156243E-01  0.51100000000E-03 0. -1.
         11    1    4    4    0    0 -0.29129647626E-01 -0.21455218030E-01 -0.58514827278E-01  0.68797593591E-01  0.51100000000E-03 0.  1.
</event>
<event>
 8    1  0.1115874E+005  0.1043930E+01  0.7957747E-01            NaN
         13   -1    0    0    0    0  0.00000000000E+00  0.00000000000E+00  0.74505805969E-08  0.10566000000E+00  0.10566000000E+00 0. -1.
     999900   -1    0    0    0    0 -0.00000000000E+00 -0.00000000000E+00 -0.74505805969E-08  0.93827000000E+00  0.93827000000E+00 0.  1.
     999902    2    1    2    0    0 -0.19890176482E-01 -0.13139316599E-01  0.38680568725E-02  0.10197799974E+01  0.10194940022E+01 0.  0.
     999903    2    3    3    0    0  0.97420506928E-01 -0.10867929063E-01 -0.79440500168E-01  0.12809211966E+00  0.22089160252E-01 0.  0.
         14    1    1    2    0    0  0.19890176482E-01  0.13139316599E-01 -0.38680568725E-02  0.24150002591E-01  0.00000000000E+00 0.  1.
     999901    1    3    3    0    0 -0.11731068341E+00 -0.22713875362E-02  0.83308557041E-01  0.89168787775E+00  0.88000000000E+00 0. -1.
        -11    1    4    4    0    0  0.76831876692E-01  0.45962207076E-03 -0.57873696884E-01  0.96192382446E-01  0.51100000000E-03 0. -1.
         11    1    4    4    0    0  0.20588630235E-01 -0.11327551133E-01 -0.21566803284E-01  0.31899737217E-01  0.51100000000E-03 0.  1.
</event>
<event>
 8    1  0.1115874E+005  0.1043930E+01  0.7957747E-01            NaN
         13   -1    0    0    0    0  0.00000000000E+00  0.00000000000E+00  0.74505805969E-08  0.10566000000E+00  0.10566000000E+00 0. -1.
     999900   -1    0    0    0    0 -0.00000000000E+00 -0.00000000000E+00 -0.74505805969E-08  0.93827000000E+00  0.93827000000E+00 0.  1.
     999902    2    1    2    0    0  0.77936165111E-02  0.27157954831E-03  0.22064705302E-01  0.10205277472E+01  0.10202593873E+01 0.  0.
     999903    2    3    3    0    0 -0.22903940866E-03 -0.10543227887E+00 -0.71884010798E-01  0.12920063000E+00  0.20235461350E-01 0.  0.
         14    1    1    2    0    0 -0.77936165111E-02 -0.27157954831E-03 -0.22064705302E-01  0.23402252751E-01  0.00000000000E+00 0.  1.
     999901    1    3    3    0    0  0.80226559198E-02  0.10570385842E+00  0.93948716099E-01  0.89132711725E+00  0.88000000000E+00 0. -1.
        -11    1    4    4    0    0 -0.51909083448E-02 -0.85733569407E-01 -0.50212393578E-01  0.99492391883E-01  0.51100000000E-03 0.  1.
         11    1    4    4    0    0  0.49618689361E-02 -0.19698709465E-01 -0.21671617220E-01  0.29708238114E-01  0.51100000000E-03 0. -1.
</event>
<event>
 8    1  0.1115874E+005  0.1043930E+01  0.7957747E-01            NaN
         13   -1    0    0    0    0  0.00000000000E+00  0.00000000000E+00  0.74505805969E-08  0.10566000000E+00  0.10566000000E+00 0. -1.
     999900   -1    0    0    0    0 -0.00000000000E+00 -0.00000000000E+00 -0.74505805969E-08  0.93827000000E+00  0.93827000000E+00 0. -1.
     999902    2    1    2    0    0 -0.28237778154E-01  0.20519211700E-01 -0.45179162215E-02  0.10087331006E+01  0.10081188652E+01 0.  0.
     999903    2    3    3    0    0 -0.11889545896E+00  0.25321799673E-01 -0.15262647078E-01  0.12399736081E+00  0.19106893837E-01 0.  0.
         14    1    1    2    0    0  0.28237778154E-01 -0.20519211700E-01  0.45179162215E-02  0.35196899450E-01  0.00000000000E+00 0.  1.
     999901    1    3    3    0    0  0.90657680801E-01 -0.48025879729E-02  0.10744730856E-01  0.88473573974E+00  0.88000000000E+00 0. -1.
        -11    1    4    4    0    0 -0.10006821984E+00  0.26618525678E-01 -0.17389095705E-01  0.10499922048E+00  0.51100000000E-03 0. -1.
         11    1    4    4    0    0 -0.18827239114E-01 -0.12967260047E-02  0.21264486271E-02  0.18998140324E-01  0.51100000000E-03 0.  1.
</event>
<event>
 8    1  0.1115874E+005  0.1043930E+01  0.7957747E-01            NaN
         13   -1    0    0    0    0  0.00000000000E+00  0.00000000000E+00  0.74505805969E-08  0.10566000000E+00  0.10566000000E+00 0. -1.
     999900   -1    0    0    0    0 -0.00000000000E+00 -0.00000000000E+00 -0.74505805969E-08  0.93827000000E+00  0.93827000000E+00 0. -1.
     999902    2    1    2    0    0 -0.12894533747E-01  0.18627500913E-01  0.47022759108E-02  0.10207920617E+01  0.10205297982E+01 0.  0.
     999903    2    3    3    0    0  0.98360009476E-01  0.48418105519E-01 -0.67302467950E-01  0.13037096094E+00  0.21165085823E-01 0.  0.
         14    1    1    2    0    0  0.12894533747E-01 -0.18627500913E-01 -0.47022759108E-02  0.23137938317E-01  0.00000000000E+00 0.  1.
     999901    1    3    3    0    0 -0.11125454322E+00 -0.29790604606E-01  0.72004743861E-01  0.89042110074E+00  0.88000000000E+00 0. -1.
        -11    1    4    4    0    0  0.21958433341E-01  0.79525322984E-02 -0.52293356660E-02  0.23937891245E-01  0.51100000000E-03 0. -1.
         11    1    4    4    0    0  0.76401576135E-01  0.40465573221E-01 -0.62073132284E-01  0.10643306969E+00  0.51100000000E-03 0.  1.
</event>
<event>
 8    1  0.1115874E+005  0.1043930E+01  0.7957747E-01            NaN
         13   -1    0    0    0    0  0.00000000000E+00  0.00000000000E+00  0.74505805969E-08  0.10566000000E+00  0.10566000000E+00 0.  1.
     999900   -1    0    0    0    0 -0.00000000000E+00 -0.00000000000E+00 -0.74505805969E-08  0.93827000000E+00  0.93827000000E+00 0. -1.
     999902    2    1    2    0    0 -0.22505343321E-01 -0.16608826465E-02 -0.69373673585E-02  0.10203211865E+01  0.10200480124E+01 0.  0.
     999903    2    3    3    0    0 -0.10192039254E+00  0.59953835564E-01  0.56664412643E-01  0.13231875972E+00  0.17753019439E-01 0.  0.
         14    1    1    2    0    0  0.22505343321E-01  0.16608826465E-02  0.69373673585E-02  0.23608813504E-01  0.00000000000E+00 0.  1.
     999901    1    3    3    0    0  0.79415049218E-01 -0.61614718211E-01 -0.63601780002E-01  0.88800242678E+00  0.88000000000E+00 0. -1.
        -11    1    4    4    0    0 -0.41061815419E-01  0.34369642700E-01  0.25773569697E-01  0.59429647826E-01  0.51100000000E-03 0.  1.
         11    1    4    4    0    0 -0.60858577120E-01  0.25584192864E-01  0.30890842946E-01  0.72889111893E-01  0.51100000000E-03 0. -1.
</event>
<event>
 8    1  0.1115874E+005  0.1043930E+01  0.7957747E-01            NaN
         13   -1    0    0    0    0  0.00000000000E+00  0.00000000000E+00  0.74505805969E-08  0.10566000000E+00  0.10566000000E+00 0. -1.
     999900   -1    0    0    0    0 -0.00000000000E+00 -0.00000000000E+00 -0.74505805969E-08  0.93827000000E+00  0.93827000000E+00 0.  1.
     999902    2    1    2    0    0 -0.50556606652E-02 -0.62697527367E-02  0.21745355078E-01  0.10207409946E+01  0.10204775588E+01 0.  0.
     999903    2    3    3    0    0  0.52196062489E-01  0.45619660998E-01 -0.10602785213E+00  0.12816255908E+00  0.19446174814E-01 0.  0.
         14    1    1    2    0    0  0.50556606652E-02  0.62697527367E-02 -0.21745355078E-01  0.23189005404E-01  0.00000000000E+00 0.  1.
     999901    1    3    3    0    0 -0.57251723154E-01 -0.51889413735E-01  0.12777320721E+00  0.89257843551E+00  0.88000000000E+00 0.  1.
        -11    1    4    4    0    0  0.19467165870E-01  0.29896722951E-01 -0.51781449289E-01  0.62883735590E-01  0.51100000000E-03 0.  1.
         11    1    4    4    0    0  0.32728896619E-01  0.15722938047E-01 -0.54246402840E-01  0.65278823494E-01  0.51100000000E-03 0. -1.
</event>
<event>
 8    1  0.1115874E+005  0.1043930E+01  0.7957747E-01            NaN
         13   -1    0    0    0    0  0.00000000000E+00  0.00000000000E+00  0.74505805969E-08  0.10566000000E+00  0.10566000000E+00 0.  1.
     999900   -1    0    0    0    0 -0.00000000000E+00 -0.00000000000E+00 -0.74505805969E-08  0.93827000000E+00  0.93827000000E+00 0.  1.
     999902    2    1    2    0    0  0.51964574558E-02  0.21654707248E-01  0.36592350787E-03  0.10216575189E+01  0.10214147162E+01 0.  0.
     999903    2    3    3    0    0  0.11615940107E+00 -0.57492547644E-01  0.12042453366E-03  0.13116488942E+00  0.20144831184E-01 0.  0.
         14    1    1    2    0    0 -0.51964574558E-02 -0.21654707248E-01 -0.36592350787E-03  0.22272481139E-01  0.00000000000E+00 0. -1.
     999901    1    3    3    0    0 -0.11096294362E+00  0.79147254892E-01  0.24549897421E-03  0.89049262944E+00  0.88000000000E+00 0. -1.
        -11    1    4    4    0    0  0.65380400460E-01 -0.41928171424E-01  0.49736036768E-02  0.77830367966E-01  0.51100000000E-03 0.  1.
         11    1    4    4    0    0  0.50779000612E-01 -0.15564376220E-01 -0.48531791431E-02  0.53334521457E-01  0.51100000000E-03 0. -1.
</event>
<event>
 8    1  0.1115874E+005  0.1043930E+01  0.7957747E-01            NaN
         13   -1    0    0    0    0  0.00000000000E+00  0.00000000000E+00  0.74505805969E-08  0.10566000000E+00  0.10566000000E+00 0. -1.
     999900   -1    0    0    0    0 -0.00000000000E+00 -0.00000000000E+00 -0.74505805969E-08  0.93827000000E+00  0.93827000000E+00 0. -1.
     999902    2    1    2    0    0 -0.13359676318E-01 -0.87638681418E-02  0.17761657255E-01  0.10200393574E+01  0.10197595441E+01 0.  0.
     999903    2    3    3    0    0 -0.85535611925E-01  0.91099253584E-01 -0.30911671452E-01  0.13012301205E+00  0.19001366340E-01 0.  0.
         14    1    1    2    0    0  0.13359676318E-01  0.87638681418E-02 -0.17761657255E-01  0.23890642615E-01  0.00000000000E+00 0.  1.
     999901    1    3    3    0    0  0.72175935607E-01 -0.99863121725E-01  0.48673328707E-01  0.88991634533E+00  0.88000000000E+00 0.  1.
        -11    1    4    4    0    0 -0.12036695304E-01  0.48362765105E-02 -0.17330584058E-02  0.13097183543E-01  0.51100000000E-03 0.  1.
         11    1    4    4    0    0 -0.73498916621E-01  0.86262977073E-01 -0.29178613046E-01  0.11702582851E+00  0.51100000000E-03 0. -1.
</event>
<event>
 8    1  0.1115874E+005  0.1043930E+01  0.7957747E-01            NaN
         13   -1    0    0    0    0  0.00000000000E+00  0.00000000000E+00  0.74505805969E-08  0.10566000000E+00  0.10566000000E+00 0.  1.
     999900   -1    0    0    0    0 -0.00000000000E+00 -0.00000000000E+00 -0.74505805969E-08  0.93827000000E+00  0.93827000000E+00 0. -1.
     999902    2    1    2    0    0 -0.22024326154E-01 -0.53532683726E-02 -0.68355372415E-02  0.10202561116E+01  0.10199814117E+01 0.  0.
     999903    2    3    3    0    0  0.88728280281E-01 -0.48900612490E-01  0.76176633205E-01  0.12837409500E+00  0.20323661002E-01 0.  0.
         14    1    1    2    0    0  0.22024326154E-01  0.53532683726E-02  0.68355372415E-02  0.23673888447E-01  0.00000000000E+00 0. -1.
     999901    1    3    3    0    0 -0.11075260644E+00  0.43547344118E-01 -0.83012170446E-01  0.89188201655E+00  0.88000000000E+00 0.  1.
        -11    1    4    4    0    0  0.68855723666E-01 -0.33316943550E-01  0.46987595409E-01  0.89773184484E-01  0.51100000000E-03 0. -1.
         11    1    4    4    0    0  0.19872556615E-01 -0.15583668940E-01  0.29189037795E-01  0.38600910514E-01  0.51100000000E-03 0.  1.
</event>
<event>
 8    1  0.1115874E+005  0.1043930E+01  0.7957747E-01            NaN
         13   -1    0    0    0    0  0.00000000000E+00  0.00000000000E+00  0.74505805969E-08  0.10566000000E+00  0.10566000000E+00 0.  1.
     999900   -1    0    0    0    0 -0.00000000000E+00 -0.00000000000E+00 -0.74505805969E-08  0.93827000000E+00  0.93827000000E+00 0.  1.
     999902    2    1    2    0    0 -0.21686362155E-01 -0.43141233154E-02  0.74940045187E-02  0.10205832643E+01  0.10203161909E+01 0.  0.
     999903    2    3    3    0    0 -0.55348221827E-01  0.65250847867E-01  0.99427604198E-01  0.13242551213E+00  0.18154034803E-01 0.  0.
         14    1    1    2    0    0  0.21686362155E-01  0.43141233154E-02 -0.74940045187E-02  0.23346735687E-01  0.00000000000E+00 0. -1.
     999901    1    3    3    0    0  0.33661859671E-01 -0.69564971183E-01 -0.91933599679E-01  0.88815775218E+00  0.88000000000E+00 0.  1.
        -11    1    4    4    0    0 -0.55296161314E-01  0.58102890719E-01  0.92841658907E-01  0.12269248598E+00  0.51100000000E-03 0. -1.
         11    1    4    4    0    0 -0.52060512284E-04  0.71479571487E-02  0.65859452912E-02  0.97330261520E-02  0.51100000000E-03 0.  1.
</event>
<event>
 8    1  0.1115874E+005  0.1043930E+01  0.7957747E-01            NaN
         13   -1    0    0    0    0  0.00000000000E+00  0.00000000000E+00  0.74505805969E-08  0.10566000000E+00  0.10566000000E+00 0. -1.
     999900   -1    0    0    0    0 -0.00000000000E+00 -0.00000000000E+00 -0.74505805969E-08  0.93827000000E+00  0.93827000000E+00 0.  1.
     999902    2    1    2    0    0  0.12251710501E-01 -0.21415186480E-02 -0.21537615735E-01  0.10190591455E+01  0.10187556049E+01 0.  0.
     999903    2    3    3    0    0  0.92258081197E-01  0.81977861238E-01  0.34821952661E-01  0.12964726657E+00  0.19076741394E-01 0.  0.
         14    1    1    2    0    0 -0.12251710501E-01  0.21415186480E-02  0.21537615735E-01  0.24870854506E-01  0.00000000000E+00 0. -1.
     999901    1    3    3    0    0 -0.80006370696E-01 -0.84119379886E-01 -0.56359568395E-01  0.88941187893E+00  0.88000000000E+00 0. -1.
        -11    1    4    4    0    0  0.41165098318E-01  0.48653049732E-01  0.20940142050E-01  0.67085283318E-01  0.51100000000E-03 0.  1.
         11    1    4    4    0    0  0.51092982879E-01  0.33324811506E-01  0.13881810610E-01  0.62561983250E-01  0.51100000000E-03 0. -1.
</event>
<event>
 8    1  0.1115874E+005  0.1043930E+01  0.7957747E-01            NaN
         13   -1    0    0    0    0  0.00000000000E+00  0.00000000000E+00  0.74505805969E-08  0.10566000000E+00  0.10566000000E+00 0. -1.
     999900   -1    0    0    0    0 -0.00000000000E+00 -0.00000000000E+00 -0.74505805969E-08  0.93827000000E+00  0.93827000000E+00 0. -1.
     999902    2    1    2    0    0  0.11726862534E-01  0.19204215177E-01  0.20929295505E-02  0.10213312934E+01  0.10210812452E+01 0.  0.
     999903    2    3    3    0    0 -0.81680239373E-01 -0.18628301586E-01  0.98373782291E-01  0.13036205229E+00  0.17268135744E-01 0.  0.
         14    1    1    2    0    0 -0.11726862534E-01 -0.19204215177E-01 -0.20929295505E-02  0.22598706590E-01  0.00000000000E+00 0.  1.
     999901    1    3    3    0    0  0.93407101907E-01  0.37832516763E-01 -0.96280852740E-01  0.89096924112E+00  0.88000000000E+00 0. -1.
        -11    1    4    4    0    0 -0.27064756708E-01 -0.72389417015E-02  0.21220308787E-01  0.35149195704E-01  0.51100000000E-03 0.  1.
         11    1    4    4    0    0 -0.54615482665E-01 -0.11389359884E-01  0.77153473504E-01  0.95212856590E-01  0.51100000000E-03 0. -1.
</event>
<event>
 8    1  0.1115874E+005  0.1043930E+01  0.7957747E-01            NaN
         13   -1    0    0    0    0  0.00000000000E+00  0.00000000000E+00  0.74505805969E-08  0.10566000000E+00  0.10566000000E+00 0. -1.
     999900   -1    0    0    0    0 -0.00000000000E+00 -0.00000000000E+00 -0.74505805969E-08  0.93827000000E+00  0.93827000000E+00 0.  1.
     999902    2    1    2    0    0  0.13879506419E-02 -0.23219972462E-01  0.44643008212E-02  0.10202440651E+01  0.10199690824E+01 0.  0.
     999903    2    3    3    0    0  0.27857467402E-01 -0.82003628642E-01 -0.97747586488E-01  0.13198541843E+00  0.19103047255E-01 0.  0.
         14    1    1    2    0    0 -0.13879506419E-02  0.23219972462E-01 -0.44643008212E-02  0.23685934854E-01  0.00000000000E+00 0.  1.
     999901    1    3    3    0    0 -0.26469516760E-01  0.58783656181E-01  0.10221188731E+00  0.88825864671E+00  0.88000000000E+00 0. -1.
        -11    1    4    4    0    0 -0.19492445082E-02 -0.16452324369E-01 -0.20817782953E-01  0.26610519337E-01  0.51100000000E-03 0.  1.
         11    1    4    4    0    0  0.29806711910E-01 -0.65551304273E-01 -0.76929803534E-01  0.10537489910E+00  0.51100000000E-03 0. -1.
</event>
<event>
 8    1  0.1115874E+005  0.1043930E+01  0.7957747E-01            NaN
         13   -1    0    0    0    0  0.00000000000E+00  0.00000000000E+00  0.74505805969E-08  0.10566000000E+00  0.10566000000E+00 0.  1.
     999900   -1    0    0    0    0 -0.00000000000E+00 -0.00000000000E+00 -0.74505805969E-08  0.93827000000E+00  0.93827000000E+00 0. -1.
     999902    2    1    2    0    0  0.13210529038E-01 -0.18486000131E-01  0.69586156659E-02  0.10201671590E+01  0.10198903665E+01 0.  0.
     999903    2    3    3    0    0 -0.43198036690E-01 -0.11251125780E+00  0.50773953982E-01  0.13228064645E+00  0.19882693901E-01 0.  0.
         14    1    1    2    0    0 -0.13210529038E-01  0.18486000131E-01 -0.69586156659E-02  0.23762840956E-01  0.00000000000E+00 0.  1.
     999901    1    3    3    0    0  0.56408565728E-01  0.94025257672E-01 -0.43815338316E-01  0.88788651259E+00  0.88000000000E+00 0.  1.
        -11    1    4    4    0    0 -0.26789971994E-01 -0.60686381551E-01  0.17745274646E-01  0.68670921055E-01  0.51100000000E-03 0.  1.
         11    1    4    4    0    0 -0.16408064696E-01 -0.51824876252E-01  0.33028679336E-01  0.63609725399E-01  0.51100000000E-03 0. -1.
</event>
<event>
 8    1  0.1115874E+005  0.1043930E+01  0.7957747E-01            NaN
         13   -1    0    0    0    0  0.00000000000E+00  0.00000000000E+00  0.74505805969E-08  0.10566000000E+00  0.10566000000E+00 0.  1.
     999900   -1    0    0    0    0 -0.00000000000E+00 -0.00000000000E+00 -0.74505805969E-08  0.93827000000E+00  0.93827000000E+00 0.  1.
     999902    2    1    2    0    0  0.11273915565E-01  0.13610024442E-01  0.14360300577E-01  0.10211582594E+01  0.10209043239E+01 0.  0.
     999903    2    3    3    0    0  0.10198273514E+00 -0.46606530801E-01 -0.64046701595E-01  0.13098873539E+00  0.21986855975E-01 0.  0.
         14    1    1    2    0    0 -0.11273915565E-01 -0.13610024442E-01 -0.14360300577E-01  0.22771740604E-01  0.00000000000E+00 0. -1.
     999901    1    3    3    0    0 -0.90708819570E-01  0.60216555244E-01  0.78407002172E-01  0.89016952400E+00  0.88000000000E+00 0.  1.
        -11    1    4    4    0    0  0.61968591080E-01 -0.28853094916E-01 -0.26502856513E-01  0.73316232112E-01  0.51100000000E-03 0.  1.
         11    1    4    4    0    0  0.40014144055E-01 -0.17753435885E-01 -0.37543845082E-01  0.57672503282E-01  0.51100000000E-03 0. -1.
</event>
<event>
 8    1  0.1115874E+005  0.1043930E+01  0.7957747E-01            NaN
         13   -1    0    0    0    0  0.00000000000E+00  0.00000000000E+00  0.74505805969E-08  0.10566000000E+00  0.10566000000E+00 0.  1.
     999900   -1    0    0    0    0 -0.00000000000E+00 -0.00000000000E+00 -0.74505805969E-08  0.93827000000E+00  0.93827000000E+00 0.  1.
     999902    2    1    2    0    0  0.51380490691E-02 -0.40857401354E-02  0.22909050741E-01  0.10200989818E+01  0.10198205800E+01 0.  0.
     999903    2    3    3    0    0  0.12199352488E+00  0.37812573257E-02 -0.40389766592E-01  0.13008559309E+00  0.19854729000E-01 0.  0.
         14    1    1    2    0    0 -0.51380490691E-02  0.40857401354E-02 -0.22909050741E-01  0.23831018160E-01  0.00000000000E+00 0. -1.
     999901    1    3    3    0    0 -0.11685547582E+00 -0.78669974612E-02  0.63298817333E-01  0.89001338875E+00  0.88000000000E+00 0.  1.
        -11    1    4    4    0    0  0.21641857374E-01  0.82659306639E-02 -0.87146100732E-02  0.24756840470E-01  0.51100000000E-03 0. -1.
         11    1    4    4    0    0  0.10035166751E+00 -0.44846733382E-02 -0.31675156519E-01  0.10532875262E+00  0.51100000000E-03 0.  1.
</event>
<event>
 8    1  0.1115874E+005  0.1043930E+01  0.7957747E-01            NaN
         13   -1    0    0    0    0  0.00000000000E+00  0.00000000000E+00  0.74505805969E-08  0.10566000000E+00  0.10566000000E+00 0. -1.
     999900   -1    0    0    0    0 -0.00000000000E+00 -0.00000000000E+00 -0.74505805969E-08  0.93827000000E+00  0.93827000000E+00 0. -1.
     999902    2    1    2    0    0  0.11578378533E-01 -0.82144067811E-02 -0.21212444434E-01  0.10184054407E+01  0.10180855261E+01 0.  0.
     999903    2    3    3    0    0  0.11224115779E+00  0.11631730704E-01 -0.63963575843E-01  0.13141360110E+00  0.21090776608E-01 0.  0.
         14    1    1    2    0    0 -0.11578378533E-01  0.82144067811E-02  0.21212444434E-01  0.25524559292E-01  0.00000000000E+00 0. -1.
     999901    1    3    3    0    0 -0.10066277925E+00 -0.19846137485E-01  0.42751131409E-01  0.88699183961E+00  0.88000000000E+00 0. -1.
        -11    1    4    4    0    0  0.43062914751E-01  0.37165312901E-02 -0.36452306135E-01  0.56544309840E-01  0.51100000000E-03 0.  1.
         11    1    4    4    0    0  0.69178243036E-01  0.79151994140E-02 -0.27511269708E-01  0.74869291257E-01  0.51100000000E-03 0. -1.
</event>
<event>
 8    1  0.1115874E+005  0.1043930E+01  0.7957747E-01            NaN
         13   -1    0    0    0    0  0.00000000000E+00  0.00000000000E+00  0.74505805969E-08  0.10566000000E+00  0.10566000000E+00 0. -1.
     999900   -1    0    0    0    0 -0.00000000000E+00 -0.00000000000E+00 -0.74505805969E-08  0.93827000000E+00  0.93827000000E+00 0.  1.
     999902    2    1    2    0    0 -0.21385299522E-01  0.99043131867E-02 -0.33854913209E-02  0.10201205900E+01  0.10198426987E+01 0.  0.
     999903    2    3    3    0    0  0.30453272925E-01 -0.49814893574E-01 -0.11411367104E+00  0.12966320690E+00  0.19536935567E-01 0.  0.
         14    1    1    2    0    0  0.21385299522E-01 -0.99043131867E-02  0.33854913209E-02  0.23809410048E-01  0.00000000000E+00 0. -1.
     999901    1    3    3    0    0 -0.51838572448E-01  0.59719206761E-01  0.11072817972E+00  0.89045738305E+00  0.88000000000E+00 0. -1.
        -11    1    4    4    0    0  0.24684111948E-01 -0.46141333064E-01 -0.85540667989E-01  0.10027858695E+00  0.51100000000E-03 0. -1.
         11    1    4    4    0    0  0.57691609770E-02 -0.36735605099E-02 -0.28573003051E-01  0.29384619949E-01  0.51100000000E-03 0.  1.
</event>
<event>
 8    1  0.1115874E+005  0.1043930E+01  0.7957747E-01            NaN
         13   -1    0    0    0    0  0.00000000000E+00  0.00000000000E+00  0.74505805969E-08  0.10566000000E+00  0.10566000000E+00 0.  1.
     999900   -1    0    0    0    0 -0.00000000000E+00 -0.00000000000E+00 -0.74505805969E-08  0.93827000000E+00  0.93827000000E+00 0. -1.
     999902    2    1    2    0    0  0.17953181232E-01  0.12892746405E-01  0.10976261020E-01  0.10192517113E+01  0.10189529101E+01 0.  0.
     999903    2    3    3    0    0  0.12085490928E-01 -0.84969243808E-02  0.12879953562E+00  0.13112206322E+00  0.19632072523E-01 0.  0.
         14    1    1    2    0    0 -0.17953181232E-01 -0.12892746405E-01 -0.10976261020E-01  0.24678288680E-01  0.00000000000E+00 0. -1.
     999901    1    3    3    0    0  0.58676903040E-02  0.21389670786E-01 -0.11782327460E+00  0.88812964810E+00  0.88000000000E+00 0. -1.
        -11    1    4    4    0    0  0.18940581694E-03 -0.12080459664E-01  0.67356543791E-01  0.68433460330E-01  0.51100000000E-03 0. -1.
         11    1    4    4    0    0  0.11896085111E-01  0.35835352828E-02  0.61442991826E-01  0.62688602885E-01  0.51100000000E-03 0.  1.
</event>
<event>
 8    1  0.1115874E+005  0.1043930E+01  0.7957747E-01            NaN
         13   -1    0    0    0    0  0.00000000000E+00  0.00000000000E+00  0.74505805969E-08  0.10566000000E+00  0.10566000000E+00 0.  1.
     999900   -1    0    0    0    0 -0.00000000000E+00 -0.00000000000E+00 -0.74505805969E-08  0.93827000000E+00  0.93827000000E+00 0.  1.
     999902    2    1    2    0    0 -0.23308199715E-01 -0.41062815265E-02 -0.95255786592E-02  0.10184178388E+01  0.10180982389E+01 0.  0.
     999903    2    3    3    0    0 -0.33127510423E-01 -0.12401725273E+00  0.57506568894E-02  0.13010008973E+00  0.20377742075E-01 0.  0.
         14    1    1    2    0    0  0.23308199715E-01  0.41062815265E-02  0.95255786592E-02  0.25512161232E-01  0.00000000000E+00 0. -1.
     999901    1    3    3    0    0  0.98193107077E-02  0.11991097120E+00 -0.15276235549E-01  0.88831774903E+00  0.88000000000E+00 0.  1.
        -11    1    4    4    0    0 -0.14750900281E-01 -0.29585920859E-01  0.74025077744E-02  0.33881765222E-01  0.51100000000E-03 0. -1.
         11    1    4    4    0    0 -0.18376610142E-01 -0.94431331872E-01 -0.16518508850E-02  0.96218324511E-01  0.51100000000E-03 0.  1.
</event>
<event>
 8    1  0.1115874E+005  0.1043930E+01  0.7957747E-01            NaN
         13   -1    0    0    0    0  0.00000000000E+00  0.00000000000E+00  0.74505805969E-08  0.10566000000E+00  0.10566000000E+00 0.  1.
     999900   -1    0    0    0    0 -0.00000000000E+00 -0.00000000000E+00 -0.74505805969E-08  0.93827000000E+00  0.93827000000E+00 0. -1.
     999902    2    1    2    0    0  0.71860134904E-02 -0.11271093392E-01 -0.19903628467E-01  0.10199543715E+01  0.10196725402E+01 0.  0.
     999903    2    3    3    0    0  0.44294813634E-01 -0.11377450029E+00  0.41913863121E-01  0.13107563188E+00  0.22746030862E-01 0.  0.
         14    1    1    2    0    0 -0.71860134904E-02  0.11271093392E-01  0.19903628467E-01  0.23975628506E-01  0.00000000000E+00 0.  1.
     999901    1    3    3    0    0 -0.37108800144E-01  0.10250340690E+00 -0.61817491587E-01  0.88887873961E+00  0.88000000000E+00 0. -1.
        -11    1    4    4    0    0  0.35573209605E-01 -0.66818989424E-01  0.32567688683E-01  0.82408410107E-01  0.51100000000E-03 0. -1.
         11    1    4    4    0    0  0.87216040297E-02 -0.46955510864E-01  0.93461744380E-02  0.48667221772E-01  0.51100000000E-03 0.  1.
</event>
<event>
 8    1  0.1115874E+005  0.1043930E+01  0.7957747E-01            NaN
         13   -1    0    0    0    0  0.00000000000E+00  0.00000000000E+00  0.74505805969E-08  0.10566000000E+00  0.10566000000E+00 0.  1.
     999900   -1    0    0    0    0 -0.00000000000E+00 -0.00000000000E+00 -0.74505805969E-08  0.93827000000E+00  0.93827000000E+00 0.  1.
     999902    2    1    2    0    0  0.19813684349E-01  0.50542260644E-02  0.13696872228E-01  0.10193183849E+01  0.10190212158E+01 0.  0.
     999903    2    3    3    0    0  0.10066067034E+00 -0.68910296838E-02  0.84107715136E-01  0.13273132710E+00  0.19064118209E-01 0.  0.
         14    1    1    2    0    0 -0.19813684349E-01 -0.50542260644E-02 -0.13696872228E-01  0.24611615092E-01  0.00000000000E+00 0. -1.
     999901    1    3    3    0    0 -0.80846985996E-01  0.11945255748E-01 -0.70410842908E-01  0.88658705781E+00  0.88000000000E+00 0.  1.
        -11    1    4    4    0    0  0.85566105103E-01  0.43016385626E-03  0.66195354693E-01  0.10818423863E+00  0.51100000000E-03 0. -1.
         11    1    4    4    0    0  0.15094565242E-01 -0.73211935401E-02  0.17912360443E-01  0.24547088470E-01  0.51100000000E-03 0.  1.
</event>
<event>
 8    1  0.1115874E+005  0.1043930E+01  0.7957747E-01            NaN
         13   -1    0    0    0    0  0.00000000000E+00  0.00000000000E+00  0.74505805969E-08  0.10566000000E+00  0.10566000000E+00 0. -1.
     999900   -1    0    0    0    0 -0.00000000000E+00 -0.00000000000E+00 -0.74505805969E-08  0.93827000000E+00  0.93827000000E+00 0.  1.
     999902    2    1    2    0    0  0.16089373851E-01  0.16732854427E-01  0.12778669026E-01  0.10174318727E+01  0.10170867538E+01 0.  0.
     999903    2    3    3    0    0  0.14080669306E-01 -0.34000608517E-01 -0.11878282809E+00  0.12620443446E+00  0.21538161458E-01 0.  0.
         14    1    1    2    0    0 -0.16089373851E-01 -0.16732854427E-01 -0.12778669026E-01  0.26498127297E-01  0.00000000000E+00 0. -1.
     999901    1    3    3    0    0  0.20087045455E-02  0.50733462944E-01  0.13156149712E+00  0.89122743825E+00  0.88000000000E+00 0. -1.
        -11    1    4    4    0    0 -0.46400191479E-02 -0.93458185858E-02 -0.44848814901E-01  0.46049445401E-01  0.51100000000E-03 0.  1.
         11    1    4    4    0    0  0.18720688454E-01 -0.24654789932E-01 -0.73934013193E-01  0.80154989056E-01  0.51100000000E-03 0. -1.
</event>
<event>
 8    1  0.1115874E+005  0.1043930E+01  0.7957747E-01            NaN
         13   -1    0    0    0    0  0.00000000000E+00  0.00000000000E+00  0.74505805969E-08  0.10566000000E+00  0.10566000000E+00 0.  1.
     999900   -1    0    0    0    0 -0.00000000000E+00 -0.00000000000E+00 -0.74505805969E-08  0.93827000000E+00  0.93827000000E+00 0. -1.
     999902    2    1    2    0    0  0.41926496273E-02  0.34097298136E-01  0.57846761043E-02  0.10090922830E+01  0.10084907382E+01 0.  0.
     999903    2    3    3    0    0  0.32927875608E-01  0.11789120910E+00 -0.84174212939E-02  0.12453090448E+00  0.21319263942E-01 0.  0.
         14    1    1    2    0    0 -0.41926496273E-02 -0.34097298136E-01 -0.57846761043E-02  0.34837717042E-01  0.00000000000E+00 0. -1.
     999901    1    3    3    0    0 -0.28735225980E-01 -0.83793910960E-01  0.14202097398E-01  0.88456137848E+00  0.88000000000E+00 0. -1.
        -11    1    4    4    0    0  0.18715929443E-01  0.38565653937E-01  0.37220774471E-02  0.43031507759E-01  0.51100000000E-03 0. -1.
         11    1    4    4    0    0  0.14211946165E-01  0.79325555159E-01 -0.12139498741E-01  0.81499396720E-01  0.51100000000E-03 0.  1.
</event>
<event>
 8    1  0.1115874E+005  0.1043930E+01  0.7957747E-01            NaN
         13   -1    0    0    0    0  0.00000000000E+00  0.00000000000E+00  0.74505805969E-08  0.10566000000E+00  0.10566000000E+00 0. -1.
     999900   -1    0    0    0    0 -0.00000000000E+00 -0.00000000000E+00 -0.74505805969E-08  0.93827000000E+00  0.93827000000E+00 0.  1.
     999902    2    1    2    0    0  0.21627130806E-01 -0.40221007286E-02  0.82256916646E-02  0.10204444282E+01  0.10201741316E+01 0.  0.
     999903    2    3    3    0    0 -0.72767223552E-01 -0.10449191447E+00 -0.12389669500E-01  0.12947334517E+00  0.19905129676E-01 0.  0.
         14    1    1    2    0    0 -0.21627130806E-01  0.40221007286E-02 -0.82256916646E-02  0.23485571837E-01  0.00000000000E+00 0.  1.
     999901    1    3    3    0    0  0.94394354358E-01  0.10046981374E+00  0.20615361165E-01  0.89097108299E+00  0.88000000000E+00 0. -1.
        -11    1    4    4    0    0 -0.39775816628E-01 -0.46356441861E-01 -0.13751833777E-01  0.62613172286E-01  0.51100000000E-03 0. -1.
         11    1    4    4    0    0 -0.32991406924E-01 -0.58135472607E-01  0.13621642772E-02  0.66860172888E-01  0.51100000000E-03 0.  1.
</event>
<event>
 8    1  0.1115874E+005  0.1043930E+01  0.7957747E-01            NaN
         13   -1    0    0    0    0  0.00000000000E+00  0.00000000000E+00  0.74505805969E-08  0.10566000000E+00  0.10566000000E+00 0.  1.
     999900   -1    0    0    0    0 -0.00000000000E+00 -0.00000000000E+00 -0.74505805969E-08  0.93827000000E+00  0.93827000000E+00 0.  1.
     999902    2    1    2    0    0  0.15741242998E-01 -0.10056022892E-02  0.20760559260E-01  0.10178570487E+01  0.10175230577E+01 0.  0.
     999903    2    3    3    0    0  0.12471926218E+00 -0.19025287278E-01  0.28762182716E-01  0.13091570699E+00  0.19869656982E-01 0.  0.
         14    1    1    2    0    0 -0.15741242998E-01  0.10056022892E-02 -0.20760559260E-01  0.26072951269E-01  0.00000000000E+00 0. -1.
     999901    1    3    3    0    0 -0.10897801918E+00  0.18019684989E-01 -0.80016234563E-02  0.88694134174E+00  0.88000000000E+00 0. -1.
        -11    1    4    4    0    0  0.42518708595E-01 -0.45142373335E-02  0.19278213741E-01  0.46905538749E-01  0.51100000000E-03 0.  1.
         11    1    4    4    0    0  0.82200553580E-01 -0.14511049944E-01  0.94839689753E-02  0.84010168241E-01  0.51100000000E-03 0. -1.
</event>
<event>
 8    1  0.1115874E+005  0.1043930E+01  0.7957747E-01            NaN
         13   -1    0    0    0    0  0.00000000000E+00  0.00000000000E+00  0.74505805969E-08  0.10566000000E+00  0.10566000000E+00 0. -1.
     999900   -1    0    0    0    0 -0.00000000000E+00 -0.00000000000E+00 -0.74505805969E-08  0.93827000000E+00  0.93827000000E+00 0. -1.
     999902    2    1    2    0    0 -0.84065979341E-03  0.23130501600E-01 -0.66508740572E-02  0.10198476218E+01  0.10195632451E+01 0.  0.
     999903    2    3    3    0    0  0.39286514305E-01 -0.57791719222E-01 -0.10721336519E+00  0.12952666253E+00  0.19978428714E-01 0.  0.
         14    1    1    2    0    0  0.84065979341E-03 -0.23130501600E-01  0.66508740572E-02  0.24082378182E-01  0.00000000000E+00 0. -1.
     999901    1    3    3    0    0 -0.40127174099E-01  0.80922220822E-01  0.10056249113E+00  0.89032095929E+00  0.88000000000E+00 0.  1.
        -11    1    4    4    0    0  0.33585771250E-01 -0.32496203168E-01 -0.69941842395E-01  0.84119734245E-01  0.51100000000E-03 0.  1.
         11    1    4    4    0    0  0.57007430547E-02 -0.25295516054E-01 -0.37271522796E-01  0.45406928286E-01  0.51100000000E-03 0. -1.
</event>
<event>
 8    1  0.1115874E+005  0.1043930E+01  0.7957747E-01            NaN
         13   -1    0    0    0    0  0.00000000000E+00  0.00000000000E+00  0.74505805969E-08  0.10566000000E+00  0.10566000000E+00 0. -1.
     999900   -1    0    0    0    0 -0.00000000000E+00 -0.00000000000E+00 -0.74505805969E-08  0.93827000000E+00  0.93827000000E+00 0.  1.
     999902    2    1    2    0    0 -0.24604534855E-02  0.22019806184E-01 -0.98804313001E-02  0.10196699790E+01  0.10193813406E+01 0.  0.
     999903    2    3    3    0    0  0.67636304225E-01 -0.34871161702E-01 -0.10360050673E+00  0.13010065051E+00  0.20061074256E-01 0.  0.
         14    1    1    2    0    0  0.24604534855E-02 -0.22019806184E-01  0.98804313001E-02  0.24260020990E-01  0.00000000000E+00 0. -1.
     999901    1    3    3    0    0 -0.70096757711E-01  0.56890967887E-01  0.93720075432E-01  0.88956932850E+00  0.88000000000E+00 0. -1.
        -11    1    4    4    0    0  0.30558022555E-01 -0.10092840026E-01 -0.29754122383E-01  0.43831804458E-01  0.51100000000E-03 0.  1.
         11    1    4    4    0    0  0.37078281670E-01 -0.24778321677E-01 -0.73846384350E-01  0.86268846052E-01  0.51100000000E-03 0. -1.
</event>
<event>
 8    1  0.1115874E+005  0.1043930E+01  0.7957747E-01            NaN
         13   -1    0    0    0    0  0.00000000000E+00  0.00000000000E+00  0.74505805969E-08  0.10566000000E+00  0.10566000000E+00 0.  1.
     999900   -1    0    0    0    0 -0.00000000000E+00 -0.00000000000E+00 -0.74505805969E-08  0.93827000000E+00  0.93827000000E+00 0.  1.
     999902    2    1    2    0    0  0.18827245853E-01 -0.12059483306E-01  0.30641105067E-03  0.10215695391E+01  0.10213247931E+01 0.  0.
     999903    2    3    3    0    0 -0.73344865706E-01 -0.32133124632E-01  0.10153241369E+00  0.13075791320E+00  0.19411177463E-01 0.  0.
         14    1    1    2    0    0 -0.18827245853E-01  0.12059483306E-01 -0.30641105067E-03  0.22360460902E-01  0.00000000000E+00 0.  1.
     999901    1    3    3    0    0  0.92172111559E-01  0.20073641326E-01 -0.10122600264E+00  0.89081162590E+00  0.88000000000E+00 0.  1.
        -11    1    4    4    0    0 -0.33042330934E-01 -0.44535764357E-02  0.37276686302E-01  0.50014422313E-01  0.51100000000E-03 0.  1.
         11    1    4    4    0    0 -0.40302534771E-01 -0.27679548196E-01  0.64255727389E-01  0.80743490887E-01  0.51100000000E-03 0. -1.
</event>
<event>
 7    1  0.1115874E+005  0.1043930E+01  0.7957747E-01            NaN
         13   -1    0    0    0    0  0.00000000000E+00  0.00000000000E+00  0.74505805969E-08  0.10566000000E+00  0.10566000000E+00 0. -1.
     999900   -1    0    0    0    0 -0.00000000000E+00 -0.00000000000E+00 -0.74505805969E-08  0.93827000000E+00  0.93827000000E+00 0.  1.
     999902    2    1    2    0    0  0.16150449192E-01 -0.54007771022E-02  0.16156253803E-01  0.10204559731E+01  0.10201859453E+01 0.  0.
         14    1    1    2    0    0 -0.16150449192E-01  0.54007771022E-02 -0.16156253803E-01  0.23474026910E-01  0.00000000000E+00 0.  1.
     999901    1    3    3    0    0  0.90343505406E-01  0.84481161940E-01 -0.28952601747E-01  0.88912162770E+00  0.88000000000E+00 0.  1.
        -11    1    3    3    0    0 -0.32746783778E-01 -0.56988352984E-01  0.42666227039E-01  0.78362569345E-01  0.51100000000E-03 0.  1.
         11    1    3    3    0    0 -0.41446272436E-01 -0.32893586058E-01  0.24426285118E-02  0.52971776048E-01  0.51100000000E-03 0. -1.
</event>
<event>
 8    1  0.1115874E+005  0.1043930E+01  0.7957747E-01            NaN
         13   -1    0    0    0    0  0.00000000000E+00  0.00000000000E+00  0.74505805969E-08  0.10566000000E+00  0.10566000000E+00 0.  1.
     999900   -1    0    0    0    0 -0.00000000000E+00 -0.00000000000E+00 -0.74505805969E-08  0.93827000000E+00  0.93827000000E+00 0.  1.
     999902    2    1    2    0    0  0.87075906248E-02 -0.21796548582E-01  0.29006778839E-02  0.10202799345E+01  0.10200057937E+01 0.  0.
     999903    2    3    3    0    0 -0.45189903383E-01 -0.12254598128E+00 -0.12740769952E-01  0.13275526279E+00  0.20049630563E-01 0.  0.
         14    1    1    2    0    0 -0.87075906248E-02  0.21796548582E-01 -0.29006778839E-02  0.23650065470E-01  0.00000000000E+00 0. -1.
     999901    1    3    3    0    0  0.53897494008E-01  0.10074943270E+00  0.15641447836E-01  0.88752467174E+00  0.88000000000E+00 0. -1.
        -11    1    4    4    0    0 -0.41266201159E-01 -0.97494037098E-01 -0.40547958955E-02  0.10594663335E+00  0.51100000000E-03 0.  1.
         11    1    4    4    0    0 -0.39237022240E-02 -0.25051944179E-01 -0.86859740566E-02  0.26808629443E-01  0.51100000000E-03 0. -1.
</event>
<event>
 8    1  0.1115874E+005  0.1043930E+01  0.7957747E-01            NaN
         13   -1    0    0    0    0  0.00000000000E+00  0.00000000000E+00  0.74505805969E-08  0.10566000000E+00  0.10566000000E+00 0.  1.
     999900   -1    0    0    0    0 -0.00000000000E+00 -0.00000000000E+00 -0.74505805969E-08  0.93827000000E+00  0.93827000000E+00 0.  1.
     999902    2    1    2    0    0 -0.12703025847E-01  0.56537297646E-02  0.19587220867E-01  0.10199093683E+01  0.10196264653E+01 0.  0.
     999903    2    3    3    0    0 -0.41678328256E-01 -0.22473124459E-01 -0.11735341740E+00  0.12840309996E+00  0.21757921237E-01 0.  0.
         14    1    1    2    0    0  0.12703025847E-01 -0.56537297646E-02 -0.19587220867E-01  0.24020631699E-01  0.00000000000E+00 0. -1.
     999901    1    3    3    0    0  0.28975302408E-01  0.28126854224E-01  0.13694063826E+00  0.89150626834E+00  0.88000000000E+00 0. -1.
        -11    1    4    4    0    0 -0.30051529872E-01 -0.10272353351E-01 -0.96458453153E-01  0.10155348343E+00  0.51100000000E-03 0. -1.
         11    1    4    4    0    0 -0.11626798384E-01 -0.12200771109E-01 -0.20894964243E-01  0.26849616534E-01  0.51100000000E-03 0.  1.
</event>
<event>
 8    1  0.1115874E+005  0.1043930E+01  0.7957747E-01            NaN
         13   -1    0    0    0    0  0.00000000000E+00  0.00000000000E+00  0.74505805969E-08  0.10566000000E+00  0.10566000000E+00 0.  1.
     999900   -1    0    0    0    0 -0.00000000000E+00 -0.00000000000E+00 -0.74505805969E-08  0.93827000000E+00  0.93827000000E+00 0. -1.
     999902    2    1    2    0    0 -0.46089935738E-03  0.19916805758E-01 -0.12431770187E-01  0.10204472299E+01  0.10201769987E+01 0.  0.
     999903    2    3    3    0    0  0.10884225122E+00  0.19738352046E-01 -0.68817935399E-01  0.13189413068E+00  0.20589203062E-01 0.  0.
         14    1    1    2    0    0  0.46089935738E-03 -0.19916805758E-01  0.12431770187E-01  0.23482770063E-01  0.00000000000E+00 0.  1.
     999901    1    3    3    0    0 -0.10930315058E+00  0.17845371228E-03  0.56386165211E-01  0.88855309926E+00  0.88000000000E+00 0.  1.
        -11    1    4    4    0    0  0.81652185161E-01  0.15523132577E-01 -0.40685542800E-01  0.92539837370E-01  0.51100000000E-03 0. -1.
         11    1    4    4    0    0  0.27190066061E-01  0.42152194687E-02 -0.28132392599E-01  0.39354293310E-01  0.51100000000E-03 0.  1.
</event>
<event>
 8    1  0.1115874E+005  0.1043930E+01  0.7957747E-01            NaN
         13   -1    0    0    0    0  0.00000000000E+00  0.00000000000E+00  0.74505805969E-08  0.10566000000E+00  0.10566000000E+00 0.  1.
     999900   -1    0    0    0    0 -0.00000000000E+00 -0.00000000000E+00 -0.74505805969E-08  0.93827000000E+00  0.93827000000E+00 0.  1.
     999902    2    1    2    0    0  0.16505352030E-01 -0.11727952816E-01  0.11632378583E-01  0.10205786884E+01  0.10203115090E+01 0.  0.
     999903    2    3    3    0    0  0.53603256662E-01 -0.10692657291E+00  0.56317650485E-01  0.13354103116E+00  0.18839536306E-01 0.  0.
         14    1    1    2    0    0 -0.16505352030E-01  0.11727952816E-01 -0.11632378583E-01  0.23351311620E-01  0.00000000000E+00 0. -1.
     999901    1    3    3    0    0 -0.37097904632E-01  0.95198620097E-01 -0.44685271902E-01  0.88703765722E+00  0.88000000000E+00 0. -1.
        -11    1    4    4    0    0  0.12770131293E-01 -0.14799805678E-01  0.38544744825E-02  0.19930594469E-01  0.51100000000E-03 0.  1.
         11    1    4    4    0    0  0.40833125369E-01 -0.92126767235E-01  0.52463176002E-01  0.11361043669E+00  0.51100000000E-03 0. -1.
</event>
<event>
 8    1  0.1115874E+005  0.1043930E+01  0.7957747E-01            NaN
         13   -1    0    0    0    0  0.00000000000E+00  0.00000000000E+00  0.74505805969E-08  0.10566000000E+00  0.10566000000E+00 0. -1.
     999900   -1    0    0    0    0 -0.00000000000E+00 -0.00000000000E+00 -0.74505805969E-08  0.93827000000E+00  0.93827000000E+00 0. -1.
     999902    2    1    2    0    0 -0.10429969621E-01  0.14683427968E-01  0.14030405263E-01  0.10210993278E+01  0.10208440613E+01 0.  0.
     999903    2    3    3    0    0 -0.65662121313E-01 -0.31327839927E-02  0.11470210666E+00  0.13346043753E+00  0.18269827634E-01 0.  0.
         14    1    1    2    0    0  0.10429969621E-01 -0.14683427968E-01 -0.14030405263E-01  0.22830672242E-01  0.00000000000E+00 0.  1.
     999901    1    3    3    0    0  0.55232151692E-01  0.17816211961E-01 -0.10067170140E+00  0.88763889023E+00  0.88000000000E+00 0. -1.
        -11    1    4    4    0    0 -0.53036213599E-01 -0.25328023105E-02  0.75762198271E-01  0.92517170559E-01  0.51100000000E-03 0. -1.
         11    1    4    4    0    0 -0.12625907714E-01 -0.59998168223E-03  0.38939908389E-01  0.40943266967E-01  0.51100000000E-03 0.  1.
</event>
<event>
 8    1  0.1115874E+005  0.1043930E+01  0.7957747E-01            NaN
         13   -1    0    0    0    0  0.00000000000E+00  0.00000000000E+00  0.74505805969E-08  0.10566000000E+00  0.10566000000E+00 0.  1.
     999900   -1    0    0    0    0 -0.00000000000E+00 -0.00000000000E+00 -0.74505805969E-08  0.93827000000E+00  0.93827000000E+00 0. -1.
     999902    2    1    2    0    0 -0.16651992487E-01 -0.20719622163E-02  0.15644592721E-01  0.10209880044E+01  0.10207302141E+01 0.  0.
     999903    2    3    3    0    0  0.61794676411E-01 -0.28679864614E-01  0.11116832858E+00  0.13195108477E+00  0.20287307014E-01 0.  0.
         14    1    1    2    0    0  0.16651992487E-01  0.20719622163E-02 -0.15644592721E-01  0.22941995611E-01  0.00000000000E+00 0.  1.
     999901    1    3    3    0    0 -0.78446668898E-01  0.26607902398E-01 -0.95523735859E-01  0.88903691962E+00  0.88000000000E+00 0.  1.
        -11    1    4    4    0    0  0.59307857974E-01 -0.25930116069E-01  0.92426995533E-01  0.11283972510E+00  0.51100000000E-03 0. -1.
         11    1    4    4    0    0  0.24868184365E-02 -0.27497485451E-02  0.18741333048E-01  0.19111359669E-01  0.51100000000E-03 0.  1.
</event>
<event>
 8    1  0.1115874E+005  0.1043930E+01  0.7957747E-01            NaN
         13   -1    0    0    0    0  0.00000000000E+00  0.00000000000E+00  0.74505805969E-08  0.10566000000E+00  0.10566000000E+00 0. -1.
     999900   -1    0    0    0    0 -0.00000000000E+00 -0.00000000000E+00 -0.74505805969E-08  0.93827000000E+00  0.93827000000E+00 0. -1.
     999902    2    1    2    0    0 -0.11778320235E-01  0.16719857178E-01 -0.98963524273E-03  0.10234541159E+01  0.10232492685E+01 0.  0.
     999903    2    3    3    0    0  0.10661590817E+00  0.25916802655E-01  0.71568285729E-01  0.13251841170E+00  0.20011930990E-01 0.  0.
         14    1    1    2    0    0  0.11778320235E-01 -0.16719857178E-01  0.98963524273E-03  0.20475884097E-01  0.00000000000E+00 0. -1.
     999901    1    3    3    0    0 -0.11839422841E+00 -0.91969454768E-02 -0.72557920972E-01  0.89093570420E+00  0.88000000000E+00 0. -1.
        -11    1    4    4    0    0  0.59514911994E-01  0.22356992203E-01  0.33583235562E-01  0.71902396913E-01  0.51100000000E-03 0. -1.
         11    1    4    4    0    0  0.47100996180E-01  0.35598104519E-02  0.37985050167E-01  0.60616014788E-01  0.51100000000E-03 0.  1.
</event>
<event>
 8    1  0.1115874E+005  0.1043930E+01  0.7957747E-01            NaN
         13   -1    0    0    0    0  0.00000000000E+00  0.00000000000E+00  0.74505805969E-08  0.10566000000E+00  0.10566000000E+00 0.  1.
     999900   -1    0    0    0    0 -0.00000000000E+00 -0.00000000000E+00 -0.74505805969E-08  0.93827000000E+00  0.93827000000E+00 0. -1.
     999902    2    1    2    0    0 -0.30312566027E-02 -0.14392921122E-01 -0.18773048080E-01  0.10200810581E+01  0.10198022323E+01 0.  0.
     999903    2    3    3    0    0  0.19806432981E-01 -0.26205067587E-01  0.12244767747E+00  0.12845087682E+00  0.20668664264E-01 0.  0.
         14    1    1    2    0    0  0.30312566027E-02  0.14392921122E-01  0.18773048080E-01  0.23848941889E-01  0.00000000000E+00 0.  1.
     999901    1    3    3    0    0 -0.22837689583E-01  0.11812146465E-01 -0.14122072555E+00  0.89163018129E+00  0.88000000000E+00 0. -1.
        -11    1    4    4    0    0  0.14008710398E-01 -0.15661622552E-01  0.10600938155E+00  0.10807303311E+00  0.51100000000E-03 0. -1.
         11    1    4    4    0    0  0.57977225825E-02 -0.10543445035E-01  0.16438295917E-01  0.20377843704E-01  0.51100000000E-03 0.  1.
</event>
<event>
 8    1  0.1115874E+005  0.1043930E+01  0.7957747E-01            NaN
         13   -1    0    0    0    0  0.00000000000E+00  0.00000000000E+00  0.74505805969E-08  0.10566000000E+00  0.10566000000E+00 0.  1.
     999900   -1    0    0    0    0 -0.00000000000E+00 -0.00000000000E+00 -0.74505805969E-08  0.93827000000E+00  0.93827000000E+00 0. -1.
     999902    2    1    2    0    0  0.22026643204E-01 -0.87787497584E-02  0.37601399456E-02  0.10199221240E+01  0.10196395250E+01 0.  0.
     999903    2    3    3    0    0  0.71575635949E-01 -0.10984583992E+00 -0.52512437179E-02  0.13270689394E+00  0.19858598369E-01 0.  0.
         14    1    1    2    0    0 -0.22026643204E-01  0.87787497584E-02 -0.37601399456E-02  0.24007876011E-01  0.00000000000E+00 0. -1.
     999901    1    3    3    0    0 -0.49548992746E-01  0.10106709016E+00  0.90113836635E-02  0.88721523005E+00  0.88000000000E+00 0.  1.
        -11    1    4    4    0    0  0.68923933039E-01 -0.10063438844E+00 -0.92114358576E-02  0.12232293470E+00  0.51100000000E-03 0. -1.
         11    1    4    4    0    0  0.26517029104E-02 -0.92114514761E-02  0.39601921397E-02  0.10383959236E-01  0.51100000000E-03 0.  1.
</event>
<event>
 8    1  0.1115874E+005  0.1043930E+01  0.7957747E-01            NaN
         13   -1    0    0    0    0  0.00000000000E+00  0.00000000000E+00  0.74505805969E-08  0.10566000000E+00  0.10566000000E+00 0. -1.
     999900   -1    0    0    0    0 -0.00000000000E+00 -0.00000000000E+00 -0.74505805969E-08  0.93827000000E+00  0.93827000000E+00 0. -1.
     999902    2    1    2    0    0 -0.85360188155E-02  0.16423809712E-01  0.14291936555E-01  0.10205448638E+01  0.10202769009E+01 0.  0.
     999903    2    3    3    0    0  0.69750610559E-01 -0.10412183539E+00  0.21860499871E-01  0.12885134472E+00  0.20451975516E-01 0.  0.
         14    1    1    2    0    0  0.85360188155E-02 -0.16423809712E-01 -0.14291936555E-01  0.23385136158E-01  0.00000000000E+00 0.  1.
     999901    1    3    3    0    0 -0.78286629375E-01  0.12054564511E+00 -0.75685633167E-02  0.89169351912E+00  0.88000000000E+00 0. -1.
        -11    1    4    4    0    0  0.23212852919E-01 -0.47072136166E-01  0.16551374048E-01  0.55034822138E-01  0.51100000000E-03 0.  1.
         11    1    4    4    0    0  0.46537757640E-01 -0.57049699228E-01  0.53091258230E-02  0.73816522583E-01  0.51100000000E-03 0. -1.
</event>
<event>
 8    1  0.1115874E+005  0.1043930E+01  0.7957747E-01            NaN
         13   -1    0    0    0    0  0.00000000000E+00  0.00000000000E+00  0.74505805969E-08  0.10566000000E+00  0.10566000000E+00 0.  1.
     999900   -1    0    0    0    0 -0.00000000000E+00 -0.00000000000E+00 -0.74505805969E-08  0.93827000000E+00  0.93827000000E+00 0.  1.
     999902    2    1    2    0    0  0.74437443510E-02  0.16938777085E-01  0.19941439260E-01  0.10167271969E+01  0.10163632226E+01 0.  0.
     999903    2    3    3    0    0 -0.98876528851E-01  0.53294098187E-01  0.59437510869E-01  0.12870374585E+00  0.20371736259E-01 0.  0.
         14    1    1    2    0    0 -0.74437443510E-02 -0.16938777085E-01 -0.19941439260E-01  0.27202803143E-01  0.00000000000E+00 0. -1.
     999901    1    3    3    0    0  0.10632027320E+00 -0.36355321102E-01 -0.39496071609E-01  0.88802345101E+00  0.88000000000E+00 0.  1.
        -11    1    4    4    0    0 -0.80283482877E-01  0.44374303991E-01  0.39041102283E-01  0.99694459555E-01  0.51100000000E-03 0. -1.
         11    1    4    4    0    0 -0.18593045974E-01  0.89197941961E-02  0.20396408586E-01  0.29009286294E-01  0.51100000000E-03 0.  1.
</event>
<event>
 8    1  0.1115874E+005  0.1043930E+01  0.7957747E-01            NaN
         13   -1    0    0    0    0  0.00000000000E+00  0.00000000000E+00  0.74505805969E-08  0.10566000000E+00  0.10566000000E+00 0.  1.
     999900   -1    0    0    0    0 -0.00000000000E+00 -0.00000000000E+00 -0.74505805969E-08  0.93827000000E+00  0.93827000000E+00 0. -1.
     999902    2    1    2    0    0  0.19905348303E-01  0.95409640846E-02  0.97598121227E-02  0.10197948220E+01  0.10195091819E+01 0.  0.
     999903    2    3    3    0    0 -0.60155995052E-01  0.90255295132E-01  0.68842847556E-01  0.13051678500E+00  0.23033268681E-01 0.  0.
         14    1    1    2    0    0 -0.19905348303E-01 -0.95409640846E-02 -0.97598121227E-02  0.24135178048E-01  0.00000000000E+00 0. -1.
     999901    1    3    3    0    0  0.80061343355E-01 -0.80714331047E-01 -0.59083035433E-01  0.88927803696E+00  0.88000000000E+00 0. -1.
        -11    1    4    4    0    0 -0.61916865361E-01  0.89489711276E-01  0.66923120847E-01  0.12775395049E+00  0.51100000000E-03 0. -1.
         11    1    4    4    0    0  0.17608703087E-02  0.76558385590E-03  0.19197267088E-02  0.27628345085E-02  0.51100000000E-03 0.  1.
</event>
<event>
 8    1  0.1115874E+005  0.1043930E+01  0.7957747E-01            NaN
         13   -1    0    0    0    0  0.00000000000E+00  0.00000000000E+00  0.74505805969E-08  0.10566000000E+00  0.10566000000E+00 0. -1.
     999900   -1    0    0    0    0 -0.00000000000E+00 -0.00000000000E+00 -0.74505805969E-08  0.93827000000E+00  0.93827000000E+00 0.  1.
     999902    2    1    2    0    0  0.36420332757E-02 -0.20833808205E-01  0.12903915889E-01  0.10191545481E+01  0.10188533604E+01 0.  0.
     999903    2    3    3    0    0 -0.39387683878E-01 -0.87456833262E-01  0.88923952408E-01  0.13232354394E+00  0.20049030963E-01 0.  0.
         14    1    1    2    0    0 -0.36420332757E-02  0.20833808205E-01 -0.12903915889E-01  0.24775451882E-01  0.00000000000E+00 0. -1.
     999901    1    3    3    0    0  0.43029717154E-01  0.66623025057E-01 -0.76020036519E-01  0.88683100418E+00  0.88000000000E+00 0.  1.
        -11    1    4    4    0    0 -0.35504089006E-01 -0.86976181161E-01  0.84082852052E-01  0.12607768857E+00  0.51100000000E-03 0.  1.
         11    1    4    4    0    0 -0.38835948723E-02 -0.48065210055E-03  0.48411003554E-02  0.62458553637E-02  0.51100000000E-03 0. -1.
</event>
<event>
 8    1  0.1115874E+005  0.1043930E+01  0.7957747E-01            NaN
         13   -1    0    0    0    0  0.00000000000E+00  0.00000000000E+00  0.74505805969E-08  0.10566000000E+00  0.10566000000E+00 0. -1.
     999900   -1    0    0    0    0 -0.00000000000E+00 -0.00000000000E+00 -0.74505805969E-08  0.93827000000E+00  0.93827000000E+00 0.  1.
     999902    2    1    2    0    0  0.95393160907E-02 -0.15796086981E-01  0.14440288990E-01  0.10204984644E+01  0.10202294247E+01 0.  0.
     999903    2    3    3    0    0 -0.94601904565E-01  0.72038321326E-01 -0.43490796519E-01  0.12813290712E+00  0.19686351042E-01 0.  0.
         14    1    1    2    0    0 -0.95393160907E-02  0.15796086981E-01 -0.14440288990E-01  0.23431535620E-01  0.00000000000E+00 0.  1.
     999901    1    3    3    0    0  0.10414122066E+00 -0.87834408308E-01  0.57931085509E-01  0.89236555726E+00  0.88000000000E+00 0. -1.
        -11    1    4    4    0    0 -0.35258673565E-01  0.23484886132E-01 -0.25234413558E-01  0.49312784213E-01  0.51100000000E-03 0. -1.
         11    1    4    4    0    0 -0.59343231000E-01  0.48553435195E-01 -0.18256382961E-01  0.78820122904E-01  0.51100000000E-03 0.  1.
</event>
<event>
 8    1  0.1115874E+005  0.1043930E+01  0.7957747E-01            NaN
         13   -1    0    0    0    0  0.00000000000E+00  0.00000000000E+00  0.74505805969E-08  0.10566000000E+00  0.10566000000E+00 0.  1.
     999900   -1    0    0    0    0 -0.00000000000E+00 -0.00000000000E+00 -0.74505805969E-08  0.93827000000E+00  0.93827000000E+00 0.  1.
     999902    2    1    2    0    0  0.90518450400E-02  0.19835330362E-01 -0.72917688525E-02  0.10209398690E+01  0.10206809835E+01 0.  0.
     999903    2    3    3    0    0 -0.47078775144E-01  0.12227644099E+00  0.83822790312E-02  0.13308261505E+00  0.21743521661E-01 0.  0.
         14    1    1    2    0    0 -0.90518450400E-02 -0.19835330362E-01  0.72917688525E-02  0.22990130974E-01  0.00000000000E+00 0.  1.
     999901    1    3    3    0    0  0.56130620184E-01 -0.10244111063E+00 -0.15674047884E-01  0.88785725398E+00  0.88000000000E+00 0.  1.
        -11    1    4    4    0    0 -0.46719116054E-02  0.33355784449E-01 -0.34351148615E-02  0.33859950522E-01  0.51100000000E-03 0.  1.
         11    1    4    4    0    0 -0.42406863539E-01  0.88920656545E-01  0.11817393893E-01  0.99222664523E-01  0.51100000000E-03 0. -1.
</event>
<event>
 8    1  0.1115874E+005  0.1043930E+01  0.7957747E-01            NaN
         13   -1    0    0    0    0  0.00000000000E+00  0.00000000000E+00  0.74505805969E-08  0.10566000000E+00  0.10566000000E+00 0. -1.
     999900   -1    0    0    0    0 -0.00000000000E+00 -0.00000000000E+00 -0.74505805969E-08  0.93827000000E+00  0.93827000000E+00 0. -1.
     999902    2    1    2    0    0 -0.83314525646E-02  0.88373867988E-02 -0.20184021447E-01  0.10203735311E+01  0.10201015810E+01 0.  0.
     999903    2    3    3    0    0  0.51495087916E-01 -0.75817410036E-01  0.86791281366E-01  0.12785497944E+00  0.20350565151E-01 0.  0.
         14    1    1    2    0    0  0.83314525646E-02 -0.88373867988E-02  0.20184021447E-01  0.23556468942E-01  0.00000000000E+00 0. -1.
     999901    1    3    3    0    0 -0.59826540480E-01  0.84654796835E-01 -0.10697530281E+00  0.89251855162E+00  0.88000000000E+00 0. -1.
        -11    1    4    4    0    0  0.38617639326E-01 -0.46835555529E-01  0.45903532829E-01  0.76107074415E-01  0.51100000000E-03 0. -1.
         11    1    4    4    0    0  0.12877448589E-01 -0.28981854507E-01  0.40887748537E-01  0.51747905023E-01  0.51100000000E-03 0.  1.
</event>
<event>
 8    1  0.1115874E+005  0.1043930E+01  0.7957747E-01            NaN
         13   -1    0    0    0    0  0.00000000000E+00  0.00000000000E+00  0.74505805969E-08  0.10566000000E+00  0.10566000000E+00 0. -1.
     999900   -1    0    0    0    0 -0.00000000000E+00 -0.00000000000E+00 -0.74505805969E-08  0.93827000000E+00  0.93827000000E+00 0. -1.
     999902    2    1    2    0    0  0.14102862501E-01 -0.11554191892E-01  0.14998819921E-01  0.10203216396E+01  0.10200484761E+01 0.  0.
     999903    2    3    3    0    0  0.96540915898E-01  0.52274441027E-01  0.71459361752E-01  0.13237010951E+00  0.19043105925E-01 0.  0.
         14    1    1    2    0    0 -0.14102862501E-01  0.11554191892E-01 -0.14998819921E-01  0.23608360384E-01  0.00000000000E+00 0. -1.
     999901    1    3    3    0    0 -0.82438053397E-01 -0.63828632919E-01 -0.56460541831E-01  0.88795153010E+00  0.88000000000E+00 0. -1.
        -11    1    4    4    0    0  0.51780886195E-01  0.26981944518E-01  0.26715676734E-01  0.64212724669E-01  0.51100000000E-03 0.  1.
         11    1    4    4    0    0  0.44760029704E-01  0.25292496509E-01  0.44743685018E-01  0.68157384844E-01  0.51100000000E-03 0. -1.
</event>
<event>
 8    1  0.1115874E+005  0.1043930E+01  0.7957747E-01            NaN
         13   -1    0    0    0    0  0.00000000000E+00  0.00000000000E+00  0.74505805969E-08  0.10566000000E+00  0.10566000000E+00 0.  1.
     999900   -1    0    0    0    0 -0.00000000000E+00 -0.00000000000E+00 -0.74505805969E-08  0.93827000000E+00  0.93827000000E+00 0.  1.
     999902    2    1    2    0    0  0.34029614585E-02  0.20653229353E-01 -0.11596803115E-01  0.10200004812E+01  0.10197197457E+01 0.  0.
     999903    2    3    3    0    0  0.20553207762E-01  0.12921330197E+00 -0.13944634370E-01  0.13316062379E+00  0.20464289517E-01 0.  0.
         14    1    1    2    0    0 -0.34029614585E-02 -0.20653229353E-01  0.11596803115E-01  0.23929518840E-01  0.00000000000E+00 0.  1.
     999901    1    3    3    0    0 -0.17150246303E-01 -0.10856007261E+00  0.23478312549E-02  0.88683985737E+00  0.88000000000E+00 0.  1.
        -11    1    4    4    0    0  0.38728523298E-02  0.20795814823E-01 -0.99791260442E-02  0.23394635644E-01  0.51100000000E-03 0. -1.
         11    1    4    4    0    0  0.16680355432E-01  0.10841748714E+00 -0.39655083262E-02  0.10976598814E+00  0.51100000000E-03 0.  1.
</event>
<event>
 8    1  0.1115874E+005  0.1043930E+01  0.7957747E-01            NaN
         13   -1    0    0    0    0  0.00000000000E+00  0.00000000000E+00  0.74505805969E-08  0.10566000000E+00  0.10566000000E+00 0.  1.
     999900   -1    0    0    0    0 -0.00000000000E+00 -0.00000000000E+00 -0.74505805969E-08  0.93827000000E+00  0.93827000000E+00 0.  1.
     999902    2    1    2    0    0 -0.12152577246E-01 -0.39849527281E-02  0.19857943212E-01  0.10203100320E+01  0.10200365966E+01 0.  0.
     999903    2    3    3    0    0 -0.90137306686E-01  0.53790382408E-01  0.79277988910E-01  0.13298238716E+00  0.19523741285E-01 0.  0.
         14    1    1    2    0    0  0.12152577246E-01  0.39849527281E-02 -0.19857943212E-01  0.23619968048E-01  0.00000000000E+00 0. -1.
     999901    1    3    3    0    0  0.77984729440E-01 -0.57775335136E-01 -0.59420045698E-01  0.88732764479E+00  0.88000000000E+00 0.  1.
        -11    1    4    4    0    0 -0.20926830311E-01  0.76895523819E-02  0.25840983406E-01  0.34133253392E-01  0.51100000000E-03 0.  1.
         11    1    4    4    0    0 -0.69210476375E-01  0.46100830026E-01  0.53437005504E-01  0.98849133771E-01  0.51100000000E-03 0. -1.
</event>
<event>
 8    1  0.1115874E+005  0.1043930E+01  0.7957747E-01            NaN
         13   -1    0    0    0    0  0.00000000000E+00  0.00000000000E+00  0.74505805969E-08  0.10566000000E+00  0.10566000000E+00 0. -1.
     999900   -1    0    0    0    0 -0.00000000000E+00 -0.00000000000E+00 -0.74505805969E-08  0.93827000000E+00  0.93827000000E+00 0.  1.
     999902    2    1    2    0    0 -0.22041481402E-01 -0.87977465167E-02  0.18678486687E-02  0.10201242002E+01  0.10198463942E+01 0.  0.
     999903    2    3    3    0    0  0.81819932806E-01 -0.89677329763E-01 -0.40192246256E-01  0.12933929240E+00  0.19409044867E-01 0.  0.
         14    1    1    2    0    0  0.22041481402E-01  0.87977465167E-02 -0.18678486687E-02  0.23805799814E-01  0.00000000000E+00 0. -1.
     999901    1    3    3    0    0 -0.10386141421E+00  0.80879583246E-01  0.42060094925E-01  0.89078490778E+00  0.88000000000E+00 0. -1.
        -11    1    4    4    0    0  0.91792058518E-02 -0.46537688523E-02  0.54988225436E-03  0.10318860213E-01  0.51100000000E-03 0. -1.
         11    1    4    4    0    0  0.72640726954E-01 -0.85023560910E-01 -0.40742128511E-01  0.11902043219E+00  0.51100000000E-03 0.  1.
</event>
<event>
 8    1  0.1115874E+005  0.1043930E+01  0.7957747E-01            NaN
         13   -1    0    0    0    0  0.00000000000E+00  0.00000000000E+00  0.74505805969E-08  0.10566000000E+00  0.10566000000E+00 0. -1.
     999900   -1    0    0    0    0 -0.00000000000E+00 -0.00000000000E+00 -0.74505805969E-08  0.93827000000E+00  0.93827000000E+00 0. -1.
     999902    2    1    2    0    0 -0.60001850309E-02  0.20920129778E-01  0.88863197938E-02  0.10204221135E+01  0.10201512971E+01 0.  0.
     999903    2    3    3    0    0 -0.52188172321E-01 -0.10734536947E+00 -0.42270724269E-01  0.12845663675E+00  0.21625441466E-01 0.  0.
         14    1    1    2    0    0  0.60001850309E-02 -0.20920129778E-01 -0.88863197938E-02  0.23507886545E-01  0.00000000000E+00 0.  1.
     999901    1    3    3    0    0  0.46187987290E-01  0.12826549925E+00  0.51157044063E-01  0.89196547670E+00  0.88000000000E+00 0. -1.
        -11    1    4    4    0    0 -0.34834990321E-01 -0.82193986354E-01 -0.39960872474E-01  0.97808283869E-01  0.51100000000E-03 0.  1.
         11    1    4    4    0    0 -0.17353182000E-01 -0.25151383119E-01 -0.23098517950E-02  0.30648352886E-01  0.51100000000E-03 0. -1.
</event>
<event>
 8    1  0.1115874E+005  0.1043930E+01  0.7957747E-01            NaN
         13   -1    0    0    0    0  0.00000000000E+00  0.00000000000E+00  0.74505805969E-08  0.10566000000E+00  0.10566000000E+00 0.  1.
     999900   -1    0    0    0    0 -0.00000000000E+00 -0.00000000000E+00 -0.74505805969E-08  0.93827000000E+00  0.93827000000E+00 0.  1.
     999902    2    1    2    0    0  0.16675076817E-01 -0.20411354647E-01 -0.11572549721E-01  0.10151444916E+01  0.10147362876E+01 0.  0.
     999903    2    3    3    0    0 -0.41739338747E-01 -0.89670133747E-01  0.75622973498E-01  0.12620575262E+00  0.20643463597E-01 0.  0.
         14    1    1    2    0    0 -0.16675076817E-01  0.20411354647E-01  0.11572549721E-01  0.28785508375E-01  0.00000000000E+00 0. -1.
     999901    1    3    3    0    0  0.58414415563E-01  0.69258779100E-01 -0.87195523219E-01  0.88893873900E+00  0.88000000000E+00 0.  1.
        -11    1    4    4    0    0 -0.22285499707E-01 -0.29708358065E-01  0.36132245868E-01  0.51817278475E-01  0.51100000000E-03 0.  1.
         11    1    4    4    0    0 -0.19453839040E-01 -0.59961775682E-01  0.39490727630E-01  0.74388474148E-01  0.51100000000E-03 0. -1.
</event>
<event>
 8    1  0.1115874E+005  0.1043930E+01  0.7957747E-01            NaN
         13   -1    0    0    0    0  0.00000000000E+00  0.00000000000E+00  0.74505805969E-08  0.10566000000E+00  0.10566000000E+00 0. -1.
     999900   -1    0    0    0    0 -0.00000000000E+00 -0.00000000000E+00 -0.74505805969E-08  0.93827000000E+00  0.93827000000E+00 0.  1.
     999902    2    1    2    0    0 -0.17530488838E-01 -0.11576998125E-01  0.11126425169E-01  0.10201572790E+01  0.10198802536E+01 0.  0.
     999903    2    3    3    0    0 -0.12169558885E+00  0.12788281313E-01  0.47847423860E-01  0.13291860392E+00  0.20115238347E-01 0.  0.
         14    1    1    2    0    0  0.17530488838E-01  0.11576998125E-01 -0.11126425169E-01  0.23772720953E-01  0.00000000000E+00 0.  1.
     999901    1    3    3    0    0  0.10416510001E+00 -0.24365279438E-01 -0.36720998691E-01  0.88723867513E+00  0.88000000000E+00 0.  1.
        -11    1    4    4    0    0 -0.27110407029E-01  0.88167715553E-02  0.17720471297E-01  0.33570609972E-01  0.51100000000E-03 0. -1.
         11    1    4    4    0    0 -0.94585181817E-01  0.39715097579E-02  0.30126952563E-01  0.99347993945E-01  0.51100000000E-03 0.  1.
</event>
<event>
 8    1  0.1115874E+005  0.1043930E+01  0.7957747E-01            NaN
         13   -1    0    0    0    0  0.00000000000E+00  0.00000000000E+00  0.74505805969E-08  0.10566000000E+00  0.10566000000E+00 0.  1.
     999900   -1    0    0    0    0 -0.00000000000E+00 -0.00000000000E+00 -0.74505805969E-08  0.93827000000E+00  0.93827000000E+00 0.  1.
     999902    2    1    2    0    0 -0.63424135193E-02 -0.14684284185E-02  0.22547350370E-01  0.10204616064E+01  0.10201917097E+01 0.  0.
     999903    2    3    3    0    0  0.80065291034E-01 -0.74863762397E-01 -0.64891306826E-01  0.12889069767E+00  0.19669684677E-01 0.  0.
         14    1    1    2    0    0  0.63424135193E-02  0.14684284185E-02 -0.22547350370E-01  0.23468393638E-01  0.00000000000E+00 0.  1.
     999901    1    3    3    0    0 -0.86407704553E-01  0.73395333979E-01  0.87438657196E-01  0.89157090869E+00  0.88000000000E+00 0. -1.
        -11    1    4    4    0    0  0.38500865407E-02 -0.10597691928E-01 -0.10018334165E-01  0.15091798468E-01  0.51100000000E-03 0.  1.
         11    1    4    4    0    0  0.76215204493E-01 -0.64266070469E-01 -0.54872972661E-01  0.11379889920E+00  0.51100000000E-03 0. -1.
</event>
<event>
 8    1  0.1115874E+005  0.1043930E+01  0.7957747E-01            NaN
         13   -1    0    0    0    0  0.00000000000E+00  0.00000000000E+00  0.74505805969E-08  0.10566000000E+00  0.10566000000E+00 0. -1.
     999900   -1    0    0    0    0 -0.00000000000E+00 -0.00000000000E+00 -0.74505805969E-08  0.93827000000E+00  0.93827000000E+00 0. -1.
     999902    2    1    2    0    0  0.95708099238E-02  0.64935816423E-03  0.16422087174E-01  0.10249114034E+01  0.10247349305E+01 0.  0.
     999903    2    3    3    0    0 -0.30542748325E-01 -0.68677161380E-01  0.11166965791E+00  0.13615532688E+00  0.20463346922E-01 0.  0.
         14    1    1    2    0    0 -0.95708099238E-02 -0.64935816423E-03 -0.16422087174E-01  0.19018596578E-01  0.00000000000E+00 0.  1.
     999901    1    3    3    0    0  0.40113558248E-01  0.69326519544E-01 -0.95247570740E-01  0.88875607655E+00  0.88000000000E+00 0. -1.
        -11    1    4    4    0    0 -0.27129094202E-01 -0.36370619735E-01  0.63173784211E-01  0.77781732204E-01  0.51100000000E-03 0.  1.
         11    1    4    4    0    0 -0.34136541225E-02 -0.32306541645E-01  0.48495873703E-01  0.58373594671E-01  0.51100000000E-03 0. -1.
</event>
<event>
 8    1  0.1115874E+005  0.1043930E+01  0.7957747E-01            NaN
         13   -1    0    0    0    0  0.00000000000E+00  0.00000000000E+00  0.74505805969E-08  0.10566000000E+00  0.10566000000E+00 0.  1.
     999900   -1    0    0    0    0 -0.00000000000E+00 -0.00000000000E+00 -0.74505805969E-08  0.93827000000E+00  0.93827000000E+00 0. -1.
     999902    2    1    2    0    0  0.17230612522E-01  0.13070560096E-01  0.54462933456E-02  0.10216276311E+01  0.10213841691E+01 0.  0.
     999903    2    3    3    0    0  0.11201092118E+00 -0.11592366646E-02  0.70745578872E-01  0.13401860073E+00  0.20205398257E-01 0.  0.
         14    1    1    2    0    0 -0.17230612522E-01 -0.13070560096E-01 -0.54462933456E-02  0.22302368939E-01  0.00000000000E+00 0. -1.
     999901    1    3    3    0    0 -0.94780308663E-01  0.14229796761E-01 -0.65299285526E-01  0.88760903033E+00  0.88000000000E+00 0. -1.
        -11    1    4    4    0    0  0.78288606422E-01  0.61391766323E-02  0.41704338698E-01  0.88917424459E-01  0.51100000000E-03 0. -1.
         11    1    4    4    0    0  0.33722314763E-01 -0.72984132969E-02  0.29041240174E-01  0.45101176275E-01  0.51100000000E-03 0.  1.
</event>
<event>
 8    1  0.1115874E+005  0.1043930E+01  0.7957747E-01            NaN
         13   -1    0    0    0    0  0.00000000000E+00  0.00000000000E+00  0.74505805969E-08  0.10566000000E+00  0.10566000000E+00 0.  1.
     999900   -1    0    0    0    0 -0.00000000000E+00 -0.00000000000E+00 -0.74505805969E-08  0.93827000000E+00  0.93827000000E+00 0. -1.
     999902    2    1    2    0    0  0.69530645093E-03 -0.31746855804E-02 -0.23543144244E-01  0.10201636010E+01  0.10198867247E+01 0.  0.
     999903    2    3    3    0    0  0.77525066582E-01 -0.91918230529E-01 -0.50420726785E-01  0.13196281671E+00  0.20318421476E-01 0.  0.
         14    1    1    2    0    0 -0.69530645093E-03  0.31746855804E-02  0.23543144244E-01  0.23766398980E-01  0.00000000000E+00 0.  1.
     999901    1    3    3    0    0 -0.76829760131E-01  0.88743544949E-01  0.26877582540E-01  0.88820078431E+00  0.88000000000E+00 0.  1.
        -11    1    4    4    0    0  0.96702526521E-02 -0.52925066993E-02 -0.28132055299E-03  0.11039233478E-01  0.51100000000E-03 0.  1.
         11    1    4    4    0    0  0.67854813930E-01 -0.86625723830E-01 -0.50139406232E-01  0.12092358323E+00  0.51100000000E-03 0. -1.
</event>
<event>
 8    1  0.1115874E+005  0.1043930E+01  0.7957747E-01            NaN
         13   -1    0    0    0    0  0.00000000000E+00  0.00000000000E+00  0.74505805969E-08  0.10566000000E+00  0.10566000000E+00 0.  1.
     999900   -1    0    0    0    0 -0.00000000000E+00 -0.00000000000E+00 -0.74505805969E-08  0.93827000000E+00  0.93827000000E+00 0.  1.
     999902    2    1    2    0    0 -0.66879703397E-02 -0.21721018886E-01 -0.13102003162E-01  0.10176965463E+01  0.10173583765E+01 0.  0.
     999903    2    3    3    0    0 -0.62667194492E-01 -0.67115750218E-02  0.10888599490E+00  0.12739321108E+00  0.20016189470E-01 0.  0.
         14    1    1    2    0    0  0.66879703397E-02  0.21721018886E-01  0.13102003162E-01  0.26233453748E-01  0.00000000000E+00 0.  1.
     999901    1    3    3    0    0  0.55979224152E-01 -0.15009443864E-01 -0.12198799806E+00  0.89030333517E+00  0.88000000000E+00 0.  1.
        -11    1    4    4    0    0 -0.17452537735E-01 -0.33654801416E-02  0.50040433057E-01  0.53105777383E-01  0.51100000000E-03 0. -1.
         11    1    4    4    0    0 -0.45214656756E-01 -0.33460948803E-02  0.58845561839E-01  0.74287433700E-01  0.51100000000E-03 0.  1.
</event>
<event>
 8    1  0.1115874E+005  0.1043930E+01  0.7957747E-01            NaN
         13   -1    0    0    0    0  0.00000000000E+00  0.00000000000E+00  0.74505805969E-08  0.10566000000E+00  0.10566000000E+00 0.  1.
     999900   -1    0    0    0    0 -0.00000000000E+00 -0.00000000000E+00 -0.74505805969E-08  0.93827000000E+00  0.93827000000E+00 0. -1.
     999902    2    1    2    0    0  0.75889308928E-02 -0.10251702261E-01 -0.20454195008E-01  0.10198247440E+01  0.10195398203E+01 0.  0.
     999903    2    3    3    0    0 -0.10785674988E+00  0.61051044634E-01 -0.31399540081E-01  0.12935768261E+00  0.19676645733E-01 0.  0.
         14    1    1    2    0    0 -0.75889308928E-02  0.10251702261E-01  0.20454195008E-01  0.24105255957E-01  0.00000000000E+00 0.  1.
     999901    1    3    3    0    0  0.11544568077E+00 -0.71302746895E-01  0.10945345073E-01  0.89046706144E+00  0.88000000000E+00 0. -1.
        -11    1    4    4    0    0 -0.80902653217E-01  0.51353611630E-01 -0.30962298864E-01  0.10070430873E+00  0.51100000000E-03 0.  1.
         11    1    4    4    0    0 -0.26954096660E-01  0.96974330036E-02 -0.43724121680E-03  0.28653373876E-01  0.51100000000E-03 0. -1.
</event>
<event>
 8    1  0.1115874E+005  0.1043930E+01  0.7957747E-01            NaN
         13   -1    0    0    0    0  0.00000000000E+00  0.00000000000E+00  0.74505805969E-08  0.10566000000E+00  0.10566000000E+00 0. -1.
     999900   -1    0    0    0    0 -0.00000000000E+00 -0.00000000000E+00 -0.74505805969E-08  0.93827000000E+00  0.93827000000E+00 0.  1.
     999902    2    1    2    0    0  0.22583669179E-01 -0.62331145061E-02 -0.53528832025E-02  0.10198982046E+01  0.10196150355E+01 0.  0.
     999903    2    3    3    0    0  0.70059929656E-01  0.76207739032E-01  0.77374531835E-01  0.13091321328E+00  0.20867151314E-01 0.  0.
         14    1    1    2    0    0 -0.22583669179E-01  0.62331145061E-02  0.53528832025E-02  0.24031795368E-01  0.00000000000E+00 0. -1.
     999901    1    3    3    0    0 -0.47476260477E-01 -0.82440853538E-01 -0.82727415038E-01  0.88898499135E+00  0.88000000000E+00 0.  1.
        -11    1    4    4    0    0  0.43661650954E-01  0.35912908645E-01  0.50176305093E-01  0.75591001350E-01  0.51100000000E-03 0. -1.
         11    1    4    4    0    0  0.26398278702E-01  0.40294830387E-01  0.27198226742E-01  0.55322211934E-01  0.51100000000E-03 0.  1.
</event>
<event>
 8    1  0.1115874E+005  0.1043930E+01  0.7957747E-01            NaN
         13   -1    0    0    0    0  0.00000000000E+00  0.00000000000E+00  0.74505805969E-08  0.10566000000E+00  0.10566000000E+00 0. -1.
     999900   -1    0    0    0    0 -0.00000000000E+00 -0.00000000000E+00 -0.74505805969E-08  0.93827000000E+00  0.93827000000E+00 0.  1.
     999902    2    1    2    0    0 -0.55302631230E-02 -0.39507895796E-03  0.23674738057E-01  0.10196147143E+01  0.10193247434E+01 0.  0.
     999903    2    3    3    0    0 -0.12458051898E+00  0.33924357219E-01  0.36486857209E-03  0.13062982288E+00  0.19820438314E-01 0.  0.
         14    1    1    2    0    0  0.55302631230E-02  0.39507895796E-03 -0.23674738057E-01  0.24315285721E-01  0.00000000000E+00 0.  1.
     999901    1    3    3    0    0  0.11905025586E+00 -0.34319436177E-01  0.23309869485E-01  0.88898489140E+00  0.88000000000E+00 0.  1.
        -11    1    4    4    0    0 -0.51440065125E-01  0.55750951860E-02  0.53971316596E-02  0.52024533997E-01  0.51100000000E-03 0. -1.
         11    1    4    4    0    0 -0.73140453854E-01  0.28349262033E-01 -0.50322630875E-02  0.78605288885E-01  0.51100000000E-03 0.  1.
</event>
<event>
 8    1  0.1115874E+005  0.1043930E+01  0.7957747E-01            NaN
         13   -1    0    0    0    0  0.00000000000E+00  0.00000000000E+00  0.74505805969E-08  0.10566000000E+00  0.10566000000E+00 0.  1.
     999900   -1    0    0    0    0 -0.00000000000E+00 -0.00000000000E+00 -0.74505805969E-08  0.93827000000E+00  0.93827000000E+00 0.  1.
     999902    2    1    2    0    0  0.13635289886E-01  0.50913713933E-02 -0.18216072112E-01  0.10206133005E+01  0.10203469217E+01 0.  0.
     999903    2    3    3    0    0  0.48496451091E-01  0.83515058116E-01  0.82208061261E-01  0.13075343412E+00  0.31806045004E-01 0.  0.
         14    1    1    2    0    0 -0.13635289886E-01 -0.50913713933E-02  0.18216072112E-01  0.23316699512E-01  0.00000000000E+00 0.  1.
     999901    1    3    3    0    0 -0.34861161205E-01 -0.78423686722E-01 -0.10042413337E+00  0.88985986636E+00  0.88000000000E+00 0.  1.
        -11    1    4    4    0    0  0.24797723688E-01  0.14591530974E-01  0.24281458752E-01  0.37652227509E-01  0.51100000000E-03 0.  1.
         11    1    4    4    0    0  0.23698727403E-01  0.68923527142E-01  0.57926602508E-01  0.93101206616E-01  0.51100000000E-03 0. -1.
</event>
<event>
 8    1  0.1115874E+005  0.1043930E+01  0.7957747E-01            NaN
         13   -1    0    0    0    0  0.00000000000E+00  0.00000000000E+00  0.74505805969E-08  0.10566000000E+00  0.10566000000E+00 0.  1.
     999900   -1    0    0    0    0 -0.00000000000E+00 -0.00000000000E+00 -0.74505805969E-08  0.93827000000E+00  0.93827000000E+00 0. -1.
     999902    2    1    2    0    0  0.20584787612E-01 -0.10256498346E-01  0.56307188212E-02  0.10202522840E+01  0.10199774943E+01 0.  0.
     999903    2    3    3    0    0 -0.14006896877E-01  0.12659473895E+00 -0.41325734119E-02  0.12894977216E+00  0.19711531793E-01 0.  0.
         14    1    1    2    0    0 -0.20584787612E-01  0.10256498346E-01 -0.56307188212E-02  0.23677715975E-01  0.00000000000E+00 0. -1.
     999901    1    3    3    0    0  0.34591684489E-01 -0.13685123730E+00  0.97632922331E-02  0.89130251187E+00  0.88000000000E+00 0.  1.
        -11    1    4    4    0    0 -0.14128351634E-01  0.75801836952E-01 -0.10249553718E-01  0.77787166536E-01  0.51100000000E-03 0.  1.
         11    1    4    4    0    0  0.12145475678E-03  0.50792902001E-01  0.61169803058E-02  0.51162605621E-01  0.51100000000E-03 0. -1.
</event>
<event>
 8    1  0.1115874E+005  0.1043930E+01  0.7957747E-01            NaN
         13   -1    0    0    0    0  0.00000000000E+00  0.00000000000E+00  0.74505805969E-08  0.10566000000E+00  0.10566000000E+00 0. -1.
     999900   -1    0    0    0    0 -0.00000000000E+00 -0.00000000000E+00 -0.74505805969E-08  0.93827000000E+00  0.93827000000E+00 0. -1.
     999902    2    1    2    0    0  0.74040712210E-02 -0.14432067186E-01 -0.15864351982E-01  0.10212411812E+01  0.10209891124E+01 0.  0.
     999903    2    3    3    0    0 -0.98153350045E-01 -0.84719981651E-01  0.99489870221E-02  0.13177556155E+00  0.21313396314E-01 0.  0.
         14    1    1    2    0    0 -0.74040712210E-02  0.14432067186E-01  0.15864351982E-01  0.22688818782E-01  0.00000000000E+00 0. -1.
     999901    1    3    3    0    0  0.10555742127E+00  0.70287914465E-01 -0.25813339004E-01  0.88946561967E+00  0.88000000000E+00 0.  1.
        -11    1    4    4    0    0 -0.75864538827E-01 -0.69538404522E-01 -0.31902819119E-03  0.10291443463E+00  0.51100000000E-03 0. -1.
         11    1    4    4    0    0 -0.22288811219E-01 -0.15181577129E-01  0.10268015213E-01  0.28861126920E-01  0.51100000000E-03 0.  1.
</event>
<event>
 8    1  0.1115874E+005  0.1043930E+01  0.7957747E-01            NaN
         13   -1    0    0    0    0  0.00000000000E+00  0.00000000000E+00  0.74505805969E-08  0.10566000000E+00  0.10566000000E+00 0. -1.
     999900   -1    0    0    0    0 -0.00000000000E+00 -0.00000000000E+00 -0.74505805969E-08  0.93827000000E+00  0.93827000000E+00 0. -1.
     999902    2    1    2    0    0 -0.82138071122E-02  0.20612956681E-01  0.64180255476E-02  0.10208312628E+01  0.10205698973E+01 0.  0.
     999903    2    3    3    0    0 -0.22029328898E-01  0.88066920537E-01 -0.94034168764E-01  0.13244421353E+00  0.21400256514E-01 0.  0.
         14    1    1    2    0    0  0.82138071122E-02 -0.20612956681E-01 -0.64180255476E-02  0.23098737245E-01  0.00000000000E+00 0.  1.
     999901    1    3    3    0    0  0.13815521786E-01 -0.67453963856E-01  0.10045219431E+00  0.88838704922E+00  0.88000000000E+00 0.  1.
        -11    1    4    4    0    0 -0.13594694980E-01  0.21827918455E-01 -0.34129566647E-01  0.42735959053E-01  0.51100000000E-03 0. -1.
         11    1    4    4    0    0 -0.84346339178E-02  0.66239002082E-01 -0.59904602117E-01  0.89708254481E-01  0.51100000000E-03 0.  1.
</event>
<event>
 8    1  0.1115874E+005  0.1043930E+01  0.7957747E-01            NaN
         13   -1    0    0    0    0  0.00000000000E+00  0.00000000000E+00  0.74505805969E-08  0.10566000000E+00  0.10566000000E+00 0. -1.
     999900   -1    0    0    0    0 -0.00000000000E+00 -0.00000000000E+00 -0.74505805969E-08  0.93827000000E+00  0.93827000000E+00 0. -1.
     999902    2    1    2    0    0  0.45590697238E-02  0.87427949733E-02 -0.22326425672E-01  0.10195232209E+01  0.10192310372E+01 0.  0.
     999903    2    3    3    0    0 -0.78128636050E-01  0.68962877372E-01  0.72032943824E-01  0.12858696866E+00  0.22043168738E-01 0.  0.
         14    1    1    2    0    0 -0.45590697238E-02 -0.87427949733E-02  0.22326425672E-01  0.24406779058E-01  0.00000000000E+00 0. -1.
     999901    1    3    3    0    0  0.82687705774E-01 -0.60220082399E-01 -0.94359369496E-01  0.89093625228E+00  0.88000000000E+00 0. -1.
        -11    1    4    4    0    0 -0.30754231698E-02  0.11708574509E-01  0.80406012316E-02  0.14541710142E-01  0.51100000000E-03 0.  1.
         11    1    4    4    0    0 -0.75053212880E-01  0.57254302864E-01  0.63992342592E-01  0.11404525852E+00  0.51100000000E-03 0. -1.
</event>
<event>
 8    1  0.1115874E+005  0.1043930E+01  0.7957747E-01            NaN
         13   -1    0    0    0    0  0.00000000000E+00  0.00000000000E+00  0.74505805969E-08  0.10566000000E+00  0.10566000000E+00 0.  1.
     999900   -1    0    0    0    0 -0.00000000000E+00 -0.00000000000E+00 -0.74505805969E-08  0.93827000000E+00  0.93827000000E+00 0.  1.
     999902    2    1    2    0    0  0.12491279261E-01 -0.17767694852E-01  0.79700397522E-02  0.10207946467E+01  0.10205324425E+01 0.  0.
     999903    2    3    3    0    0  0.11408762742E+00  0.27862335134E-01  0.58026405580E-01  0.13236369422E+00  0.18994403209E-01 0.  0.
         14    1    1    2    0    0 -0.12491279261E-01  0.17767694852E-01 -0.79700397522E-02  0.23135353284E-01  0.00000000000E+00 0.  1.
     999901    1    3    3    0    0 -0.10159634816E+00 -0.45630029986E-01 -0.50056365828E-01  0.88843095250E+00  0.88000000000E+00 0. -1.
        -11    1    4    4    0    0  0.88465461387E-01  0.17475534999E-01  0.36345955669E-01  0.97225623148E-01  0.51100000000E-03 0.  1.
         11    1    4    4    0    0  0.25622166032E-01  0.10386800136E-01  0.21680449911E-01  0.35138071071E-01  0.51100000000E-03 0. -1.
</event>
<event>
 8    1  0.1115874E+005  0.1043930E+01  0.7957747E-01            NaN
         13   -1    0    0    0    0  0.00000000000E+00  0.00000000000E+00  0.74505805969E-08  0.10566000000E+00  0.10566000000E+00 0.  1.
     999900   -1    0    0    0    0 -0.00000000000E+00 -0.00000000000E+00 -0.74505805969E-08  0.93827000000E+00  0.93827000000E+00 0. -1.
     999902    2    1    2    0    0  0.17388061288E-01  0.11254787242E-01 -0.11906378436E-01  0.10200390653E+01  0.10197592452E+01 0.  0.
     999903    2    3    3    0    0 -0.12536000427E+00  0.18499924153E-01 -0.25912620077E-02  0.12845829300E+00  0.20915079136E-01 0.  0.
         14    1    1    2    0    0 -0.17388061288E-01 -0.11254787242E-01  0.11906378436E-01  0.23890934655E-01  0.00000000000E+00 0.  1.
     999901    1    3    3    0    0  0.14274806556E+00 -0.72451369107E-02 -0.93151164286E-02  0.89158077235E+00  0.88000000000E+00 0. -1.
        -11    1    4    4    0    0 -0.54636729348E-01  0.58713879633E-02 -0.11253926223E-01  0.56094183004E-01  0.51100000000E-03 0. -1.
         11    1    4    4    0    0 -0.70723274925E-01  0.12628536189E-01  0.86626642151E-02  0.72364109991E-01  0.51100000000E-03 0.  1.
</event>
<event>
 8    1  0.1115874E+005  0.1043930E+01  0.7957747E-01            NaN
         13   -1    0    0    0    0  0.00000000000E+00  0.00000000000E+00  0.74505805969E-08  0.10566000000E+00  0.10566000000E+00 0. -1.
     999900   -1    0    0    0    0 -0.00000000000E+00 -0.00000000000E+00 -0.74505805969E-08  0.93827000000E+00  0.93827000000E+00 0.  1.
     999902    2    1    2    0    0  0.69427354557E-02 -0.15501497855E-01  0.19989425038E-01  0.10176988139E+01  0.10173607033E+01 0.  0.
     999903    2    3    3    0    0  0.62624330852E-01 -0.79566573762E-01 -0.76665754432E-01  0.12834680387E+00  0.18509934763E-01 0.  0.
         14    1    1    2    0    0 -0.69427354557E-02  0.15501497855E-01 -0.19989425038E-01  0.26231186109E-01  0.00000000000E+00 0.  1.
     999901    1    3    3    0    0 -0.55681595397E-01  0.64065075907E-01  0.96655179470E-01  0.88935201002E+00  0.88000000000E+00 0. -1.
        -11    1    4    4    0    0  0.24762394298E-01 -0.33776155668E-01 -0.20694347382E-01  0.46717469940E-01  0.51100000000E-03 0. -1.
         11    1    4    4    0    0  0.37861936555E-01 -0.45790418094E-01 -0.55971407051E-01  0.81629333926E-01  0.51100000000E-03 0.  1.
</event>
<event>
 8    1  0.1115874E+005  0.1043930E+01  0.7957747E-01            NaN
         13   -1    0    0    0    0  0.00000000000E+00  0.00000000000E+00  0.74505805969E-08  0.10566000000E+00  0.10566000000E+00 0.  1.
     999900   -1    0    0    0    0 -0.00000000000E+00 -0.00000000000E+00 -0.74505805969E-08  0.93827000000E+00  0.93827000000E+00 0. -1.
     999902    2    1    2    0    0 -0.97891141782E-02 -0.67034441045E-02  0.19351980443E-01  0.10212306153E+01  0.10209783090E+01 0.  0.
     999903    2    3    3    0    0 -0.50184969720E-02 -0.11584556824E+00 -0.57926089166E-01  0.13111452056E+00  0.19753599769E-01 0.  0.
         14    1    1    2    0    0  0.97891141782E-02  0.67034441045E-02 -0.19351980443E-01  0.22699384713E-01  0.00000000000E+00 0. -1.
     999901    1    3    3    0    0 -0.47706172063E-02  0.10914212413E+00  0.77278069610E-01  0.89011609473E+00  0.88000000000E+00 0. -1.
        -11    1    4    4    0    0 -0.12302997234E-01 -0.84145936846E-01 -0.40130338297E-01  0.94035140249E-01  0.51100000000E-03 0.  1.
         11    1    4    4    0    0  0.72845002619E-02 -0.31699631390E-01 -0.17795750869E-01  0.37079380312E-01  0.51100000000E-03 0. -1.
</event>
<event>
 8    1  0.1115874E+005  0.1043930E+01  0.7957747E-01            NaN
         13   -1    0    0    0    0  0.00000000000E+00  0.00000000000E+00  0.74505805969E-08  0.10566000000E+00  0.10566000000E+00 0. -1.
     999900   -1    0    0    0    0 -0.00000000000E+00 -0.00000000000E+00 -0.74505805969E-08  0.93827000000E+00  0.93827000000E+00 0. -1.
     999902    2    1    2    0    0 -0.35084138386E-02  0.21909367401E-01 -0.79676887440E-02  0.10203543046E+01  0.10200819053E+01 0.  0.
     999903    2    3    3    0    0  0.10919605890E+00 -0.63443159620E-01 -0.17706609482E-01  0.12901699553E+00  0.19571595096E-01 0.  0.
         14    1    1    2    0    0  0.35084138386E-02 -0.21909367401E-01  0.79676887440E-02  0.23575695356E-01  0.00000000000E+00 0.  1.
     999901    1    3    3    0    0 -0.11270447274E+00  0.85352527021E-01  0.97389207383E-02  0.89133730912E+00  0.88000000000E+00 0.  1.
        -11    1    4    4    0    0  0.50192523827E-01 -0.40332567888E-01 -0.10422730336E-01  0.65229593814E-01  0.51100000000E-03 0.  1.
         11    1    4    4    0    0  0.59003535071E-01 -0.23110591732E-01 -0.72838791464E-02  0.63787401715E-01  0.51100000000E-03 0. -1.
</event>
<event>
 8    1  0.1115874E+005  0.1043930E+01  0.7957747E-01            NaN
         13   -1    0    0    0    0  0.00000000000E+00  0.00000000000E+00  0.74505805969E-08  0.10566000000E+00  0.10566000000E+00 0.  1.
     999900   -1    0    0    0    0 -0.00000000000E+00 -0.00000000000E+00 -0.74505805969E-08  0.93827000000E+00  0.93827000000E+00 0.  1.
     999902    2    1    2    0    0  0.16863379674E-01  0.15926960322E-01 -0.11857757543E-02  0.10207039865E+01  0.10204396995E+01 0.  0.
     999903    2    3    3    0    0 -0.10097197946E-01  0.83874830754E-01 -0.99722552778E-01  0.13219215075E+00  0.19830192788E-01 0.  0.
         14    1    1    2    0    0 -0.16863379674E-01 -0.15926960322E-01  0.11857757543E-02  0.23226013503E-01  0.00000000000E+00 0. -1.
     999901    1    3    3    0    0  0.26960577621E-01 -0.67947870432E-01  0.98536777024E-01  0.88851183575E+00  0.88000000000E+00 0.  1.
        -11    1    4    4    0    0 -0.92179183320E-02  0.39243010645E-01 -0.33980971544E-01  0.52725244911E-01  0.51100000000E-03 0. -1.
         11    1    4    4    0    0 -0.87927961438E-03  0.44631820109E-01 -0.65741581234E-01  0.79466905835E-01  0.51100000000E-03 0.  1.
</event>
<event>
 8    1  0.1115874E+005  0.1043930E+01  0.7957747E-01            NaN
         13   -1    0    0    0    0  0.00000000000E+00  0.00000000000E+00  0.74505805969E-08  0.10566000000E+00  0.10566000000E+00 0. -1.
     999900   -1    0    0    0    0 -0.00000000000E+00 -0.00000000000E+00 -0.74505805969E-08  0.93827000000E+00  0.93827000000E+00 0.  1.
     999902    2    1    2    0    0 -0.54094076377E-02  0.18933477117E-01  0.92171458921E-02  0.10221884723E+01  0.10219572295E+01 0.  0.
     999903    2    3    3    0    0 -0.16446245957E-01  0.19702132792E-01 -0.12746851536E+00  0.13156769298E+00  0.20079402003E-01 0.  0.
         14    1    1    2    0    0  0.54094076377E-02 -0.18933477117E-01 -0.92171458921E-02  0.21741527663E-01  0.00000000000E+00 0.  1.
     999901    1    3    3    0    0  0.11036838319E-01 -0.76865567507E-03  0.13668566125E+00  0.89062077936E+00  0.88000000000E+00 0. -1.
        -11    1    4    4    0    0  0.40714281269E-02  0.70204161190E-02 -0.40880217740E-01  0.41681123940E-01  0.51100000000E-03 0. -1.
         11    1    4    4    0    0 -0.20517674083E-01  0.12681716673E-01 -0.86588297621E-01  0.89886569039E-01  0.51100000000E-03 0.  1.
</event>
<event>
 8    1  0.1115874E+005  0.1043930E+01  0.7957747E-01            NaN
         13   -1    0    0    0    0  0.00000000000E+00  0.00000000000E+00  0.74505805969E-08  0.10566000000E+00  0.10566000000E+00 0.  1.
     999900   -1    0    0    0    0 -0.00000000000E+00 -0.00000000000E+00 -0.74505805969E-08  0.93827000000E+00  0.93827000000E+00 0. -1.
     999902    2    1    2    0    0 -0.81921884991E-02  0.18456178037E-01  0.11551918292E-01  0.10206665248E+01  0.10204013748E+01 0.  0.
     999903    2    3    3    0    0 -0.45565593573E-01 -0.92146294256E-01  0.77860323857E-01  0.13048312636E+00  0.19911136862E-01 0.  0.
         14    1    1    2    0    0  0.81921884991E-02 -0.18456178037E-01 -0.11551918292E-01  0.23263475157E-01  0.00000000000E+00 0. -1.
     999901    1    3    3    0    0  0.37373405074E-01  0.11060247229E+00 -0.66308405565E-01  0.89018339848E+00  0.88000000000E+00 0. -1.
        -11    1    4    4    0    0 -0.32923124192E-01 -0.51546803999E-01  0.36871846336E-01  0.71419880161E-01  0.51100000000E-03 0.  1.
         11    1    4    4    0    0 -0.12642469382E-01 -0.40599490257E-01  0.40988477521E-01  0.59063246200E-01  0.51100000000E-03 0. -1.
</event>
<event>
 8    1  0.1115874E+005  0.1043930E+01  0.7957747E-01            NaN
         13   -1    0    0    0    0  0.00000000000E+00  0.00000000000E+00  0.74505805969E-08  0.10566000000E+00  0.10566000000E+00 0. -1.
     999900   -1    0    0    0    0 -0.00000000000E+00 -0.00000000000E+00 -0.74505805969E-08  0.93827000000E+00  0.93827000000E+00 0.  1.
     999902    2    1    2    0    0 -0.48280116936E-03  0.20707103809E-01 -0.13993760232E-01  0.10189331488E+01  0.10186264866E+01 0.  0.
     999903    2    3    3    0    0 -0.12280165425E+00 -0.30455033992E-01  0.11483192319E-01  0.12863626500E+00  0.20190829285E-01 0.  0.
         14    1    1    2    0    0  0.48280116936E-03 -0.20707103809E-01  0.13993760232E-01  0.24996851213E-01  0.00000000000E+00 0. -1.
     999901    1    3    3    0    0  0.12231885308E+00  0.51162137801E-01 -0.25476952552E-01  0.89029688378E+00  0.88000000000E+00 0. -1.
        -11    1    4    4    0    0 -0.11128790190E+00 -0.30516055291E-01  0.15495007989E-01  0.11643274081E+00  0.51100000000E-03 0. -1.
         11    1    4    4    0    0 -0.11513752351E-01  0.61021299110E-04 -0.40118156697E-02  0.12203524194E-01  0.51100000000E-03 0.  1.
</event>
<event>
 8    1  0.1115874E+005  0.1043930E+01  0.7957747E-01            NaN
         13   -1    0    0    0    0  0.00000000000E+00  0.00000000000E+00  0.74505805969E-08  0.10566000000E+00  0.10566000000E+00 0.  1.
     999900   -1    0    0    0    0 -0.00000000000E+00 -0.00000000000E+00 -0.74505805969E-08  0.93827000000E+00  0.93827000000E+00 0.  1.
     999902    2    1    2    0    0  0.21377706848E-01 -0.25211534560E-02 -0.75183987881E-02  0.10211289280E+01  0.10208743305E+01 0.  0.
     999903    2    3    3    0    0  0.10189670391E+00  0.30970010141E-02  0.82764225628E-01  0.13283515629E+00  0.20068184312E-01 0.  0.
         14    1    1    2    0    0 -0.21377706848E-01  0.25211534560E-02  0.75183987881E-02  0.22801072018E-01  0.00000000000E+00 0. -1.
     999901    1    3    3    0    0 -0.80518997060E-01 -0.56181544700E-02 -0.90282624416E-01  0.88829377169E+00  0.88000000000E+00 0.  1.
        -11    1    4    4    0    0  0.28601069323E-01  0.49576224168E-02  0.34334846220E-01  0.44963785121E-01  0.51100000000E-03 0. -1.
         11    1    4    4    0    0  0.73295634585E-01 -0.18606214027E-02  0.48429379408E-01  0.87871371174E-01  0.51100000000E-03 0.  1.
</event>
<event>
 8    1  0.1115874E+005  0.1043930E+01  0.7957747E-01            NaN
         13   -1    0    0    0    0  0.00000000000E+00  0.00000000000E+00  0.74505805969E-08  0.10566000000E+00  0.10566000000E+00 0. -1.
     999900   -1    0    0    0    0 -0.00000000000E+00 -0.00000000000E+00 -0.74505805969E-08  0.93827000000E+00  0.93827000000E+00 0.  1.
     999902    2    1    2    0    0 -0.15680443079E-01  0.75534369382E-02  0.20536032068E-01  0.10170105030E+01  0.10166541713E+01 0.  0.
     999903    2    3    3    0    0 -0.93928515509E-01 -0.25806055482E-02 -0.83526868810E-01  0.12737319096E+00  0.20444226875E-01 0.  0.
         14    1    1    2    0    0  0.15680443079E-01 -0.75534369382E-02 -0.20536032068E-01  0.26919496983E-01  0.00000000000E+00 0.  1.
     999901    1    3    3    0    0  0.78248072430E-01  0.10134042486E-01  0.10406290088E+00  0.88963731205E+00  0.88000000000E+00 0. -1.
        -11    1    4    4    0    0 -0.89023040463E-01  0.25270965324E-02 -0.77556968521E-01  0.11809670799E+00  0.51100000000E-03 0.  1.
         11    1    4    4    0    0 -0.49054750459E-02 -0.51077020806E-02 -0.59699002892E-02  0.92764829776E-02  0.51100000000E-03 0. -1.
</event>
<event>
 8    1  0.1115874E+005  0.1043930E+01  0.7957747E-01            NaN
         13   -1    0    0    0    0  0.00000000000E+00  0.00000000000E+00  0.74505805969E-08  0.10566000000E+00  0.10566000000E+00 0.  1.
     999900   -1    0    0    0    0 -0.00000000000E+00 -0.00000000000E+00 -0.74505805969E-08  0.93827000000E+00  0.93827000000E+00 0. -1.
     999902    2    1    2    0    0 -0.70298670998E-02  0.22304425827E-01 -0.29378876294E-02  0.10203601543E+01  0.10200878917E+01 0.  0.
     999903    2    3    3    0    0  0.63478115215E-01  0.45964081839E-01  0.10287494184E+00  0.13090666491E+00  0.20276422981E-01 0.  0.
         14    1    1    2    0    0  0.70298670998E-02 -0.22304425827E-01  0.29378876294E-02  0.23569845707E-01  0.00000000000E+00 0.  1.
     999901    1    3    3    0    0 -0.70507982315E-01 -0.23659656011E-01 -0.10581282947E+00  0.88945348938E+00  0.88000000000E+00 0. -1.
        -11    1    4    4    0    0  0.30325914629E-01  0.10145347653E-01  0.44809144865E-01  0.55051882453E-01  0.51100000000E-03 0. -1.
         11    1    4    4    0    0  0.33152200586E-01  0.35818734186E-01  0.58065796976E-01  0.75854782458E-01  0.51100000000E-03 0.  1.
</event>
<event>
 8    1  0.1115874E+005  0.1043930E+01  0.7957747E-01            NaN
         13   -1    0    0    0    0  0.00000000000E+00  0.00000000000E+00  0.74505805969E-08  0.10566000000E+00  0.10566000000E+00 0.  1.
     999900   -1    0    0    0    0 -0.00000000000E+00 -0.00000000000E+00 -0.74505805969E-08  0.93827000000E+00  0.93827000000E+00 0.  1.
     999902    2    1    2    0    0 -0.14150478153E-01 -0.19599852046E-01  0.16170726880E-02  0.10197018107E+01  0.10194139383E+01 0.  0.
     999903    2    3    3    0    0  0.16976318096E-01  0.68104400998E-01  0.10593041153E+00  0.12866747573E+00  0.20190651657E-01 0.  0.
         14    1    1    2    0    0  0.14150478153E-01  0.19599852046E-01 -0.16170726880E-02  0.24228189290E-01  0.00000000000E+00 0. -1.
     999901    1    3    3    0    0 -0.31126796249E-01 -0.87704253044E-01 -0.10431333884E+00  0.89103433498E+00  0.88000000000E+00 0.  1.
        -11    1    4    4    0    0  0.20986728263E-01  0.62444981068E-01  0.98393390559E-01  0.11841173443E+00  0.51100000000E-03 0. -1.
         11    1    4    4    0    0 -0.40104101678E-02  0.56594199303E-02  0.75370209664E-02  0.10255741305E-01  0.51100000000E-03 0.  1.
</event>
<event>
 8    1  0.1115874E+005  0.1043930E+01  0.7957747E-01            NaN
         13   -1    0    0    0    0  0.00000000000E+00  0.00000000000E+00  0.74505805969E-08  0.10566000000E+00  0.10566000000E+00 0. -1.
     999900   -1    0    0    0    0 -0.00000000000E+00 -0.00000000000E+00 -0.74505805969E-08  0.93827000000E+00  0.93827000000E+00 0.  1.
     999902    2    1    2    0    0  0.17382431968E-01 -0.46974979469E-02 -0.17443755532E-01  0.10188600970E+01  0.10185516174E+01 0.  0.
     999903    2    3    3    0    0  0.91666943643E-01 -0.90015535065E-01  0.15285213625E-01  0.13101521105E+00  0.20633047783E-01 0.  0.
         14    1    1    2    0    0 -0.17382431968E-01  0.46974979469E-02  0.17443755532E-01  0.25069902974E-01  0.00000000000E+00 0. -1.
     999901    1    3    3    0    0 -0.74284511675E-01  0.85318037118E-01 -0.32728969157E-01  0.88784488598E+00  0.88000000000E+00 0. -1.
        -11    1    4    4    0    0  0.51664777755E-01 -0.39627135767E-01  0.10575835934E-02  0.65122490383E-01  0.51100000000E-03 0. -1.
         11    1    4    4    0    0  0.40002165888E-01 -0.50388399297E-01  0.14227630032E-01  0.65892720666E-01  0.51100000000E-03 0.  1.
</event>
<event>
 8    1  0.1115874E+005  0.1043930E+01  0.7957747E-01            NaN
         13   -1    0    0    0    0  0.00000000000E+00  0.00000000000E+00  0.74505805969E-08  0.10566000000E+00  0.10566000000E+00 0. -1.
     999900   -1    0    0    0    0 -0.00000000000E+00 -0.00000000000E+00 -0.74505805969E-08  0.93827000000E+00  0.93827000000E+00 0. -1.
     999902    2    1    2    0    0 -0.23271793667E-01  0.62553792657E-02  0.53339801915E-02  0.10192488838E+01  0.10189500134E+01 0.  0.
     999903    2    3    3    0    0 -0.86487028391E-01  0.75526833555E-01 -0.60544954946E-01  0.13181734599E+00  0.22930601107E-01 0.  0.
         14    1    1    2    0    0  0.23271793667E-01 -0.62553792657E-02 -0.53339801915E-02  0.24681116160E-01  0.00000000000E+00 0.  1.
     999901    1    3    3    0    0  0.63215234724E-01 -0.69271454289E-01  0.65878935137E-01  0.88743153785E+00  0.88000000000E+00 0.  1.
        -11    1    4    4    0    0 -0.63609473214E-01  0.42176242023E-01 -0.44161503032E-01  0.88178795324E-01  0.51100000000E-03 0.  1.
         11    1    4    4    0    0 -0.22877555177E-01  0.33350591532E-01 -0.16383451913E-01  0.43638550664E-01  0.51100000000E-03 0. -1.
</event>
<event>
 8    1  0.1115874E+005  0.1043930E+01  0.7957747E-01            NaN
         13   -1    0    0    0    0  0.00000000000E+00  0.00000000000E+00  0.74505805969E-08  0.10566000000E+00  0.10566000000E+00 0.  1.
     999900   -1    0    0    0    0 -0.00000000000E+00 -0.00000000000E+00 -0.74505805969E-08  0.93827000000E+00  0.93827000000E+00 0. -1.
     999902    2    1    2    0    0  0.22301193856E-01 -0.22278013298E-02 -0.62403728766E-02  0.10206652498E+01  0.10204000704E+01 0.  0.
     999903    2    3    3    0    0  0.12244623321E-01  0.59937606647E-01  0.11348072215E+00  0.13032890152E+00  0.19112843326E-01 0.  0.
         14    1    1    2    0    0 -0.22301193856E-01  0.22278013298E-02  0.62403728766E-02  0.23264750155E-01  0.00000000000E+00 0. -1.
     999901    1    3    3    0    0  0.10056570534E-01 -0.62165407977E-01 -0.11972109503E+00  0.89033634833E+00  0.88000000000E+00 0. -1.
        -11    1    4    4    0    0 -0.54318464037E-03  0.13003351043E-01  0.11650808437E-01  0.17475258114E-01  0.51100000000E-03 0. -1.
         11    1    4    4    0    0  0.12787807962E-01  0.46934255604E-01  0.10182991371E+00  0.11285364340E+00  0.51100000000E-03 0.  1.
</event>
<event>
 8    1  0.1115874E+005  0.1043930E+01  0.7957747E-01            NaN
         13   -1    0    0    0    0  0.00000000000E+00  0.00000000000E+00  0.74505805969E-08  0.10566000000E+00  0.10566000000E+00 0.  1.
     999900   -1    0    0    0    0 -0.00000000000E+00 -0.00000000000E+00 -0.74505805969E-08  0.93827000000E+00  0.93827000000E+00 0. -1.
     999902    2    1    2    0    0 -0.23396270963E-01  0.28677822139E-02  0.16390385512E-02  0.10203017094E+01  0.10200280791E+01 0.  0.
     999903    2    3    3    0    0 -0.77740687218E-01  0.76008856244E-01 -0.73012262456E-01  0.13245276445E+00  0.19798577345E-01 0.  0.
         14    1    1    2    0    0  0.23396270963E-01 -0.28677822139E-02 -0.16390385512E-02  0.23628290610E-01  0.00000000000E+00 0.  1.
     999901    1    3    3    0    0  0.54344416255E-01 -0.73141074030E-01  0.74651301008E-01  0.88784894494E+00  0.88000000000E+00 0.  1.
        -11    1    4    4    0    0 -0.74981198159E-02  0.16171206463E-01 -0.78228139249E-02  0.19472731137E-01  0.51100000000E-03 0. -1.
         11    1    4    4    0    0 -0.70242567402E-01  0.59837649781E-01 -0.65189448532E-01  0.11298003331E+00  0.51100000000E-03 0.  1.
</event>
<event>
 8    1  0.1115874E+005  0.1043930E+01  0.7957747E-01            NaN
         13   -1    0    0    0    0  0.00000000000E+00  0.00000000000E+00  0.74505805969E-08  0.10566000000E+00  0.10566000000E+00 0. -1.
     999900   -1    0    0    0    0 -0.00000000000E+00 -0.00000000000E+00 -0.74505805969E-08  0.93827000000E+00  0.93827000000E+00 0.  1.
     999902    2    1    2    0    0  0.96513740098E-03  0.19255133963E-01  0.14384370057E-01  0.10198758574E+01  0.10195921551E+01 0.  0.
     999903    2    3    3    0    0 -0.56323922286E-01 -0.10559456900E+00 -0.39453958230E-01  0.12759336274E+00  0.20021342894E-01 0.  0.
         14    1    1    2    0    0 -0.96513740098E-03 -0.19255133963E-01 -0.14384370057E-01  0.24054142597E-01  0.00000000000E+00 0.  1.
     999901    1    3    3    0    0  0.57289059687E-01  0.12484970296E+00  0.53838328286E-01  0.89228249466E+00  0.88000000000E+00 0. -1.
        -11    1    4    4    0    0 -0.40854947137E-01 -0.59641548410E-01 -0.29562127732E-01  0.78105195213E-01  0.51100000000E-03 0.  1.
         11    1    4    4    0    0 -0.15468975150E-01 -0.45953020591E-01 -0.98918304975E-02  0.49488167527E-01  0.51100000000E-03 0. -1.
</event>
<event>
 8    1  0.1115874E+005  0.1043930E+01  0.7957747E-01            NaN
         13   -1    0    0    0    0  0.00000000000E+00  0.00000000000E+00  0.74505805969E-08  0.10566000000E+00  0.10566000000E+00 0.  1.
     999900   -1    0    0    0    0 -0.00000000000E+00 -0.00000000000E+00 -0.74505805969E-08  0.93827000000E+00  0.93827000000E+00 0.  1.
     999902    2    1    2    0    0 -0.42721997690E-02 -0.23637887898E-01 -0.40576136910E-02  0.10195688493E+01  0.10192777702E+01 0.  0.
     999903    2    3    3    0    0  0.12172117991E-01  0.10585949999E+00 -0.67465962230E-01  0.12768286570E+00  0.19921444214E-01 0.  0.
         14    1    1    2    0    0  0.42721997690E-02  0.23637887898E-01  0.40576136910E-02  0.24361150712E-01  0.00000000000E+00 0. -1.
     999901    1    3    3    0    0 -0.16444317760E-01 -0.12949738789E+00  0.63408348539E-01  0.89188598359E+00  0.88000000000E+00 0. -1.
        -11    1    4    4    0    0  0.10555235884E-01  0.77341398145E-01 -0.38645882217E-01  0.87102641779E-01  0.51100000000E-03 0.  1.
         11    1    4    4    0    0  0.16168821072E-02  0.28518101843E-01 -0.28820080013E-01  0.40580223921E-01  0.51100000000E-03 0. -1.
</event>
<event>
 8    1  0.1115874E+005  0.1043930E+01  0.7957747E-01            NaN
         13   -1    0    0    0    0  0.00000000000E+00  0.00000000000E+00  0.74505805969E-08  0.10566000000E+00  0.10566000000E+00 0. -1.
     999900   -1    0    0    0    0 -0.00000000000E+00 -0.00000000000E+00 -0.74505805969E-08  0.93827000000E+00  0.93827000000E+00 0. -1.
     999902    2    1    2    0    0  0.23414181993E-01 -0.31317354960E-02 -0.84817783681E-02  0.10188307520E+01  0.10185215408E+01 0.  0.
     999903    2    3    3    0    0 -0.66725902870E-02  0.12113438194E+00  0.35000348120E-01  0.12852856896E+00  0.24010554377E-01 0.  0.
         14    1    1    2    0    0 -0.23414181993E-01  0.31317354960E-02  0.84817783681E-02  0.25099247995E-01  0.00000000000E+00 0. -1.
     999901    1    3    3    0    0  0.30086772280E-01 -0.12426611744E+00 -0.43482126488E-01  0.89030218304E+00  0.88000000000E+00 0. -1.
        -11    1    4    4    0    0 -0.82738981742E-02  0.34082867966E-01  0.19368605392E-01  0.40068731895E-01  0.51100000000E-03 0.  1.
         11    1    4    4    0    0  0.16013078872E-02  0.87051513974E-01  0.15631742727E-01  0.88459837066E-01  0.51100000000E-03 0. -1.
</event>
<event>
 8    1  0.1115874E+005  0.1043930E+01  0.7957747E-01            NaN
         13   -1    0    0    0    0  0.00000000000E+00  0.00000000000E+00  0.74505805969E-08  0.10566000000E+00  0.10566000000E+00 0.  1.
     999900   -1    0    0    0    0 -0.00000000000E+00 -0.00000000000E+00 -0.74505805969E-08  0.93827000000E+00  0.93827000000E+00 0.  1.
     999902    2    1    2    0    0  0.38629839412E-02  0.23015134431E-01 -0.43630131640E-02  0.10201885817E+01  0.10199122939E+01 0.  0.
     999903    2    3    3    0    0  0.12440000504E+00  0.27020701152E-01 -0.20031048908E-01  0.13182452045E+00  0.27766557702E-01 0.  0.
         14    1    1    2    0    0 -0.38629839412E-02 -0.23015134431E-01  0.43630131640E-02  0.23741418274E-01  0.00000000000E+00 0. -1.
     999901    1    3    3    0    0 -0.12053702110E+00 -0.40055667204E-02  0.15668035744E-01  0.88836406127E+00  0.88000000000E+00 0. -1.
        -11    1    4    4    0    0  0.93567317060E-01  0.25558498620E-01 -0.40963320899E-02  0.97083060989E-01  0.51100000000E-03 0. -1.
         11    1    4    4    0    0  0.30832687982E-01  0.14622025314E-02 -0.15934716818E-01  0.34741459461E-01  0.51100000000E-03 0.  1.
</event>
<event>
 8    1  0.1115874E+005  0.1043930E+01  0.7957747E-01            NaN
         13   -1    0    0    0    0  0.00000000000E+00  0.00000000000E+00  0.74505805969E-08  0.10566000000E+00  0.10566000000E+00 0.  1.
     999900   -1    0    0    0    0 -0.00000000000E+00 -0.00000000000E+00 -0.74505805969E-08  0.93827000000E+00  0.93827000000E+00 0.  1.
     999902    2    1    2    0    0 -0.23152242511E-01 -0.20415658832E-02 -0.37368179689E-02  0.10203894364E+01  0.10201178578E+01 0.  0.
     999903    2    3    3    0    0 -0.25119544051E-01  0.25099553100E-02  0.12678645819E+00  0.13074854695E+00  0.19572561938E-01 0.  0.
         14    1    1    2    0    0  0.23152242511E-01  0.20415658832E-02  0.37368179689E-02  0.23540563567E-01  0.00000000000E+00 0.  1.
     999901    1    3    3    0    0  0.19673015400E-02 -0.45515211931E-02 -0.13052327616E+00  0.88964088948E+00  0.88000000000E+00 0.  1.
        -11    1    4    4    0    0 -0.17112458797E-01  0.49007712935E-02  0.42953395885E-01  0.46498485399E-01  0.51100000000E-03 0.  1.
         11    1    4    4    0    0 -0.80070852540E-02 -0.23908159835E-02  0.83833062303E-01  0.84250061551E-01  0.51100000000E-03 0. -1.
</event>
<event>
 8    1  0.1115874E+005  0.1043930E+01  0.7957747E-01            NaN
         13   -1    0    0    0    0  0.00000000000E+00  0.00000000000E+00  0.74505805969E-08  0.10566000000E+00  0.10566000000E+00 0.  1.
     999900   -1    0    0    0    0 -0.00000000000E+00 -0.00000000000E+00 -0.74505805969E-08  0.93827000000E+00  0.93827000000E+00 0.  1.
     999902    2    1    2    0    0 -0.13549103711E-01  0.11436049814E-01  0.13185392409E-01  0.10218343891E+01  0.10215954692E+01 0.  0.
     999903    2    3    3    0    0 -0.27305970864E-01 -0.56544071481E-01  0.11579475767E+00  0.13316165402E+00  0.19512870994E-01 0.  0.
         14    1    1    2    0    0  0.13549103711E-01 -0.11436049814E-01 -0.13185392409E-01  0.22095610870E-01  0.00000000000E+00 0. -1.
     999901    1    3    3    0    0  0.13756867153E-01  0.67980121295E-01 -0.10260936526E+00  0.88867273511E+00  0.88000000000E+00 0.  1.
        -11    1    4    4    0    0 -0.18997891687E-01 -0.23662098459E-01  0.40772337983E-01  0.50827742992E-01  0.51100000000E-03 0. -1.
         11    1    4    4    0    0 -0.83080791775E-02 -0.32881973022E-01  0.75022419684E-01  0.82333911031E-01  0.51100000000E-03 0.  1.
</event>
<event>
 8    1  0.1115874E+005  0.1043930E+01  0.7957747E-01            NaN
         13   -1    0    0    0    0  0.00000000000E+00  0.00000000000E+00  0.74505805969E-08  0.10566000000E+00  0.10566000000E+00 0.  1.
     999900   -1    0    0    0    0 -0.00000000000E+00 -0.00000000000E+00 -0.74505805969E-08  0.93827000000E+00  0.93827000000E+00 0. -1.
     999902    2    1    2    0    0 -0.46435131512E-03  0.13213132352E-01  0.19724522477E-01  0.10201842788E+01  0.10199078897E+01 0.  0.
     999903    2    3    3    0    0  0.10713308912E+00  0.27339580088E-01 -0.64584934513E-01  0.12951888132E+00  0.19467291248E-01 0.  0.
         14    1    1    2    0    0  0.46435131512E-03 -0.13213132352E-01 -0.19724522477E-01  0.23745721207E-01  0.00000000000E+00 0. -1.
     999901    1    3    3    0    0 -0.10759744044E+00 -0.14126447737E-01  0.84309456990E-01  0.89066539747E+00  0.88000000000E+00 0.  1.
        -11    1    4    4    0    0  0.47107723985E-01  0.20989213221E-01 -0.34718912257E-01  0.62171928714E-01  0.51100000000E-03 0.  1.
         11    1    4    4    0    0  0.60025365137E-01  0.63503668678E-02 -0.29866022256E-01  0.67346952608E-01  0.51100000000E-03 0. -1.
</event>
<event>
 8    1  0.1115874E+005  0.1043930E+01  0.7957747E-01            NaN
         13   -1    0    0    0    0  0.00000000000E+00  0.00000000000E+00  0.74505805969E-08  0.10566000000E+00  0.10566000000E+00 0.  1.
     999900   -1    0    0    0    0 -0.00000000000E+00 -0.00000000000E+00 -0.74505805969E-08  0.93827000000E+00  0.93827000000E+00 0. -1.
     999902    2    1    2    0    0 -0.17251451151E-01 -0.14327418548E-01 -0.54920117977E-02  0.10208421313E+01  0.10205810146E+01 0.  0.
     999903    2    3    3    0    0  0.92746695665E-01  0.19189746109E-01 -0.86183144419E-01  0.12970013836E+00  0.20600863993E-01 0.  0.
         14    1    1    2    0    0  0.17251451151E-01  0.14327418548E-01  0.54920117977E-02  0.23087868734E-01  0.00000000000E+00 0. -1.
     999901    1    3    3    0    0 -0.10999814682E+00 -0.33517164657E-01  0.80691132621E-01  0.89114199290E+00  0.88000000000E+00 0.  1.
        -11    1    4    4    0    0  0.22202062102E-01  0.30275094787E-02 -0.32977727265E-01  0.39873412091E-01  0.51100000000E-03 0. -1.
         11    1    4    4    0    0  0.70544633563E-01  0.16162236630E-01 -0.53205417154E-01  0.89826726273E-01  0.51100000000E-03 0.  1.
</event>
<event>
 8    1  0.1115874E+005  0.1043930E+01  0.7957747E-01            NaN
         13   -1    0    0    0    0  0.00000000000E+00  0.00000000000E+00  0.74505805969E-08  0.10566000000E+00  0.10566000000E+00 0.  1.
     999900   -1    0    0    0    0 -0.00000000000E+00 -0.00000000000E+00 -0.74505805969E-08  0.93827000000E+00  0.93827000000E+00 0. -1.
     999902    2    1    2    0    0 -0.94714001547E-03  0.17120971345E-01  0.15288558312E-01  0.10209568690E+01  0.10206983705E+01 0.  0.
     999903    2    3    3    0    0  0.84554710221E-01 -0.86392221929E-01 -0.41025760993E-01  0.12899450982E+00  0.18529853461E-01 0.  0.
         14    1    1    2    0    0  0.94714001547E-03 -0.17120971345E-01 -0.15288558312E-01  0.22973131029E-01  0.00000000000E+00 0.  1.
     999901    1    3    3    0    0 -0.85501850237E-01  0.10351319327E+00  0.56314319305E-01  0.89196235915E+00  0.88000000000E+00 0.  1.
        -11    1    4    4    0    0  0.49285645030E-01 -0.42015038518E-01 -0.14314410988E-01  0.66328740005E-01  0.51100000000E-03 0.  1.
         11    1    4    4    0    0  0.35269065192E-01 -0.44377183411E-01 -0.26711350006E-01  0.62665769820E-01  0.51100000000E-03 0. -1.
</event>
<event>
 8    1  0.1115874E+005  0.1043930E+01  0.7957747E-01            NaN
         13   -1    0    0    0    0  0.00000000000E+00  0.00000000000E+00  0.74505805969E-08  0.10566000000E+00  0.10566000000E+00 0. -1.
     999900   -1    0    0    0    0 -0.00000000000E+00 -0.00000000000E+00 -0.74505805969E-08  0.93827000000E+00  0.93827000000E+00 0.  1.
     999902    2    1    2    0    0  0.23177071666E-02  0.16614426166E-01 -0.16810524627E-01  0.10201812177E+01  0.10199047565E+01 0.  0.
     999903    2    3    3    0    0 -0.89678271127E-01  0.13622312811E-01 -0.93536236585E-01  0.13206014055E+00  0.21519606181E-01 0.  0.
         14    1    1    2    0    0 -0.23177071666E-02 -0.16614426166E-01  0.16810524627E-01  0.23748782317E-01  0.00000000000E+00 0. -1.
     999901    1    3    3    0    0  0.91995978293E-01  0.29921133542E-02  0.76725711957E-01  0.88812107713E+00  0.88000000000E+00 0. -1.
        -11    1    4    4    0    0 -0.87995212921E-01  0.94239757295E-02 -0.87055908157E-01  0.12414089206E+00  0.51100000000E-03 0.  1.
         11    1    4    4    0    0 -0.16830582060E-02  0.41983370819E-02 -0.64803284275E-02  0.79192484937E-02  0.51100000000E-03 0. -1.
</event>
<event>
 8    1  0.1115874E+005  0.1043930E+01  0.7957747E-01            NaN
         13   -1    0    0    0    0  0.00000000000E+00  0.00000000000E+00  0.74505805969E-08  0.10566000000E+00  0.10566000000E+00 0.  1.
     999900   -1    0    0    0    0 -0.00000000000E+00 -0.00000000000E+00 -0.74505805969E-08  0.93827000000E+00  0.93827000000E+00 0. -1.
     999902    2    1    2    0    0  0.14191927819E-01 -0.13780610556E-01  0.16081511764E-01  0.10184362544E+01  0.10181171216E+01 0.  0.
     999903    2    3    3    0    0  0.11547111546E-01  0.69739758259E-01  0.10697302621E+00  0.12981714904E+00  0.20305028481E-01 0.  0.
         14    1    1    2    0    0 -0.14191927819E-01  0.13780610556E-01 -0.16081511764E-01  0.25493745569E-01  0.00000000000E+00 0. -1.
     999901    1    3    3    0    0  0.26448162722E-02 -0.83520368815E-01 -0.90891514449E-01  0.88861910539E+00  0.88000000000E+00 0. -1.
        -11    1    4    4    0    0  0.84347970170E-02  0.46847546732E-01  0.53782674083E-01  0.71823920723E-01  0.51100000000E-03 0.  1.
         11    1    4    4    0    0  0.31123145293E-02  0.22892211527E-01  0.53190352131E-01  0.57993228321E-01  0.51100000000E-03 0. -1.
</event>
<event>
 8    1  0.1115874E+005  0.1043930E+01  0.7957747E-01            NaN
         13   -1    0    0    0    0  0.00000000000E+00  0.00000000000E+00  0.74505805969E-08  0.10566000000E+00  0.10566000000E+00 0.  1.
     999900   -1    0    0    0    0 -0.00000000000E+00 -0.00000000000E+00 -0.74505805969E-08  0.93827000000E+00  0.93827000000E+00 0. -1.
     999902    2    1    2    0    0  0.19818647577E-01  0.14809417749E-02  0.10485688966E-01  0.10214595382E+01  0.10212123513E+01 0.  0.
     999903    2    3    3    0    0 -0.52179495663E-01 -0.81198803029E-01  0.86800438705E-01  0.13137885992E+00  0.20251994777E-01 0.  0.
         14    1    1    2    0    0 -0.19818647577E-01 -0.14809417749E-02 -0.10485688966E-01  0.22470461798E-01  0.00000000000E+00 0. -1.
     999901    1    3    3    0    0  0.71998143239E-01  0.82679744804E-01 -0.76314749739E-01  0.89008067829E+00  0.88000000000E+00 0. -1.
        -11    1    4    4    0    0 -0.18220507163E-01 -0.46949990636E-01  0.42906437150E-01  0.66162768774E-01  0.51100000000E-03 0. -1.
         11    1    4    4    0    0 -0.33958988500E-01 -0.34248812393E-01  0.43894001555E-01  0.65216091142E-01  0.51100000000E-03 0.  1.
</event>
<event>
 8    1  0.1115874E+005  0.1043930E+01  0.7957747E-01            NaN
         13   -1    0    0    0    0  0.00000000000E+00  0.00000000000E+00  0.74505805969E-08  0.10566000000E+00  0.10566000000E+00 0.  1.
     999900   -1    0    0    0    0 -0.00000000000E+00 -0.00000000000E+00 -0.74505805969E-08  0.93827000000E+00  0.93827000000E+00 0.  1.
     999902    2    1    2    0    0  0.18612717959E-01  0.29818382031E-01  0.59859842068E-02  0.10082732870E+01  0.10076426053E+01 0.  0.
     999903    2    3    3    0    0  0.11949360690E+00 -0.18227366626E-03 -0.11789967625E-01  0.12182363947E+00  0.20572809323E-01 0.  0.
         14    1    1    2    0    0 -0.18612717959E-01 -0.29818382031E-01 -0.59859842068E-02  0.35656713025E-01  0.00000000000E+00 0. -1.
     999901    1    3    3    0    0 -0.10088088894E+00  0.30000655698E-01  0.17775951832E-01  0.88644964750E+00  0.88000000000E+00 0.  1.
        -11    1    4    4    0    0  0.18183515225E-01 -0.55904528140E-02  0.30999590458E-02  0.19281189167E-01  0.51100000000E-03 0.  1.
         11    1    4    4    0    0  0.10131009168E+00  0.54081791478E-02 -0.14889926671E-01  0.10254245030E+00  0.51100000000E-03 0. -1.
</event>
<event>
 8    1  0.1115874E+005  0.1043930E+01  0.7957747E-01            NaN
         13   -1    0    0    0    0  0.00000000000E+00  0.00000000000E+00  0.74505805969E-08  0.10566000000E+00  0.10566000000E+00 0. -1.
     999900   -1    0    0    0    0 -0.00000000000E+00 -0.00000000000E+00 -0.74505805969E-08  0.93827000000E+00  0.93827000000E+00 0.  1.
     999902    2    1    2    0    0  0.15233645669E-01 -0.12846937508E-01  0.61794660223E-02  0.10230663099E+01  0.10228535481E+01 0.  0.
     999903    2    3    3    0    0  0.10635950202E+00 -0.26021979928E-01 -0.75408698254E-01  0.13450897806E+00  0.20413385266E-01 0.  0.
         14    1    1    2    0    0 -0.15233645669E-01  0.12846937508E-01 -0.61794660223E-02  0.20863690086E-01  0.00000000000E+00 0.  1.
     999901    1    3    3    0    0 -0.91125856349E-01  0.13175042419E-01  0.81588164277E-01  0.88855733185E+00  0.88000000000E+00 0. -1.
        -11    1    4    4    0    0  0.44430956885E-01 -0.27444792041E-02 -0.37828949764E-01  0.58420310313E-01  0.51100000000E-03 0.  1.
         11    1    4    4    0    0  0.61928545132E-01 -0.23277500724E-01 -0.37579748490E-01  0.76088667749E-01  0.51100000000E-03 0. -1.
</event>
<event>
 8    1  0.1115874E+005  0.1043930E+01  0.7957747E-01            NaN
         13   -1    0    0    0    0  0.00000000000E+00  0.00000000000E+00  0.74505805969E-08  0.10566000000E+00  0.10566000000E+00 0. -1.
     999900   -1    0    0    0    0 -0.00000000000E+00 -0.00000000000E+00 -0.74505805969E-08  0.93827000000E+00  0.93827000000E+00 0.  1.
     999902    2    1    2    0    0  0.21974100508E-01  0.32481031527E-02  0.12285575638E-01  0.10185460162E+01  0.10182296599E+01 0.  0.
     999903    2    3    3    0    0 -0.99521248907E-03 -0.10601169655E+00 -0.68535033540E-01  0.12781751429E+00  0.20019887202E-01 0.  0.
         14    1    1    2    0    0 -0.21974100508E-01 -0.32481031527E-02 -0.12285575638E-01  0.25383983847E-01  0.00000000000E+00 0.  1.
     999901    1    3    3    0    0  0.22969312997E-01  0.10925979970E+00  0.80820609178E-01  0.89072850187E+00  0.88000000000E+00 0. -1.
        -11    1    4    4    0    0  0.83233400039E-02 -0.60979796578E-01 -0.34074585375E-01  0.70350210156E-01  0.51100000000E-03 0. -1.
         11    1    4    4    0    0 -0.93185524930E-02 -0.45031899967E-01 -0.34460448165E-01  0.57467304130E-01  0.51100000000E-03 0.  1.
</event>
<event>
 8    1  0.1115874E+005  0.1043930E+01  0.7957747E-01            NaN
         13   -1    0    0    0    0  0.00000000000E+00  0.00000000000E+00  0.74505805969E-08  0.10566000000E+00  0.10566000000E+00 0.  1.
     999900   -1    0    0    0    0 -0.00000000000E+00 -0.00000000000E+00 -0.74505805969E-08  0.93827000000E+00  0.93827000000E+00 0. -1.
     999902    2    1    2    0    0 -0.47767555606E-02 -0.14247184815E-01  0.18247438966E-01  0.10202917112E+01  0.10200178465E+01 0.  0.
     999903    2    3    3    0    0 -0.38867537683E-01  0.91749726585E-01  0.82610586278E-01  0.13094355587E+00  0.19824430481E-01 0.  0.
         14    1    1    2    0    0  0.47767555606E-02  0.14247184815E-01 -0.18247438966E-01  0.23638288805E-01  0.00000000000E+00 0. -1.
     999901    1    3    3    0    0  0.34090782123E-01 -0.10599691140E+00 -0.64363147312E-01  0.88934815533E+00  0.88000000000E+00 0. -1.
        -11    1    4    4    0    0 -0.12191158292E-01  0.50238677030E-01  0.35453542203E-01  0.62687828052E-01  0.51100000000E-03 0.  1.
         11    1    4    4    0    0 -0.26676379391E-01  0.41511049556E-01  0.47157044075E-01  0.68255727815E-01  0.51100000000E-03 0. -1.
</event>
<event>
 8    1  0.1393459E+005  0.1043930E+01  0.7957747E-01            NaN
         13   -1    0    0    0    0  0.00000000000E+00  0.00000000000E+00  0.74505805969E-08  0.10566000000E+00  0.10566000000E+00 0.  1.
     999900   -1    0    0    0    0 -0.00000000000E+00 -0.00000000000E+00 -0.74505805969E-08  0.93827000000E+00  0.93827000000E+00 0. -1.
     999902    2    1    2    0    0  0.21937117506E-01  0.68479515482E-02  0.20778177899E-02  0.10208551459E+01  0.10205943269E+01 0.  0.
     999903    2    3    3    0    0  0.16037542379E-01 -0.27503061918E-01  0.12579282383E+00  0.13151820198E+00  0.21437857697E-01 0.  0.
         14    1    1    2    0    0 -0.21937117506E-01 -0.68479515482E-02 -0.20778177899E-02  0.23074854098E-01  0.00000000000E+00 0. -1.
     999901    1    3    3    0    0  0.58995751270E-02  0.34351013466E-01 -0.12371500604E+00  0.88933694393E+00  0.88000000000E+00 0. -1.
        -11    1    4    4    0    0  0.17607832261E-01 -0.89560400545E-02  0.64377095110E-01  0.67341799102E-01  0.51100000000E-03 0.  1.
         11    1    4    4    0    0 -0.15702898829E-02 -0.18547021864E-01  0.61415728722E-01  0.64176402874E-01  0.51100000000E-03 0. -1.
</event>
<event>
 8    1  0.1115874E+005  0.1043930E+01  0.7957747E-01            NaN
         13   -1    0    0    0    0  0.00000000000E+00  0.00000000000E+00  0.74505805969E-08  0.10566000000E+00  0.10566000000E+00 0. -1.
     999900   -1    0    0    0    0 -0.00000000000E+00 -0.00000000000E+00 -0.74505805969E-08  0.93827000000E+00  0.93827000000E+00 0. -1.
     999902    2    1    2    0    0  0.13418422769E-01  0.14525210148E-01 -0.10602361982E-01  0.10214924003E+01  0.10212459440E+01 0.  0.
     999903    2    3    3    0    0 -0.12027075139E+00 -0.20876527486E-01  0.36043639142E-01  0.12947114064E+00  0.23722337507E-01 0.  0.
         14    1    1    2    0    0 -0.13418422769E-01 -0.14525210148E-01  0.10602361982E-01  0.22437599672E-01  0.00000000000E+00 0. -1.
     999901    1    3    3    0    0  0.13368917416E+00  0.35401737634E-01 -0.46646001125E-01  0.89202125969E+00  0.88000000000E+00 0. -1.
        -11    1    4    4    0    0 -0.62324472921E-01  0.11923679788E-02  0.17419696762E-01  0.64726104645E-01  0.51100000000E-03 0.  1.
         11    1    4    4    0    0 -0.57946278467E-01 -0.22068895465E-01  0.18623942380E-01  0.64745035995E-01  0.51100000000E-03 0. -1.
</event>
<event>
 8    1  0.1115874E+005  0.1043930E+01  0.7957747E-01            NaN
         13   -1    0    0    0    0  0.00000000000E+00  0.00000000000E+00  0.74505805969E-08  0.10566000000E+00  0.10566000000E+00 0.  1.
     999900   -1    0    0    0    0 -0.00000000000E+00 -0.00000000000E+00 -0.74505805969E-08  0.93827000000E+00  0.93827000000E+00 0. -1.
     999902    2    1    2    0    0  0.14328416178E-01  0.18920060904E-01 -0.14929686220E-03  0.10201961738E+01  0.10199200648E+01 0.  0.
     999903    2    3    3    0    0 -0.12451936892E+00 -0.50902075590E-02  0.24945488709E-01  0.12863296874E+00  0.19828761704E-01 0.  0.
         14    1    1    2    0    0 -0.14328416178E-01 -0.18920060904E-01  0.14929686220E-03  0.23733826163E-01  0.00000000000E+00 0.  1.
     999901    1    3    3    0    0  0.13884778510E+00  0.24010268463E-01 -0.25094785571E-01  0.89156320510E+00  0.88000000000E+00 0.  1.
        -11    1    4    4    0    0 -0.49403494171E-01 -0.78132820744E-02  0.20728160140E-02  0.50063063233E-01  0.51100000000E-03 0.  1.
         11    1    4    4    0    0 -0.75115874750E-01  0.27230745153E-02  0.22872672695E-01  0.78569905508E-01  0.51100000000E-03 0. -1.
</event>
<event>
 8    1  0.1115874E+005  0.1043930E+01  0.7957747E-01            NaN
         13   -1    0    0    0    0  0.00000000000E+00  0.00000000000E+00  0.74505805969E-08  0.10566000000E+00  0.10566000000E+00 0. -1.
     999900   -1    0    0    0    0 -0.00000000000E+00 -0.00000000000E+00 -0.74505805969E-08  0.93827000000E+00  0.93827000000E+00 0. -1.
     999902    2    1    2    0    0 -0.15085800223E-01 -0.15475350849E-01 -0.81341182775E-02  0.10208381891E+01  0.10205769822E+01 0.  0.
     999903    2    3    3    0    0 -0.61988752393E-01 -0.10678336602E+00 -0.47892181638E-01  0.13397983275E+00  0.20288958544E-01 0.  0.
         14    1    1    2    0    0  0.15085800223E-01  0.15475350849E-01  0.81341182775E-02  0.23091810939E-01  0.00000000000E+00 0. -1.
     999901    1    3    3    0    0  0.46902952169E-01  0.91308015176E-01  0.39758063360E-01  0.88685835631E+00  0.88000000000E+00 0. -1.
        -11    1    4    4    0    0 -0.52952593976E-01 -0.93181431193E-01 -0.33734470896E-01  0.11236116756E+00  0.51100000000E-03 0. -1.
         11    1    4    4    0    0 -0.90361584160E-02 -0.13601934832E-01 -0.14157710742E-01  0.21618665189E-01  0.51100000000E-03 0.  1.
</event>
<event>
 8    1  0.1319272E+005  0.1043930E+01  0.7957747E-01            NaN
         13   -1    0    0    0    0  0.00000000000E+00  0.00000000000E+00  0.74505805969E-08  0.10566000000E+00  0.10566000000E+00 0.  1.
     999900   -1    0    0    0    0 -0.00000000000E+00 -0.00000000000E+00 -0.74505805969E-08  0.93827000000E+00  0.93827000000E+00 0. -1.
     999902    2    1    2    0    0  0.28929853780E-01  0.58796517632E-02 -0.41840364189E-02  0.10141136806E+01  0.10136752656E+01 0.  0.
     999903    2    3    3    0    0 -0.10638246187E+00  0.52487145925E-01 -0.22534818348E-01  0.12236347311E+00  0.19821019935E-01 0.  0.
         14    1    1    2    0    0 -0.28929853780E-01 -0.58796517632E-02  0.41840364189E-02  0.29816319447E-01  0.00000000000E+00 0.  1.
     999901    1    3    3    0    0  0.13531231566E+00 -0.46607494162E-01  0.18350781929E-01  0.89175020744E+00  0.88000000000E+00 0.  1.
        -11    1    4    4    0    0 -0.57593441625E-01  0.17814777192E-01 -0.14108771327E-01  0.61916793796E-01  0.51100000000E-03 0. -1.
         11    1    4    4    0    0 -0.48789020250E-01  0.34672368734E-01 -0.84260470212E-02  0.60446679313E-01  0.51100000000E-03 0.  1.
</event>
<event>
 8    1  0.1115874E+005  0.1043930E+01  0.7957747E-01            NaN
         13   -1    0    0    0    0  0.00000000000E+00  0.00000000000E+00  0.74505805969E-08  0.10566000000E+00  0.10566000000E+00 0. -1.
     999900   -1    0    0    0    0 -0.00000000000E+00 -0.00000000000E+00 -0.74505805969E-08  0.93827000000E+00  0.93827000000E+00 0. -1.
     999902    2    1    2    0    0 -0.10055415017E-02 -0.10876491887E-01 -0.19595189458E-01  0.10214960828E+01  0.10212497083E+01 0.  0.
     999903    2    3    3    0    0 -0.64924560674E-02 -0.13129186564E+00  0.38013345493E-02  0.13297069445E+00  0.19673572888E-01 0.  0.
         14    1    1    2    0    0  0.10055415017E-02  0.10876491887E-01  0.19595189458E-01  0.22433917165E-01  0.00000000000E+00 0. -1.
     999901    1    3    3    0    0  0.54869145656E-02  0.12041537375E+00 -0.23396524007E-01  0.88852538838E+00  0.88000000000E+00 0. -1.
        -11    1    4    4    0    0 -0.26022316916E-02 -0.10978963734E+00  0.99321271583E-02  0.11026987053E+00  0.51100000000E-03 0. -1.
         11    1    4    4    0    0 -0.38902243758E-02 -0.21502228299E-01 -0.61307926091E-02  0.22700823917E-01  0.51100000000E-03 0.  1.
</event>
<event>
 8    1  0.1115874E+005  0.1043930E+01  0.7957747E-01            NaN
         13   -1    0    0    0    0  0.00000000000E+00  0.00000000000E+00  0.74505805969E-08  0.10566000000E+00  0.10566000000E+00 0.  1.
     999900   -1    0    0    0    0 -0.00000000000E+00 -0.00000000000E+00 -0.74505805969E-08  0.93827000000E+00  0.93827000000E+00 0.  1.
     999902    2    1    2    0    0  0.17762930106E-01 -0.36244422862E-02 -0.14456159279E-01  0.10207429603E+01  0.10204795697E+01 0.  0.
     999903    2    3    3    0    0 -0.10824660262E-01 -0.33655869615E-02 -0.13041683561E+00  0.13267528510E+00  0.21579615813E-01 0.  0.
         14    1    1    2    0    0 -0.17762930106E-01  0.36244422862E-02  0.14456159279E-01  0.23187039676E-01  0.00000000000E+00 0.  1.
     999901    1    3    3    0    0  0.28587590368E-01 -0.25885532464E-03  0.11596067633E+00  0.88806767523E+00  0.88000000000E+00 0. -1.
        -11    1    4    4    0    0 -0.16088002970E-01 -0.10387012638E-02 -0.63760029763E-01  0.65768573470E-01  0.51100000000E-03 0.  1.
         11    1    4    4    0    0  0.52633427079E-02 -0.23268856977E-02 -0.66656805850E-01  0.66906711626E-01  0.51100000000E-03 0. -1.
</event>
<event>
 8    1  0.1115874E+005  0.1043930E+01  0.7957747E-01            NaN
         13   -1    0    0    0    0  0.00000000000E+00  0.00000000000E+00  0.74505805969E-08  0.10566000000E+00  0.10566000000E+00 0.  1.
     999900   -1    0    0    0    0 -0.00000000000E+00 -0.00000000000E+00 -0.74505805969E-08  0.93827000000E+00  0.93827000000E+00 0. -1.
     999902    2    1    2    0    0 -0.96878649698E-02 -0.22443588239E-01 -0.49922807913E-02  0.10189802054E+01  0.10186747110E+01 0.  0.
     999903    2    3    3    0    0 -0.51246641782E-01 -0.53751048175E-01 -0.10693069589E+00  0.13156895386E+00  0.18995326324E-01 0.  0.
         14    1    1    2    0    0  0.96878649698E-02  0.22443588239E-01  0.49922807913E-02  0.24949794553E-01  0.00000000000E+00 0. -1.
     999901    1    3    3    0    0  0.41558776812E-01  0.31307459935E-01  0.10193841510E+00  0.88741125159E+00  0.88000000000E+00 0.  1.
        -11    1    4    4    0    0 -0.36988957147E-01 -0.28776533924E-01 -0.76352381695E-01  0.89589168804E-01  0.51100000000E-03 0. -1.
         11    1    4    4    0    0 -0.14257684635E-01 -0.24974514251E-01 -0.30578314192E-01  0.41979785052E-01  0.51100000000E-03 0.  1.
</event>
<event>
 8    1  0.1115874E+005  0.1043930E+01  0.7957747E-01            NaN
         13   -1    0    0    0    0  0.00000000000E+00  0.00000000000E+00  0.74505805969E-08  0.10566000000E+00  0.10566000000E+00 0.  1.
     999900   -1    0    0    0    0 -0.00000000000E+00 -0.00000000000E+00 -0.74505805969E-08  0.93827000000E+00  0.93827000000E+00 0. -1.
     999902    2    1    2    0    0  0.18291555068E-02 -0.64818772944E-02  0.24086177717E-01  0.10189199120E+01  0.10186129209E+01 0.  0.
     999903    2    3    3    0    0 -0.12133975191E+00  0.16162000983E-01 -0.32756837500E-01  0.12823789618E+00  0.19682528939E-01 0.  0.
         14    1    1    2    0    0 -0.18291555068E-02  0.64818772944E-02 -0.24086177717E-01  0.25010087967E-01  0.00000000000E+00 0. -1.
     999901    1    3    3    0    0  0.12316890742E+00 -0.22643878278E-01  0.56843015217E-01  0.89068201585E+00  0.88000000000E+00 0.  1.
        -11    1    4    4    0    0 -0.10888281596E+00  0.82802593725E-02 -0.29844190773E-01  0.11320321175E+00  0.51100000000E-03 0.  1.
         11    1    4    4    0    0 -0.12456935950E-01  0.78817416108E-02 -0.29126467273E-02  0.15034684434E-01  0.51100000000E-03 0. -1.
</event>
<event>
 8    1  0.1115874E+005  0.1043930E+01  0.7957747E-01            NaN
         13   -1    0    0    0    0  0.00000000000E+00  0.00000000000E+00  0.74505805969E-08  0.10566000000E+00  0.10566000000E+00 0.  1.
     999900   -1    0    0    0    0 -0.00000000000E+00 -0.00000000000E+00 -0.74505805969E-08  0.93827000000E+00  0.93827000000E+00 0.  1.
     999902    2    1    2    0    0  0.88920028698E-02 -0.22602079845E-01 -0.21263879385E-01  0.10116488245E+01  0.10111336557E+01 0.  0.
     999903    2    3    3    0    0  0.98739655549E-01 -0.45795993585E-01 -0.60090619290E-01  0.12591857541E+00  0.19945237553E-01 0.  0.
         14    1    1    2    0    0 -0.88920028698E-02  0.22602079845E-01  0.21263879385E-01  0.32281175550E-01  0.00000000000E+00 0.  1.
     999901    1    3    3    0    0 -0.89847652680E-01  0.23193913740E-01  0.38826739905E-01  0.88573024904E+00  0.88000000000E+00 0. -1.
        -11    1    4    4    0    0  0.67565307906E-01 -0.39876482506E-01 -0.37462247587E-01  0.86941853010E-01  0.51100000000E-03 0.  1.
         11    1    4    4    0    0  0.31174347643E-01 -0.59195110786E-02 -0.22628371703E-01  0.38976722404E-01  0.51100000000E-03 0. -1.
</event>
<event>
 8    1  0.1115874E+005  0.1043930E+01  0.7957747E-01            NaN
         13   -1    0    0    0    0  0.00000000000E+00  0.00000000000E+00  0.74505805969E-08  0.10566000000E+00  0.10566000000E+00 0. -1.
     999900   -1    0    0    0    0 -0.00000000000E+00 -0.00000000000E+00 -0.74505805969E-08  0.93827000000E+00  0.93827000000E+00 0. -1.
     999902    2    1    2    0    0 -0.12275268438E-01 -0.87702461554E-02 -0.18108225518E-01  0.10203607984E+01  0.10200885509E+01 0.  0.
     999903    2    3    3    0    0 -0.58262941791E-01 -0.10901418858E+00 -0.45099513333E-01  0.13306589606E+00  0.19846987044E-01 0.  0.
         14    1    1    2    0    0  0.12275268438E-01  0.87702461554E-02  0.18108225518E-01  0.23569201604E-01  0.00000000000E+00 0.  1.
     999901    1    3    3    0    0  0.45987673353E-01  0.10024394242E+00  0.26991287815E-01  0.88729490234E+00  0.88000000000E+00 0. -1.
        -11    1    4    4    0    0 -0.17484574908E-02 -0.10906044595E-01 -0.89099520389E-02  0.14200256288E-01  0.51100000000E-03 0.  1.
         11    1    4    4    0    0 -0.56514484300E-01 -0.98108143980E-01 -0.36189561294E-01  0.11886563977E+00  0.51100000000E-03 0. -1.
</event>
<event>
 7    1  0.1115874E+005  0.1043930E+01  0.7957747E-01            NaN
         13   -1    0    0    0    0  0.00000000000E+00  0.00000000000E+00  0.74505805969E-08  0.10566000000E+00  0.10566000000E+00 0. -1.
     999900   -1    0    0    0    0 -0.00000000000E+00 -0.00000000000E+00 -0.74505805969E-08  0.93827000000E+00  0.93827000000E+00 0.  1.
     999903    2    1    2    0    0  0.32508660399E-01  0.20101170811E-01 -0.10025116484E+00  0.10881272223E+00  0.18139525859E-01 0.  0.
         14    1    1    2    0    0  0.40364331803E-02 -0.16855805951E-01 -0.39685624825E-01  0.43305424658E-01  0.00000000000E+00 0.  1.
     999901    1    1    2    0    0 -0.36545093579E-01 -0.32453648603E-02  0.13993678966E+00  0.89181185312E+00  0.88000000000E+00 0. -1.
        -11    1    3    3    0    0  0.13485919658E-01  0.17985563152E-01 -0.63666069697E-01  0.67520219658E-01  0.51100000000E-03 0.  1.
         11    1    3    3    0    0  0.19022740741E-01  0.21156076592E-02 -0.36585095138E-01  0.41292502568E-01  0.51100000000E-03 0. -1.
</event>
<event>
 8    1  0.1115874E+005  0.1043930E+01  0.7957747E-01            NaN
         13   -1    0    0    0    0  0.00000000000E+00  0.00000000000E+00  0.74505805969E-08  0.10566000000E+00  0.10566000000E+00 0.  1.
     999900   -1    0    0    0    0 -0.00000000000E+00 -0.00000000000E+00 -0.74505805969E-08  0.93827000000E+00  0.93827000000E+00 0. -1.
     999902    2    1    2    0    0 -0.10053831093E-01  0.16180963712E-01  0.14501941588E-01  0.10199882078E+01  0.10197071808E+01 0.  0.
     999903    2    3    3    0    0  0.12258754895E+00  0.16355047225E-02 -0.33606451021E-01  0.12862984911E+00  0.19643383093E-01 0.  0.
         14    1    1    2    0    0  0.10053831093E-01 -0.16180963712E-01 -0.14501941588E-01  0.23941792250E-01  0.00000000000E+00 0. -1.
     999901    1    3    3    0    0 -0.13264138004E+00  0.14545458989E-01  0.48108392610E-01  0.89135835864E+00  0.88000000000E+00 0. -1.
        -11    1    4    4    0    0  0.90270046740E-01 -0.45505618901E-02 -0.31256094965E-01  0.95637824868E-01  0.51100000000E-03 0.  1.
         11    1    4    4    0    0  0.32317502208E-01  0.61860666126E-02 -0.23503560566E-02  0.32992024244E-01  0.51100000000E-03 0. -1.
</event>
<event>
 8    1  0.1115874E+005  0.1043930E+01  0.7957747E-01            NaN
         13   -1    0    0    0    0  0.00000000000E+00  0.00000000000E+00  0.74505805969E-08  0.10566000000E+00  0.10566000000E+00 0. -1.
     999900   -1    0    0    0    0 -0.00000000000E+00 -0.00000000000E+00 -0.74505805969E-08  0.93827000000E+00  0.93827000000E+00 0.  1.
     999902    2    1    2    0    0  0.14289816684E-01 -0.13861505173E-01 -0.94389857369E-02  0.10218974187E+01  0.10216598748E+01 0.  0.
     999903    2    3    3    0    0 -0.10039205821E+00  0.56262417617E-02 -0.82189649431E-01  0.13126597766E+00  0.19115398761E-01 0.  0.
         14    1    1    2    0    0 -0.14289816684E-01  0.13861505173E-01  0.94389857369E-02  0.22032581290E-01  0.00000000000E+00 0. -1.
     999901    1    3    3    0    0  0.11468187490E+00 -0.19487746935E-01  0.72750663694E-01  0.89063144105E+00  0.88000000000E+00 0.  1.
        -11    1    4    4    0    0 -0.73576235955E-02  0.40471806856E-03 -0.13895296726E-01  0.15736543896E-01  0.51100000000E-03 0.  1.
         11    1    4    4    0    0 -0.93034434619E-01  0.52215236931E-02 -0.68294352706E-01  0.11552943377E+00  0.51100000000E-03 0. -1.
</event>
<event>
 8    1  0.1115874E+005  0.1043930E+01  0.7957747E-01            NaN
         13   -1    0    0    0    0  0.00000000000E+00  0.00000000000E+00  0.74505805969E-08  0.10566000000E+00  0.10566000000E+00 0. -1.
     999900   -1    0    0    0    0 -0.00000000000E+00 -0.00000000000E+00 -0.74505805969E-08  0.93827000000E+00  0.93827000000E+00 0.  1.
     999902    2    1    2    0    0  0.91090468656E-02  0.21046010542E-01  0.70392318723E-02  0.10199412510E+01  0.10196591074E+01 0.  0.
     999903    2    3    3    0    0  0.36373797075E-01  0.12660782060E+00  0.56593813023E-02  0.13321211176E+00  0.18995914574E-01 0.  0.
         14    1    1    2    0    0 -0.91090468656E-02 -0.21046010542E-01 -0.70392318723E-02  0.23988749027E-01  0.00000000000E+00 0.  1.
     999901    1    3    3    0    0 -0.27264750209E-01 -0.10556181006E+00  0.13798505700E-02  0.88672913922E+00  0.88000000000E+00 0.  1.
        -11    1    4    4    0    0  0.25490954947E-01  0.64642444364E-01 -0.37826614677E-02  0.69591695239E-01  0.51100000000E-03 0.  1.
         11    1    4    4    0    0  0.10882842128E-01  0.61965376239E-01  0.94420427700E-02  0.63620416518E-01  0.51100000000E-03 0. -1.
</event>
<event>
 8    1  0.1115874E+005  0.1043930E+01  0.7957747E-01            NaN
         13   -1    0    0    0    0  0.00000000000E+00  0.00000000000E+00  0.74505805969E-08  0.10566000000E+00  0.10566000000E+00 0. -1.
     999900   -1    0    0    0    0 -0.00000000000E+00 -0.00000000000E+00 -0.74505805969E-08  0.93827000000E+00  0.93827000000E+00 0.  1.
     999902    2    1    2    0    0 -0.19190572779E-01 -0.14726866284E-01  0.28331008508E-02  0.10195746077E+01  0.10192836678E+01 0.  0.
     999903    2    3    3    0    0 -0.98392027771E-01  0.82878041737E-01 -0.85438672921E-02  0.13057009480E+00  0.20634705129E-01 0.  0.
         14    1    1    2    0    0  0.19190572779E-01  0.14726866284E-01 -0.28331008508E-02  0.24355392310E-01  0.00000000000E+00 0.  1.
     999901    1    3    3    0    0  0.79201454992E-01 -0.97604908020E-01  0.11376968143E-01  0.88900451289E+00  0.88000000000E+00 0.  1.
        -11    1    4    4    0    0 -0.72131755565E-02  0.14269292808E-01 -0.33395622211E-02  0.16341860839E-01  0.51100000000E-03 0. -1.
         11    1    4    4    0    0 -0.91178852215E-01  0.68608748929E-01 -0.52043050710E-02  0.11422823396E+00  0.51100000000E-03 0.  1.
</event>
<event>
 8    1  0.1115874E+005  0.1043930E+01  0.7957747E-01            NaN
         13   -1    0    0    0    0  0.00000000000E+00  0.00000000000E+00  0.74505805969E-08  0.10566000000E+00  0.10566000000E+00 0.  1.
     999900   -1    0    0    0    0 -0.00000000000E+00 -0.00000000000E+00 -0.74505805969E-08  0.93827000000E+00  0.93827000000E+00 0. -1.
     999902    2    1    2    0    0 -0.60224617360E-03  0.19399962235E-01 -0.13440336024E-01  0.10203214450E+01  0.10200482770E+01 0.  0.
     999903    2    3    3    0    0  0.99107126017E-01 -0.73813568737E-01 -0.33385419779E-01  0.12957539389E+00  0.20112958293E-01 0.  0.
         14    1    1    2    0    0  0.60224617360E-03 -0.19399962235E-01  0.13440336024E-01  0.23608554967E-01  0.00000000000E+00 0. -1.
     999901    1    3    3    0    0 -0.99709372191E-01  0.93213530972E-01  0.19945083755E-01  0.89074605114E+00  0.88000000000E+00 0.  1.
        -11    1    4    4    0    0  0.83242500157E-01 -0.69536191067E-01 -0.31950367791E-01  0.11307379371E+00  0.51100000000E-03 0.  1.
         11    1    4    4    0    0  0.15864625860E-01 -0.42773776698E-02 -0.14350519880E-02  0.16501600184E-01  0.51100000000E-03 0. -1.
</event>
<event>
 8    1  0.1115874E+005  0.1043930E+01  0.7957747E-01            NaN
         13   -1    0    0    0    0  0.00000000000E+00  0.00000000000E+00  0.74505805969E-08  0.10566000000E+00  0.10566000000E+00 0.  1.
     999900   -1    0    0    0    0 -0.00000000000E+00 -0.00000000000E+00 -0.74505805969E-08  0.93827000000E+00  0.93827000000E+00 0.  1.
     999902    2    1    2    0    0  0.11022326248E-01 -0.77694684312E-02 -0.19635985746E-01  0.10201092475E+01  0.10198310882E+01 0.  0.
     999903    2    3    3    0    0 -0.70637123916E-01 -0.10711636120E+00  0.93366190368E-02  0.13029045538E+00  0.20613398428E-01 0.  0.
         14    1    1    2    0    0 -0.11022326248E-01  0.77694684312E-02  0.19635985746E-01  0.23820752545E-01  0.00000000000E+00 0.  1.
     999901    1    3    3    0    0  0.81659450164E-01  0.99346892773E-01 -0.28972604782E-01  0.88981879208E+00  0.88000000000E+00 0.  1.
        -11    1    4    4    0    0 -0.86421017864E-02 -0.27304780768E-01 -0.12759746984E-02  0.28672743303E-01  0.51100000000E-03 0.  1.
         11    1    4    4    0    0 -0.61995022130E-01 -0.79811580437E-01  0.10612593735E-01  0.10161771208E+00  0.51100000000E-03 0. -1.
</event>
<event>
 8    1  0.1115874E+005  0.1043930E+01  0.7957747E-01            NaN
         13   -1    0    0    0    0  0.00000000000E+00  0.00000000000E+00  0.74505805969E-08  0.10566000000E+00  0.10566000000E+00 0. -1.
     999900   -1    0    0    0    0 -0.00000000000E+00 -0.00000000000E+00 -0.74505805969E-08  0.93827000000E+00  0.93827000000E+00 0. -1.
     999902    2    1    2    0    0  0.19047046927E-01  0.13440937472E-01 -0.26557456885E-02  0.10204672256E+01  0.10201974597E+01 0.  0.
     999903    2    3    3    0    0 -0.51686157174E-01 -0.11421651161E-01  0.11633585384E+00  0.12929926432E+00  0.19553923023E-01 0.  0.
         14    1    1    2    0    0 -0.19047046927E-01 -0.13440937472E-01  0.26557456885E-02  0.23462774387E-01  0.00000000000E+00 0. -1.
     999901    1    3    3    0    0  0.70733204101E-01  0.24862588633E-01 -0.11899159953E+00  0.89116796129E+00  0.88000000000E+00 0. -1.
        -11    1    4    4    0    0 -0.24851133077E-01  0.23294593210E-02  0.39167037806E-01  0.46446993093E-01  0.51100000000E-03 0. -1.
         11    1    4    4    0    0 -0.26835024098E-01 -0.13751110482E-01  0.77168816038E-01  0.82852271227E-01  0.51100000000E-03 0.  1.
</event>
<event>
 8    1  0.1115874E+005  0.1043930E+01  0.7957747E-01            NaN
         13   -1    0    0    0    0  0.00000000000E+00  0.00000000000E+00  0.74505805969E-08  0.10566000000E+00  0.10566000000E+00 0. -1.
     999900   -1    0    0    0    0 -0.00000000000E+00 -0.00000000000E+00 -0.74505805969E-08  0.93827000000E+00  0.93827000000E+00 0.  1.
     999902    2    1    2    0    0 -0.10584143475E-03  0.13442165715E-01 -0.19261074691E-01  0.10204418749E+01  0.10201715189E+01 0.  0.
     999903    2    3    3    0    0 -0.95088250348E-01 -0.85413678680E-01  0.74697022897E-02  0.12942634733E+00  0.18923822824E-01 0.  0.
         14    1    1    2    0    0  0.10584143475E-03 -0.13442165715E-01  0.19261074691E-01  0.23488125080E-01  0.00000000000E+00 0. -1.
     999901    1    3    3    0    0  0.94982408914E-01  0.98855844395E-01 -0.26730776980E-01  0.89101552759E+00  0.88000000000E+00 0.  1.
        -11    1    4    4    0    0 -0.69908023513E-01 -0.62609541406E-01  0.13828843344E-01  0.94860868939E-01  0.51100000000E-03 0.  1.
         11    1    4    4    0    0 -0.25180226835E-01 -0.22804137273E-01 -0.63591410545E-02  0.34565478388E-01  0.51100000000E-03 0. -1.
</event>
<event>
 8    1  0.1115874E+005  0.1043930E+01  0.7957747E-01            NaN
         13   -1    0    0    0    0  0.00000000000E+00  0.00000000000E+00  0.74505805969E-08  0.10566000000E+00  0.10566000000E+00 0.  1.
     999900   -1    0    0    0    0 -0.00000000000E+00 -0.00000000000E+00 -0.74505805969E-08  0.93827000000E+00  0.93827000000E+00 0. -1.
     999902    2    1    2    0    0 -0.18636298898E-01 -0.11554840117E-01 -0.10058173589E-01  0.10198054726E+01  0.10195200876E+01 0.  0.
     999903    2    3    3    0    0  0.12102985240E+00 -0.36217800327E-01 -0.10967891172E-01  0.12844935800E+00  0.20469213539E-01 0.  0.
         14    1    1    2    0    0  0.18636298898E-01  0.11554840117E-01  0.10058173589E-01  0.24124527409E-01  0.00000000000E+00 0.  1.
     999901    1    3    3    0    0 -0.13966615130E+00  0.24662960210E-01  0.90971758342E-03  0.89135611459E+00  0.88000000000E+00 0.  1.
        -11    1    4    4    0    0  0.11566369265E+00 -0.29597832730E-01 -0.93217299970E-02  0.11975507201E+00  0.51100000000E-03 0.  1.
         11    1    4    4    0    0  0.53661597484E-02 -0.66199675968E-02 -0.16461611753E-02  0.86942859996E-02  0.51100000000E-03 0. -1.
</event>
<event>
 8    1  0.1115874E+005  0.1043930E+01  0.7957747E-01            NaN
         13   -1    0    0    0    0  0.00000000000E+00  0.00000000000E+00  0.74505805969E-08  0.10566000000E+00  0.10566000000E+00 0. -1.
     999900   -1    0    0    0    0 -0.00000000000E+00 -0.00000000000E+00 -0.74505805969E-08  0.93827000000E+00  0.93827000000E+00 0.  1.
     999902    2    1    2    0    0 -0.18034678774E-02 -0.22867610681E-01 -0.70569316214E-02  0.10199304084E+01  0.10196480067E+01 0.  0.
     999903    2    3    3    0    0  0.41881401419E-01 -0.95549272689E-01  0.78001950224E-01  0.13177163586E+00  0.19893327591E-01 0.  0.
         14    1    1    2    0    0  0.18034678774E-02  0.22867610681E-01  0.70569316214E-02  0.23999591633E-01  0.00000000000E+00 0.  1.
     999901    1    3    3    0    0 -0.43684869296E-01  0.72681662008E-01 -0.85058881845E-01  0.88815877251E+00  0.88000000000E+00 0.  1.
        -11    1    4    4    0    0  0.29580076715E-01 -0.43220199091E-01  0.36084644282E-01  0.63602902621E-01  0.51100000000E-03 0. -1.
         11    1    4    4    0    0  0.12301324704E-01 -0.52329073598E-01  0.41917305942E-01  0.68168733240E-01  0.51100000000E-03 0.  1.
</event>
<event>
 8    1  0.1115874E+005  0.1043930E+01  0.7957747E-01            NaN
         13   -1    0    0    0    0  0.00000000000E+00  0.00000000000E+00  0.74505805969E-08  0.10566000000E+00  0.10566000000E+00 0.  1.
     999900   -1    0    0    0    0 -0.00000000000E+00 -0.00000000000E+00 -0.74505805969E-08  0.93827000000E+00  0.93827000000E+00 0. -1.
     999902    2    1    2    0    0  0.13828957881E-01  0.10522718529E-01  0.17266284591E-01  0.10194332193E+01  0.10191388504E+01 0.  0.
     999903    2    3    3    0    0 -0.47306640450E-01 -0.11565822227E+00  0.21237604560E-01  0.12832438050E+00  0.20034175116E-01 0.  0.
         14    1    1    2    0    0 -0.13828957881E-01 -0.10522718529E-01 -0.17266284591E-01  0.24496780704E-01  0.00000000000E+00 0. -1.
     999901    1    3    3    0    0  0.61135598331E-01  0.12618094080E+00 -0.39713199693E-02  0.89110883880E+00  0.88000000000E+00 0. -1.
        -11    1    4    4    0    0 -0.20855342976E-01 -0.64504643730E-01  0.20144850187E-01  0.70723903338E-01  0.51100000000E-03 0. -1.
         11    1    4    4    0    0 -0.26451297474E-01 -0.51153578542E-01  0.10927543730E-02  0.57600477158E-01  0.51100000000E-03 0.  1.
</event>
<event>
 8    1  0.1115874E+005  0.1043930E+01  0.7957747E-01            NaN
         13   -1    0    0    0    0  0.00000000000E+00  0.00000000000E+00  0.74505805969E-08  0.10566000000E+00  0.10566000000E+00 0. -1.
     999900   -1    0    0    0    0 -0.00000000000E+00 -0.00000000000E+00 -0.74505805969E-08  0.93827000000E+00  0.93827000000E+00 0. -1.
     999902    2    1    2    0    0  0.24998247934E-01 -0.90812421367E-03  0.17664083312E-02  0.10188529729E+01  0.10185443157E+01 0.  0.
     999903    2    3    3    0    0  0.16633542373E-01 -0.10440454103E+00 -0.72832760528E-01  0.12961368420E+00  0.17835728343E-01 0.  0.
         14    1    1    2    0    0 -0.24998247934E-01  0.90812421367E-03 -0.17664083312E-02  0.25077027092E-01  0.00000000000E+00 0. -1.
     999901    1    3    3    0    0  0.83647055609E-02  0.10349641682E+00  0.74599168859E-01  0.88923928871E+00  0.88000000000E+00 0.  1.
        -11    1    4    4    0    0  0.12940651447E-01 -0.84267537722E-01 -0.66663258225E-01  0.10822536436E+00  0.51100000000E-03 0. -1.
         11    1    4    4    0    0  0.36928909260E-02 -0.20137003308E-01 -0.61695023029E-02  0.21388319833E-01  0.51100000000E-03 0.  1.
</event>
<event>
 7    1  0.1115874E+005  0.1043930E+01  0.7957747E-01            NaN
         13   -1    0    0    0    0  0.00000000000E+00  0.00000000000E+00  0.74505805969E-08  0.10566000000E+00  0.10566000000E+00 0. -1.
     999900   -1    0    0    0    0 -0.00000000000E+00 -0.00000000000E+00 -0.74505805969E-08  0.93827000000E+00  0.93827000000E+00 0. -1.
     999903    2    1    2    0    0 -0.27275915072E-01 -0.29409609927E-01 -0.99301576455E-01  0.10899790813E+00  0.20269193164E-01 0.  0.
         14    1    1    2    0    0  0.31785717906E-01 -0.42155064017E-02  0.41416886924E-01  0.52378057233E-01  0.00000000000E+00 0. -1.
     999901    1    1    2    0    0 -0.45098028342E-02  0.33625116329E-01  0.57884689530E-01  0.88255403464E+00  0.88000000000E+00 0.  1.
        -11    1    3    3    0    0 -0.11362059010E-01 -0.26335245801E-01 -0.65599053278E-01  0.71597056282E-01  0.51100000000E-03 0. -1.
         11    1    3    3    0    0 -0.15913856062E-01 -0.30743641266E-02 -0.33702523177E-01  0.37400851849E-01  0.51100000000E-03 0.  1.
</event>
<event>
 8    1  0.1115874E+005  0.1043930E+01  0.7957747E-01            NaN
         13   -1    0    0    0    0  0.00000000000E+00  0.00000000000E+00  0.74505805969E-08  0.10566000000E+00  0.10566000000E+00 0.  1.
     999900   -1    0    0    0    0 -0.00000000000E+00 -0.00000000000E+00 -0.74505805969E-08  0.93827000000E+00  0.93827000000E+00 0.  1.
     999902    2    1    2    0    0 -0.13465791965E-01 -0.61265733645E-02  0.17859035561E-01  0.10207393207E+01  0.10204758465E+01 0.  0.
     999903    2    3    3    0    0  0.90808420889E-01  0.88493832483E-01 -0.12144401476E-01  0.12904075119E+00  0.20656749205E-01 0.  0.
         14    1    1    2    0    0  0.13465791965E-01  0.61265733645E-02 -0.17859035561E-01  0.23190679283E-01  0.00000000000E+00 0. -1.
     999901    1    3    3    0    0 -0.10427421285E+00 -0.94620405847E-01  0.30003437037E-01  0.89169856953E+00  0.88000000000E+00 0. -1.
        -11    1    4    4    0    0  0.62565432580E-01  0.62743595652E-01  0.10197985379E-02  0.88614294892E-01  0.51100000000E-03 0.  1.
         11    1    4    4    0    0  0.28242988309E-01  0.25750236831E-01 -0.13164200014E-01  0.40426456294E-01  0.51100000000E-03 0. -1.
</event>
<event>
 8    1  0.1115874E+005  0.1043930E+01  0.7957747E-01            NaN
         13   -1    0    0    0    0  0.00000000000E+00  0.00000000000E+00  0.74505805969E-08  0.10566000000E+00  0.10566000000E+00 0. -1.
     999900   -1    0    0    0    0 -0.00000000000E+00 -0.00000000000E+00 -0.74505805969E-08  0.93827000000E+00  0.93827000000E+00 0. -1.
     999902    2    1    2    0    0 -0.83552520139E-02  0.89138125115E-02  0.20467398081E-01  0.10200934593E+01  0.10198149268E+01 0.  0.
     999903    2    3    3    0    0 -0.32636977996E-01 -0.57405223875E-01  0.11296389435E+00  0.13243168887E+00  0.20415159303E-01 0.  0.
         14    1    1    2    0    0  0.83552520139E-02 -0.89138125115E-02 -0.20467398081E-01  0.23836540728E-01  0.00000000000E+00 0.  1.
     999901    1    3    3    0    0  0.24281725982E-01  0.66319036387E-01 -0.92496496273E-01  0.88766177040E+00  0.88000000000E+00 0. -1.
        -11    1    4    4    0    0 -0.30848371182E-01 -0.55866115572E-01  0.95877258687E-01  0.11517532170E+00  0.51100000000E-03 0.  1.
         11    1    4    4    0    0 -0.17886068136E-02 -0.15391083028E-02  0.17086635667E-01  0.17256367176E-01  0.51100000000E-03 0. -1.
</event>
<event>
 8    1  0.1115874E+005  0.1043930E+01  0.7957747E-01            NaN
         13   -1    0    0    0    0  0.00000000000E+00  0.00000000000E+00  0.74505805969E-08  0.10566000000E+00  0.10566000000E+00 0. -1.
     999900   -1    0    0    0    0 -0.00000000000E+00 -0.00000000000E+00 -0.74505805969E-08  0.93827000000E+00  0.93827000000E+00 0.  1.
     999902    2    1    2    0    0 -0.31896365940E-02 -0.49883005173E-02 -0.22993545037E-01  0.10201863685E+01  0.10199100286E+01 0.  0.
     999903    2    3    3    0    0  0.10128863146E+00 -0.78800163173E-01  0.10363307508E-01  0.13031189466E+00  0.20123100375E-01 0.  0.
         14    1    1    2    0    0  0.31896365940E-02  0.49883005173E-02  0.22993545037E-01  0.23743631505E-01  0.00000000000E+00 0. -1.
     999901    1    3    3    0    0 -0.10447826806E+00  0.73811862655E-01 -0.33356852545E-01  0.88987447383E+00  0.88000000000E+00 0.  1.
        -11    1    4    4    0    0  0.55915893843E-01 -0.53140734580E-01 -0.11269657866E-03  0.77141419986E-01  0.51100000000E-03 0. -1.
         11    1    4    4    0    0  0.45372737620E-01 -0.25659428593E-01  0.10476004086E-01  0.53170474678E-01  0.51100000000E-03 0.  1.
</event>
<event>
 8    1  0.1115874E+005  0.1043930E+01  0.7957747E-01            NaN
         13   -1    0    0    0    0  0.00000000000E+00  0.00000000000E+00  0.74505805969E-08  0.10566000000E+00  0.10566000000E+00 0.  1.
     999900   -1    0    0    0    0 -0.00000000000E+00 -0.00000000000E+00 -0.74505805969E-08  0.93827000000E+00  0.93827000000E+00 0. -1.
     999902    2    1    2    0    0 -0.13211609760E-01 -0.84213043281E-02  0.18063723404E-01  0.10200184316E+01  0.10197381221E+01 0.  0.
     999903    2    3    3    0    0  0.92782220327E-01  0.80172674483E-01 -0.30267785608E-01  0.12793126107E+00  0.20348724074E-01 0.  0.
         14    1    1    2    0    0  0.13211609760E-01  0.84213043281E-02 -0.18063723404E-01  0.23911568377E-01  0.00000000000E+00 0. -1.
     999901    1    3    3    0    0 -0.10599383009E+00 -0.88593978811E-01  0.48331509011E-01  0.89208717055E+00  0.88000000000E+00 0.  1.
        -11    1    4    4    0    0  0.55506537938E-01  0.55367271896E-01 -0.10942590995E-01  0.79161303487E-01  0.51100000000E-03 0.  1.
         11    1    4    4    0    0  0.37275682389E-01  0.24805402587E-01 -0.19325194613E-01  0.48769957585E-01  0.51100000000E-03 0. -1.
</event>
<event>
 8    1  0.1115874E+005  0.1043930E+01  0.7957747E-01            NaN
         13   -1    0    0    0    0  0.00000000000E+00  0.00000000000E+00  0.74505805969E-08  0.10566000000E+00  0.10566000000E+00 0. -1.
     999900   -1    0    0    0    0 -0.00000000000E+00 -0.00000000000E+00 -0.74505805969E-08  0.93827000000E+00  0.93827000000E+00 0. -1.
     999902    2    1    2    0    0  0.27429847774E-01 -0.41568075754E-02  0.46367179622E-03  0.10161830977E+01  0.10158042121E+01 0.  0.
     999903    2    3    3    0    0  0.10172073695E+00  0.57386101431E-01  0.52170432608E-01  0.12940225947E+00  0.19568284417E-01 0.  0.
         14    1    1    2    0    0 -0.27429847774E-01  0.41568075754E-02 -0.46367179622E-03  0.27746902343E-01  0.00000000000E+00 0. -1.
     999901    1    3    3    0    0 -0.74290889172E-01 -0.61542909006E-01 -0.51706760812E-01  0.88678083819E+00  0.88000000000E+00 0. -1.
        -11    1    4    4    0    0  0.90189499055E-02  0.87047911918E-02  0.29494403834E-03  0.12548424605E-01  0.51100000000E-03 0. -1.
         11    1    4    4    0    0  0.92701787040E-01  0.48681310239E-01  0.51875488570E-01  0.11685383486E+00  0.51100000000E-03 0.  1.
</event>
<event>
 8    1  0.1115874E+005  0.1043930E+01  0.7957747E-01            NaN
         13   -1    0    0    0    0  0.00000000000E+00  0.00000000000E+00  0.74505805969E-08  0.10566000000E+00  0.10566000000E+00 0. -1.
     999900   -1    0    0    0    0 -0.00000000000E+00 -0.00000000000E+00 -0.74505805969E-08  0.93827000000E+00  0.93827000000E+00 0.  1.
     999902    2    1    2    0    0 -0.96915423727E-03 -0.17848020870E-01  0.15301367521E-01  0.10204008063E+01  0.10201294930E+01 0.  0.
     999903    2    3    3    0    0 -0.19551431457E-01  0.12368569287E+00  0.23162074698E-01  0.12886343530E+00  0.19720399568E-01 0.  0.
         14    1    1    2    0    0  0.96915423727E-03  0.17848020870E-01 -0.15301367521E-01  0.23529193716E-01  0.00000000000E+00 0.  1.
     999901    1    3    3    0    0  0.18582277219E-01 -0.14153371374E+00 -0.78607071773E-02  0.89153737099E+00  0.88000000000E+00 0.  1.
        -11    1    4    4    0    0 -0.19118527620E-01  0.11804084252E+00  0.26202031082E-01  0.12241718080E+00  0.51100000000E-03 0.  1.
         11    1    4    4    0    0 -0.43290383644E-03  0.56448503467E-02 -0.30399563835E-02  0.64462544925E-02  0.51100000000E-03 0. -1.
</event>
<event>
 8    1  0.1115874E+005  0.1043930E+01  0.7957747E-01            NaN
         13   -1    0    0    0    0  0.00000000000E+00  0.00000000000E+00  0.74505805969E-08  0.10566000000E+00  0.10566000000E+00 0. -1.
     999900   -1    0    0    0    0 -0.00000000000E+00 -0.00000000000E+00 -0.74505805969E-08  0.93827000000E+00  0.93827000000E+00 0. -1.
     999902    2    1    2    0    0  0.17299559083E-01  0.12490762098E-01  0.10126278545E-01  0.10203114607E+01  0.10200380588E+01 0.  0.
     999903    2    3    3    0    0 -0.11255826597E+00  0.60716320225E-01  0.20038880724E-02  0.12943844369E+00  0.19861026076E-01 0.  0.
         14    1    1    2    0    0 -0.17299559083E-01 -0.12490762098E-01 -0.10126278545E-01  0.23618539316E-01  0.00000000000E+00 0.  1.
     999901    1    3    3    0    0  0.12985782505E+00 -0.48225558126E-01  0.81223904723E-02  0.89087301700E+00  0.88000000000E+00 0.  1.
        -11    1    4    4    0    0 -0.95144359739E-01  0.47426111999E-01  0.83161544129E-02  0.10663538266E+00  0.51100000000E-03 0. -1.
         11    1    4    4    0    0 -0.17413906232E-01  0.13290208226E-01 -0.63122663405E-02  0.22803061030E-01  0.51100000000E-03 0.  1.
</event>
<event>
 8    1  0.1115874E+005  0.1043930E+01  0.7957747E-01            NaN
         13   -1    0    0    0    0  0.00000000000E+00  0.00000000000E+00  0.74505805969E-08  0.10566000000E+00  0.10566000000E+00 0.  1.
     999900   -1    0    0    0    0 -0.00000000000E+00 -0.00000000000E+00 -0.74505805969E-08  0.93827000000E+00  0.93827000000E+00 0. -1.
     999902    2    1    2    0    0  0.69172495387E-02  0.86630576435E-02 -0.15339543844E-01  0.10250038669E+01  0.10248291217E+01 0.  0.
     999903    2    3    3    0    0 -0.67274249555E-01  0.64386620919E-01  0.93515826452E-01  0.13345522230E+00  0.19839983751E-01 0.  0.
         14    1    1    2    0    0 -0.69172495387E-02 -0.86630576435E-02  0.15339543844E-01  0.18926133104E-01  0.00000000000E+00 0.  1.
     999901    1    3    3    0    0  0.74191499094E-01 -0.55723563276E-01 -0.10885537030E+00  0.89154864460E+00  0.88000000000E+00 0. -1.
        -11    1    4    4    0    0 -0.24616992148E-01  0.16635623701E-01  0.19292235148E-01  0.35428685218E-01  0.51100000000E-03 0. -1.
         11    1    4    4    0    0 -0.42657257407E-01  0.47750997219E-01  0.74223591304E-01  0.98026537080E-01  0.51100000000E-03 0.  1.
</event>
<event>
 8    1  0.1115874E+005  0.1043930E+01  0.7957747E-01            NaN
         13   -1    0    0    0    0  0.00000000000E+00  0.00000000000E+00  0.74505805969E-08  0.10566000000E+00  0.10566000000E+00 0. -1.
     999900   -1    0    0    0    0 -0.00000000000E+00 -0.00000000000E+00 -0.74505805969E-08  0.93827000000E+00  0.93827000000E+00 0. -1.
     999902    2    1    2    0    0 -0.16033938149E-01 -0.14458968970E-01  0.98651530573E-02  0.10201924727E+01  0.10199162766E+01 0.  0.
     999903    2    3    3    0    0  0.12293711101E+00 -0.25690966764E-01 -0.19348726449E-01  0.12873716760E+00  0.20623434941E-01 0.  0.
         14    1    1    2    0    0  0.16033938149E-01  0.14458968970E-01 -0.98651530573E-02  0.23737527274E-01  0.00000000000E+00 0.  1.
     999901    1    3    3    0    0 -0.13897104916E+00  0.11231997794E-01  0.29213879507E-01  0.89145530513E+00  0.88000000000E+00 0.  1.
        -11    1    4    4    0    0  0.93441210873E-01 -0.22945746918E-01 -0.22874576312E-01  0.98900326357E-01  0.51100000000E-03 0. -1.
         11    1    4    4    0    0  0.29495900141E-01 -0.27452198459E-02  0.35258498622E-02  0.29836841243E-01  0.51100000000E-03 0.  1.
</event>
<event>
 8    1  0.1115874E+005  0.1043930E+01  0.7957747E-01            NaN
         13   -1    0    0    0    0  0.00000000000E+00  0.00000000000E+00  0.74505805969E-08  0.10566000000E+00  0.10566000000E+00 0. -1.
     999900   -1    0    0    0    0 -0.00000000000E+00 -0.00000000000E+00 -0.74505805969E-08  0.93827000000E+00  0.93827000000E+00 0.  1.
     999902    2    1    2    0    0 -0.10546869134E-01 -0.22147560143E-01  0.48143822989E-02  0.10189314171E+01  0.10186247119E+01 0.  0.
     999903    2    3    3    0    0 -0.70452525988E-01 -0.92283276673E-01  0.59661584416E-01  0.13241242577E+00  0.22221257193E-01 0.  0.
         14    1    1    2    0    0  0.10546869134E-01  0.22147560143E-01 -0.48143822989E-02  0.24998582875E-01  0.00000000000E+00 0.  1.
     999901    1    3    3    0    0  0.59905656854E-01  0.70135716529E-01 -0.54847202117E-01  0.88651899136E+00  0.88000000000E+00 0. -1.
        -11    1    4    4    0    0 -0.53008791493E-01 -0.81340054419E-01  0.53785149234E-01  0.11099207101E+00  0.51100000000E-03 0.  1.
         11    1    4    4    0    0 -0.17443734495E-01 -0.10943222254E-01  0.58764351822E-02  0.21420354757E-01  0.51100000000E-03 0. -1.
</event>
<event>
 8    1  0.1115874E+005  0.1043930E+01  0.7957747E-01            NaN
         13   -1    0    0    0    0  0.00000000000E+00  0.00000000000E+00  0.74505805969E-08  0.10566000000E+00  0.10566000000E+00 0. -1.
     999900   -1    0    0    0    0 -0.00000000000E+00 -0.00000000000E+00 -0.74505805969E-08  0.93827000000E+00  0.93827000000E+00 0. -1.
     999902    2    1    2    0    0  0.14889635438E-02  0.23820546762E-01 -0.40328074263E-02  0.10197246494E+01  0.10194373260E+01 0.  0.
     999903    2    3    3    0    0 -0.12918035035E-01  0.19920550142E-01 -0.12606504711E+00  0.13117828648E+00  0.27416104643E-01 0.  0.
         14    1    1    2    0    0 -0.14889635438E-02 -0.23820546762E-01  0.40328074263E-02  0.24205350570E-01  0.00000000000E+00 0. -1.
     999901    1    3    3    0    0  0.14406998579E-01  0.38999966200E-02  0.12203223969E+00  0.88854636295E+00  0.88000000000E+00 0.  1.
        -11    1    4    4    0    0 -0.17341515850E-01  0.23688425356E-01 -0.90667358786E-01  0.95303204238E-01  0.51100000000E-03 0.  1.
         11    1    4    4    0    0  0.44234808149E-02 -0.37678752141E-02 -0.35397688328E-01  0.35875082246E-01  0.51100000000E-03 0. -1.
</event>
<event>
 8    1  0.1115874E+005  0.1043930E+01  0.7957747E-01            NaN
         13   -1    0    0    0    0  0.00000000000E+00  0.00000000000E+00  0.74505805969E-08  0.10566000000E+00  0.10566000000E+00 0. -1.
     999900   -1    0    0    0    0 -0.00000000000E+00 -0.00000000000E+00 -0.74505805969E-08  0.93827000000E+00  0.93827000000E+00 0.  1.
     999902    2    1    2    0    0 -0.46876210461E-02 -0.15196270538E-01 -0.18182636836E-01  0.10197740750E+01  0.10194879378E+01 0.  0.
     999903    2    3    3    0    0 -0.33404319692E-03  0.16106422749E-01 -0.12964772643E+00  0.13217997948E+00  0.20086950150E-01 0.  0.
         14    1    1    2    0    0  0.46876210461E-02  0.15196270538E-01  0.18182636836E-01  0.24155924980E-01  0.00000000000E+00 0. -1.
     999901    1    3    3    0    0 -0.43535778492E-02 -0.31302693287E-01  0.11146508960E+00  0.88759409554E+00  0.88000000000E+00 0. -1.
        -11    1    4    4    0    0  0.94873410713E-02  0.51645984072E-02 -0.63673923123E-01  0.64585697520E-01  0.51100000000E-03 0.  1.
         11    1    4    4    0    0 -0.98213842683E-02  0.10941824342E-01 -0.65973803309E-01  0.67594281955E-01  0.51100000000E-03 0. -1.
</event>
<event>
 8    1  0.1115874E+005  0.1043930E+01  0.7957747E-01            NaN
         13   -1    0    0    0    0  0.00000000000E+00  0.00000000000E+00  0.74505805969E-08  0.10566000000E+00  0.10566000000E+00 0. -1.
     999900   -1    0    0    0    0 -0.00000000000E+00 -0.00000000000E+00 -0.74505805969E-08  0.93827000000E+00  0.93827000000E+00 0. -1.
     999902    2    1    2    0    0  0.11320034579E-01  0.26542662324E-01  0.12867390766E-01  0.10123352876E+01  0.10118421362E+01 0.  0.
     999903    2    3    3    0    0 -0.13267734865E-01 -0.71825057982E-01  0.96338249416E-01  0.12258917154E+00  0.20302091932E-01 0.  0.
         14    1    1    2    0    0 -0.11320034579E-01 -0.26542662324E-01 -0.12867390766E-01  0.31594712394E-01  0.00000000000E+00 0. -1.
     999901    1    3    3    0    0  0.24587769444E-01  0.98367720306E-01 -0.83470858649E-01  0.88974611606E+00  0.88000000000E+00 0. -1.
        -11    1    4    4    0    0 -0.12026238630E-01 -0.64797556749E-01  0.73810220563E-01  0.98952329719E-01  0.51100000000E-03 0.  1.
         11    1    4    4    0    0 -0.12414962346E-02 -0.70275012330E-02  0.22528028853E-01  0.23636841825E-01  0.51100000000E-03 0. -1.
</event>
<event>
 8    1  0.1115874E+005  0.1043930E+01  0.7957747E-01            NaN
         13   -1    0    0    0    0  0.00000000000E+00  0.00000000000E+00  0.74505805969E-08  0.10566000000E+00  0.10566000000E+00 0.  1.
     999900   -1    0    0    0    0 -0.00000000000E+00 -0.00000000000E+00 -0.74505805969E-08  0.93827000000E+00  0.93827000000E+00 0. -1.
     999902    2    1    2    0    0 -0.61007305277E-02 -0.22564137664E-02 -0.20513164521E-01  0.10224102362E+01  0.10221837363E+01 0.  0.
     999903    2    3    3    0    0 -0.11928027563E+00 -0.15895532687E-01  0.51070774369E-01  0.13217437120E+00  0.19529165234E-01 0.  0.
         14    1    1    2    0    0  0.61007305277E-02  0.22564137664E-02  0.20513164521E-01  0.21519763817E-01  0.00000000000E+00 0.  1.
     999901    1    3    3    0    0  0.11317954510E+00  0.13639118920E-01 -0.71583938890E-01  0.89023586498E+00  0.88000000000E+00 0. -1.
        -11    1    4    4    0    0 -0.66299560341E-01 -0.51701327688E-02  0.37864519310E-01  0.76526759489E-01  0.51100000000E-03 0.  1.
         11    1    4    4    0    0 -0.52980715286E-01 -0.10725399918E-01  0.13206255059E-01  0.55647611712E-01  0.51100000000E-03 0. -1.
</event>
<event>
 8    1  0.1115874E+005  0.1043930E+01  0.7957747E-01            NaN
         13   -1    0    0    0    0  0.00000000000E+00  0.00000000000E+00  0.74505805969E-08  0.10566000000E+00  0.10566000000E+00 0.  1.
     999900   -1    0    0    0    0 -0.00000000000E+00 -0.00000000000E+00 -0.74505805969E-08  0.93827000000E+00  0.93827000000E+00 0. -1.
     999902    2    1    2    0    0 -0.13864755751E-01 -0.16767123187E-01 -0.87250074478E-02  0.10204887196E+01  0.10202194534E+01 0.  0.
     999903    2    3    3    0    0  0.90450603273E-01  0.48771247144E-01  0.73830681463E-01  0.12808050925E+00  0.19841903769E-01 0.  0.
         14    1    1    2    0    0  0.13864755751E-01  0.16767123187E-01  0.87250074478E-02  0.23441280404E-01  0.00000000000E+00 0.  1.
     999901    1    3    3    0    0 -0.10431535902E+00 -0.65538370331E-01 -0.82555688911E-01  0.89240821034E+00  0.88000000000E+00 0.  1.
        -11    1    4    4    0    0  0.12281491901E-01 -0.10947219596E-04  0.61017317053E-02  0.13723243565E-01  0.51100000000E-03 0. -1.
         11    1    4    4    0    0  0.78169111372E-01  0.48782194363E-01  0.67728949757E-01  0.11435726569E+00  0.51100000000E-03 0.  1.
</event>
<event>
 8    1  0.1115874E+005  0.1043930E+01  0.7957747E-01            NaN
         13   -1    0    0    0    0  0.00000000000E+00  0.00000000000E+00  0.74505805969E-08  0.10566000000E+00  0.10566000000E+00 0. -1.
     999900   -1    0    0    0    0 -0.00000000000E+00 -0.00000000000E+00 -0.74505805969E-08  0.93827000000E+00  0.93827000000E+00 0.  1.
     999902    2    1    2    0    0 -0.71661144145E-02  0.46390475637E-02 -0.22249430867E-01  0.10200991139E+01  0.10198207152E+01 0.  0.
     999903    2    3    3    0    0  0.81499812967E-01 -0.34666065997E-01  0.89822473367E-01  0.12770533852E+00  0.19915348835E-01 0.  0.
         14    1    1    2    0    0  0.71661144145E-02 -0.46390475637E-02  0.22249430867E-01  0.23830886094E-01  0.00000000000E+00 0. -1.
     999901    1    3    3    0    0 -0.88665927382E-01  0.39305113561E-01 -0.11207190423E+00  0.89239377539E+00  0.88000000000E+00 0.  1.
        -11    1    4    4    0    0  0.54999080438E-01 -0.33166621303E-01  0.63936484473E-01  0.90625927777E-01  0.51100000000E-03 0.  1.
         11    1    4    4    0    0  0.26500732530E-01 -0.14994446937E-02  0.25885988894E-01  0.37079410743E-01  0.51100000000E-03 0. -1.
</event>
<event>
 8    1  0.1115874E+005  0.1043930E+01  0.7957747E-01            NaN
         13   -1    0    0    0    0  0.00000000000E+00  0.00000000000E+00  0.74505805969E-08  0.10566000000E+00  0.10566000000E+00 0. -1.
     999900   -1    0    0    0    0 -0.00000000000E+00 -0.00000000000E+00 -0.74505805969E-08  0.93827000000E+00  0.93827000000E+00 0.  1.
     999902    2    1    2    0    0 -0.12629055984E-01 -0.14555367016E-01  0.14336265814E-01  0.10199116678E+01  0.10196288196E+01 0.  0.
     999903    2    3    3    0    0  0.64406800568E-01 -0.10692167851E+00 -0.32356174641E-01  0.13050386331E+00  0.20096144085E-01 0.  0.
         14    1    1    2    0    0  0.12629055984E-01  0.14555367016E-01 -0.14336265814E-01  0.24018332196E-01  0.00000000000E+00 0.  1.
     999901    1    3    3    0    0 -0.77035856552E-01  0.92366311496E-01  0.46692440454E-01  0.88940780449E+00  0.88000000000E+00 0. -1.
        -11    1    4    4    0    0  0.19122069636E-01 -0.45144712111E-01 -0.19826533420E-01  0.52887154652E-01  0.51100000000E-03 0.  1.
         11    1    4    4    0    0  0.45284730932E-01 -0.61776966401E-01 -0.12529641221E-01  0.77616708661E-01  0.51100000000E-03 0. -1.
</event>
<event>
 8    1  0.1115874E+005  0.1043930E+01  0.7957747E-01            NaN
         13   -1    0    0    0    0  0.00000000000E+00  0.00000000000E+00  0.74505805969E-08  0.10566000000E+00  0.10566000000E+00 0. -1.
     999900   -1    0    0    0    0 -0.00000000000E+00 -0.00000000000E+00 -0.74505805969E-08  0.93827000000E+00  0.93827000000E+00 0.  1.
     999902    2    1    2    0    0  0.11807888077E-01  0.37295244872E-02  0.19475936701E-01  0.10208508387E+01  0.10205899212E+01 0.  0.
     999903    2    3    3    0    0 -0.11869818390E+00 -0.29130466198E-01 -0.36045594286E-01  0.12888993478E+00  0.19377499772E-01 0.  0.
         14    1    1    2    0    0 -0.11807888077E-01 -0.37295244872E-02 -0.19475936701E-01  0.23079161252E-01  0.00000000000E+00 0.  1.
     999901    1    3    3    0    0  0.13050607198E+00  0.32859990685E-01  0.55521530987E-01  0.89196090397E+00  0.88000000000E+00 0.  1.
        -11    1    4    4    0    0 -0.10375092388E+00 -0.27436473775E-01 -0.24922838118E-01  0.11017451284E+00  0.51100000000E-03 0.  1.
         11    1    4    4    0    0 -0.14947260018E-01 -0.16939924230E-02 -0.11122756168E-01  0.18715421934E-01  0.51100000000E-03 0. -1.
</event>
<event>
 8    1  0.1115874E+005  0.1043930E+01  0.7957747E-01            NaN
         13   -1    0    0    0    0  0.00000000000E+00  0.00000000000E+00  0.74505805969E-08  0.10566000000E+00  0.10566000000E+00 0.  1.
     999900   -1    0    0    0    0 -0.00000000000E+00 -0.00000000000E+00 -0.74505805969E-08  0.93827000000E+00  0.93827000000E+00 0.  1.
     999902    2    1    2    0    0  0.83016642635E-02  0.62611829346E-02  0.29373570325E-01  0.10127703037E+01  0.10122908482E+01 0.  0.
     999903    2    3    3    0    0  0.98817840810E-02  0.12259940492E+00 -0.11665863316E-02  0.12458688802E+00  0.19805756719E-01 0.  0.
         14    1    1    2    0    0 -0.83016642635E-02 -0.62611829346E-02 -0.29373570325E-01  0.31159696323E-01  0.00000000000E+00 0. -1.
     999901    1    3    3    0    0 -0.15801198175E-02 -0.11633822199E+00  0.30540156657E-01  0.88818341565E+00  0.88000000000E+00 0. -1.
        -11    1    4    4    0    0 -0.27310093583E-03  0.56287219385E-01 -0.91404771082E-02  0.57027494185E-01  0.51100000000E-03 0. -1.
         11    1    4    4    0    0  0.10154885017E-01  0.66312185539E-01  0.79738907766E-02  0.67559393838E-01  0.51100000000E-03 0.  1.
</event>
<event>
 8    1  0.1115874E+005  0.1043930E+01  0.7957747E-01            NaN
         13   -1    0    0    0    0  0.00000000000E+00  0.00000000000E+00  0.74505805969E-08  0.10566000000E+00  0.10566000000E+00 0. -1.
     999900   -1    0    0    0    0 -0.00000000000E+00 -0.00000000000E+00 -0.74505805969E-08  0.93827000000E+00  0.93827000000E+00 0. -1.
     999902    2    1    2    0    0 -0.80558201324E-02 -0.29688196811E-02 -0.22423069509E-01  0.10199194987E+01  0.10196368371E+01 0.  0.
     999903    2    3    3    0    0  0.11687014029E-01 -0.83115903840E-01  0.94229327114E-01  0.12839209233E+00  0.23675377864E-01 0.  0.
         14    1    1    2    0    0  0.80558201324E-02  0.29688196811E-02  0.22423069509E-01  0.24010501338E-01  0.00000000000E+00 0. -1.
     999901    1    3    3    0    0 -0.19742834162E-01  0.80147084159E-01 -0.11665239662E+00  0.89152740633E+00  0.88000000000E+00 0. -1.
        -11    1    4    4    0    0 -0.37372817860E-02 -0.22281600936E-01  0.37547764219E-01  0.43823883149E-01  0.51100000000E-03 0. -1.
         11    1    4    4    0    0  0.15424295815E-01 -0.60834302904E-01  0.56681562895E-01  0.84568209183E-01  0.51100000000E-03 0.  1.
</event>
<event>
 8    1  0.1115874E+005  0.1043930E+01  0.7957747E-01            NaN
         13   -1    0    0    0    0  0.00000000000E+00  0.00000000000E+00  0.74505805969E-08  0.10566000000E+00  0.10566000000E+00 0. -1.
     999900   -1    0    0    0    0 -0.00000000000E+00 -0.00000000000E+00 -0.74505805969E-08  0.93827000000E+00  0.93827000000E+00 0. -1.
     999902    2    1    2    0    0 -0.20755460667E-01  0.11111541585E-01  0.31580632048E-02  0.10201764978E+01  0.10198999254E+01 0.  0.
     999903    2    3    3    0    0  0.10115449952E+00 -0.74102372093E-01 -0.13110557519E-01  0.12754660949E+00  0.19309493799E-01 0.  0.
         14    1    1    2    0    0  0.20755460667E-01 -0.11111541585E-01 -0.31580632048E-02  0.23753502207E-01  0.00000000000E+00 0.  1.
     999901    1    3    3    0    0 -0.12190996018E+00  0.85213913678E-01  0.16268620724E-01  0.89262988831E+00  0.88000000000E+00 0.  1.
        -11    1    4    4    0    0  0.49705354671E-01 -0.47904473982E-01 -0.46244898126E-02  0.69188929298E-01  0.51100000000E-03 0.  1.
         11    1    4    4    0    0  0.51449144847E-01 -0.26197898111E-01 -0.84860677066E-02  0.58357680189E-01  0.51100000000E-03 0. -1.
</event>
<event>
 8    1  0.1115874E+005  0.1043930E+01  0.7957747E-01            NaN
         13   -1    0    0    0    0  0.00000000000E+00  0.00000000000E+00  0.74505805969E-08  0.10566000000E+00  0.10566000000E+00 0. -1.
     999900   -1    0    0    0    0 -0.00000000000E+00 -0.00000000000E+00 -0.74505805969E-08  0.93827000000E+00  0.93827000000E+00 0.  1.
     999902    2    1    2    0    0 -0.77475536592E-03  0.23398912240E-01  0.64169863574E-02  0.10196547646E+01  0.10193657596E+01 0.  0.
     999903    2    3    3    0    0 -0.39254327288E-01 -0.93513739692E-01  0.76215615788E-01  0.12835173290E+00  0.19483981307E-01 0.  0.
         14    1    1    2    0    0  0.77475536592E-03 -0.23398912240E-01 -0.64169863574E-02  0.24275235402E-01  0.00000000000E+00 0. -1.
     999901    1    3    3    0    0  0.38479571922E-01  0.11691265193E+00 -0.69798629431E-01  0.89130303169E+00  0.88000000000E+00 0.  1.
        -11    1    4    4    0    0 -0.34950873058E-01 -0.59907831098E-01  0.49760248607E-01  0.85363078768E-01  0.51100000000E-03 0. -1.
         11    1    4    4    0    0 -0.43034542298E-02 -0.33605908593E-01  0.26455367181E-01  0.42988654136E-01  0.51100000000E-03 0.  1.
</event>
<event>
 8    1  0.1279883E+005  0.1043930E+01  0.7957747E-01            NaN
         13   -1    0    0    0    0  0.00000000000E+00  0.00000000000E+00  0.74505805969E-08  0.10566000000E+00  0.10566000000E+00 0.  1.
     999900   -1    0    0    0    0 -0.00000000000E+00 -0.00000000000E+00 -0.74505805969E-08  0.93827000000E+00  0.93827000000E+00 0.  1.
     999902    2    1    2    0    0 -0.23161398282E-01 -0.61460064575E-02  0.17669717733E-03  0.10199663820E+01  0.10196848363E+01 0.  0.
     999903    2    3    3    0    0 -0.28487773706E-01  0.12382111894E+00 -0.21612791592E-01  0.13013796833E+00  0.18043150890E-01 0.  0.
         14    1    1    2    0    0  0.23161398282E-01  0.61460064575E-02 -0.17669717733E-03  0.23963618000E-01  0.00000000000E+00 0. -1.
     999901    1    3    3    0    0  0.53263754237E-02 -0.12996712540E+00  0.21789488770E-01  0.88982841367E+00  0.88000000000E+00 0. -1.
        -11    1    4    4    0    0 -0.20080503774E-01  0.61984725496E-01 -0.39434837801E-02  0.65277446427E-01  0.51100000000E-03 0. -1.
         11    1    4    4    0    0 -0.84072699321E-02  0.61836393442E-01 -0.17669307812E-01  0.64860521900E-01  0.51100000000E-03 0.  1.
</event>
<event>
 8    1  0.1115874E+005  0.1043930E+01  0.7957747E-01            NaN
         13   -1    0    0    0    0  0.00000000000E+00  0.00000000000E+00  0.74505805969E-08  0.10566000000E+00  0.10566000000E+00 0. -1.
     999900   -1    0    0    0    0 -0.00000000000E+00 -0.00000000000E+00 -0.74505805969E-08  0.93827000000E+00  0.93827000000E+00 0. -1.
     999902    2    1    2    0    0 -0.14052688298E-01  0.75603951460E-02 -0.15449484738E-01  0.10217190972E+01  0.10214776500E+01 0.  0.
     999903    2    3    3    0    0 -0.30942531469E-01 -0.67781619381E-01  0.10483372623E+00  0.13018685620E+00  0.20167280224E-01 0.  0.
         14    1    1    2    0    0  0.14052688298E-01 -0.75603951460E-02  0.15449484738E-01  0.22210902770E-01  0.00000000000E+00 0.  1.
     999901    1    3    3    0    0  0.16889843171E-01  0.75342014527E-01 -0.12028321097E+00  0.89153224103E+00  0.88000000000E+00 0. -1.
        -11    1    4    4    0    0 -0.17896198812E-01 -0.58483556573E-01  0.83049510368E-01  0.10314108112E+00  0.51100000000E-03 0. -1.
         11    1    4    4    0    0 -0.13046332657E-01 -0.92980628083E-02  0.21784215865E-01  0.27045775079E-01  0.51100000000E-03 0.  1.
</event>
<event>
 8    1  0.1115874E+005  0.1043930E+01  0.7957747E-01            NaN
         13   -1    0    0    0    0  0.00000000000E+00  0.00000000000E+00  0.74505805969E-08  0.10566000000E+00  0.10566000000E+00 0.  1.
     999900   -1    0    0    0    0 -0.00000000000E+00 -0.00000000000E+00 -0.74505805969E-08  0.93827000000E+00  0.93827000000E+00 0.  1.
     999902    2    1    2    0    0 -0.21464022936E-01 -0.57741115958E-03  0.88258321827E-02  0.10207150695E+01  0.10204510376E+01 0.  0.
     999903    2    3    3    0    0  0.13557674317E-01  0.21313878527E-01 -0.12549441968E+00  0.12956543117E+00  0.20006489794E-01 0.  0.
         14    1    1    2    0    0  0.21464022936E-01  0.57741115958E-03 -0.88258321827E-02  0.23214930496E-01  0.00000000000E+00 0. -1.
     999901    1    3    3    0    0 -0.35021697253E-01 -0.21891289687E-01  0.13432025186E+00  0.89114963833E+00  0.88000000000E+00 0. -1.
        -11    1    4    4    0    0  0.51793722342E-02 -0.28237658932E-02 -0.36395065591E-01  0.36873587714E-01  0.51100000000E-03 0.  1.
         11    1    4    4    0    0  0.83783020829E-02  0.24137644421E-01 -0.89099354085E-01  0.92691843456E-01  0.51100000000E-03 0. -1.
</event>
<event>
 8    1  0.1115874E+005  0.1043930E+01  0.7957747E-01            NaN
         13   -1    0    0    0    0  0.00000000000E+00  0.00000000000E+00  0.74505805969E-08  0.10566000000E+00  0.10566000000E+00 0.  1.
     999900   -1    0    0    0    0 -0.00000000000E+00 -0.00000000000E+00 -0.74505805969E-08  0.93827000000E+00  0.93827000000E+00 0.  1.
     999902    2    1    2    0    0  0.10381923482E-01 -0.14593247533E-01  0.15717634019E-01  0.10201016298E+01  0.10198232905E+01 0.  0.
     999903    2    3    3    0    0 -0.66766617797E-01 -0.10698696444E+00 -0.28295732485E-01  0.13081783211E+00  0.20215462147E-01 0.  0.
         14    1    1    2    0    0 -0.10381923482E-01  0.14593247533E-01 -0.15717634019E-01  0.23828370232E-01  0.00000000000E+00 0. -1.
     999901    1    3    3    0    0  0.77148541278E-01  0.92393716903E-01  0.44013366505E-01  0.88928379766E+00  0.88000000000E+00 0.  1.
        -11    1    4    4    0    0 -0.52321863985E-01 -0.96717901410E-01 -0.25278261616E-01  0.11283253757E+00  0.51100000000E-03 0.  1.
         11    1    4    4    0    0 -0.14444753811E-01 -0.10269063026E-01 -0.30174708696E-02  0.17985294537E-01  0.51100000000E-03 0. -1.
</event>
<event>
 8    1  0.1115874E+005  0.1043930E+01  0.7957747E-01            NaN
         13   -1    0    0    0    0  0.00000000000E+00  0.00000000000E+00  0.74505805969E-08  0.10566000000E+00  0.10566000000E+00 0. -1.
     999900   -1    0    0    0    0 -0.00000000000E+00 -0.00000000000E+00 -0.74505805969E-08  0.93827000000E+00  0.93827000000E+00 0.  1.
     999902    2    1    2    0    0 -0.14392323159E-01 -0.52499771708E-03 -0.18885418146E-01  0.10201797662E+01  0.10199032708E+01 0.  0.
     999903    2    3    3    0    0  0.25990682376E-01  0.48597887006E-01 -0.11851148203E+00  0.13227819643E+00  0.20378412226E-01 0.  0.
         14    1    1    2    0    0  0.14392323159E-01  0.52499771708E-03  0.18885418146E-01  0.23750233832E-01  0.00000000000E+00 0. -1.
     999901    1    3    3    0    0 -0.40383005534E-01 -0.49122884723E-01  0.99626063888E-01  0.88790156974E+00  0.88000000000E+00 0. -1.
        -11    1    4    4    0    0  0.29538642455E-02  0.24435851411E-01 -0.60950515955E-01  0.65734790365E-01  0.51100000000E-03 0.  1.
         11    1    4    4    0    0  0.23036818130E-01  0.24162035595E-01 -0.57560966079E-01  0.66543406064E-01  0.51100000000E-03 0. -1.
</event>
<event>
 8    1  0.1115874E+005  0.1043930E+01  0.7957747E-01            NaN
         13   -1    0    0    0    0  0.00000000000E+00  0.00000000000E+00  0.74505805969E-08  0.10566000000E+00  0.10566000000E+00 0. -1.
     999900   -1    0    0    0    0 -0.00000000000E+00 -0.00000000000E+00 -0.74505805969E-08  0.93827000000E+00  0.93827000000E+00 0.  1.
     999902    2    1    2    0    0  0.30145214348E-01  0.12081798918E-02  0.11178764554E-02  0.10137398808E+01  0.10132902362E+01 0.  0.
     999903    2    3    3    0    0 -0.63460462033E-01 -0.86950509182E-01 -0.55293693765E-01  0.12260788032E+00  0.19689551991E-01 0.  0.
         14    1    1    2    0    0 -0.30145214348E-01 -0.12081798918E-02 -0.11178764554E-02  0.30190119154E-01  0.00000000000E+00 0.  1.
     999901    1    3    3    0    0  0.93605676381E-01  0.88158689074E-01  0.56411570220E-01  0.89113200053E+00  0.88000000000E+00 0. -1.
        -11    1    4    4    0    0 -0.40510959964E-01 -0.49535292138E-01 -0.42735378647E-01  0.76951002291E-01  0.51100000000E-03 0. -1.
         11    1    4    4    0    0 -0.22949502069E-01 -0.37415217044E-01 -0.12558315117E-01  0.45656878028E-01  0.51100000000E-03 0.  1.
</event>
<event>
 8    1  0.1115874E+005  0.1043930E+01  0.7957747E-01            NaN
         13   -1    0    0    0    0  0.00000000000E+00  0.00000000000E+00  0.74505805969E-08  0.10566000000E+00  0.10566000000E+00 0. -1.
     999900   -1    0    0    0    0 -0.00000000000E+00 -0.00000000000E+00 -0.74505805969E-08  0.93827000000E+00  0.93827000000E+00 0.  1.
     999902    2    1    2    0    0 -0.16268390618E-01  0.10517500411E-01 -0.13595791934E-01  0.10202630630E+01  0.10199885263E+01 0.  0.
     999903    2    3    3    0    0 -0.42757494105E-01 -0.11136717736E+00 -0.49936042574E-01  0.13072489008E+00  0.19092853244E-01 0.  0.
         14    1    1    2    0    0  0.16268390618E-01 -0.10517500411E-01  0.13595791934E-01  0.23666936990E-01  0.00000000000E+00 0. -1.
     999901    1    3    3    0    0  0.26489103487E-01  0.12188467777E+00  0.36340250641E-01  0.88953817293E+00  0.88000000000E+00 0.  1.
        -11    1    4    4    0    0 -0.23077843600E-01 -0.51422346897E-01 -0.13860694564E-01  0.58045022184E-01  0.51100000000E-03 0. -1.
         11    1    4    4    0    0 -0.19679650505E-01 -0.59944830459E-01 -0.36075348010E-01  0.72679867898E-01  0.51100000000E-03 0.  1.
</event>
<event>
 8    1  0.1115874E+005  0.1043930E+01  0.7957747E-01            NaN
         13   -1    0    0    0    0  0.00000000000E+00  0.00000000000E+00  0.74505805969E-08  0.10566000000E+00  0.10566000000E+00 0.  1.
     999900   -1    0    0    0    0 -0.00000000000E+00 -0.00000000000E+00 -0.74505805969E-08  0.93827000000E+00  0.93827000000E+00 0. -1.
     999902    2    1    2    0    0  0.23227026810E-01 -0.35910172247E-02 -0.10241536350E-02  0.10204047142E+01  0.10201334921E+01 0.  0.
     999903    2    3    3    0    0  0.11925620184E+00  0.39864393883E-01 -0.39421032686E-01  0.13328336092E+00  0.19980613192E-01 0.  0.
         14    1    1    2    0    0 -0.23227026810E-01  0.35910172247E-02  0.10241536350E-02  0.23525285754E-01  0.00000000000E+00 0. -1.
     999901    1    3    3    0    0 -0.96029175025E-01 -0.43455411108E-01  0.38396879051E-01  0.88712135333E+00  0.88000000000E+00 0.  1.
        -11    1    4    4    0    0  0.46658768011E-01  0.58795748158E-02 -0.11682891397E-01  0.48459891712E-01  0.51100000000E-03 0. -1.
         11    1    4    4    0    0  0.72597433824E-01  0.33984819067E-01 -0.27738141289E-01  0.84823469205E-01  0.51100000000E-03 0.  1.
</event>
<event>
 8    1  0.1115874E+005  0.1043930E+01  0.7957747E-01            NaN
         13   -1    0    0    0    0  0.00000000000E+00  0.00000000000E+00  0.74505805969E-08  0.10566000000E+00  0.10566000000E+00 0. -1.
     999900   -1    0    0    0    0 -0.00000000000E+00 -0.00000000000E+00 -0.74505805969E-08  0.93827000000E+00  0.93827000000E+00 0.  1.
     999902    2    1    2    0    0  0.15119292848E-01  0.20628257711E-01 -0.13319494981E-01  0.10150937905E+01  0.10146841265E+01 0.  0.
     999903    2    3    3    0    0  0.84701771753E-01  0.28357832492E-01  0.87282208585E-01  0.12659946273E+00  0.20752908875E-01 0.  0.
         14    1    1    2    0    0 -0.15119292848E-01 -0.20628257711E-01  0.13319494981E-01  0.28836209511E-01  0.00000000000E+00 0. -1.
     999901    1    3    3    0    0 -0.69582478905E-01 -0.77295747812E-02 -0.10060170357E+00  0.88849432776E+00  0.88000000000E+00 0.  1.
        -11    1    4    4    0    0  0.40263477108E-01  0.23065049357E-01  0.37551734736E-01  0.59695376649E-01  0.51100000000E-03 0. -1.
         11    1    4    4    0    0  0.44438294645E-01  0.52927831356E-02  0.49730473849E-01  0.66904086082E-01  0.51100000000E-03 0.  1.
</event>
<event>
 8    1  0.1115874E+005  0.1043930E+01  0.7957747E-01            NaN
         13   -1    0    0    0    0  0.00000000000E+00  0.00000000000E+00  0.74505805969E-08  0.10566000000E+00  0.10566000000E+00 0.  1.
     999900   -1    0    0    0    0 -0.00000000000E+00 -0.00000000000E+00 -0.74505805969E-08  0.93827000000E+00  0.93827000000E+00 0. -1.
     999902    2    1    2    0    0  0.22905687436E-01  0.91660568147E-02  0.26650600296E-02  0.10191148905E+01  0.10188127259E+01 0.  0.
     999903    2    3    3    0    0  0.55829997928E-01  0.44696133699E-01 -0.10792647724E+00  0.13087118256E+00  0.19089497098E-01 0.  0.
         14    1    1    2    0    0 -0.22905687436E-01 -0.91660568147E-02 -0.26650600296E-02  0.24815109498E-01  0.00000000000E+00 0. -1.
     999901    1    3    3    0    0 -0.32924310491E-01 -0.35530076885E-01  0.11059153727E+00  0.88824370794E+00  0.88000000000E+00 0.  1.
        -11    1    4    4    0    0  0.33470968417E-01  0.15996843080E-01 -0.62340956325E-01  0.72545576514E-01  0.51100000000E-03 0.  1.
         11    1    4    4    0    0  0.22359029511E-01  0.28699290619E-01 -0.45585520911E-01  0.58325606045E-01  0.51100000000E-03 0. -1.
</event>
<event>
 8    1  0.1115874E+005  0.1043930E+01  0.7957747E-01            NaN
         13   -1    0    0    0    0  0.00000000000E+00  0.00000000000E+00  0.74505805969E-08  0.10566000000E+00  0.10566000000E+00 0.  1.
     999900   -1    0    0    0    0 -0.00000000000E+00 -0.00000000000E+00 -0.74505805969E-08  0.93827000000E+00  0.93827000000E+00 0.  1.
     999902    2    1    2    0    0  0.10717657704E-01  0.17463042365E-01 -0.11831247848E-01  0.10202698127E+01  0.10199954345E+01 0.  0.
     999903    2    3    3    0    0  0.10500039519E+00  0.73707095741E-01 -0.31222678964E-01  0.13323618558E+00  0.17866351389E-01 0.  0.
         14    1    1    2    0    0 -0.10717657704E-01 -0.17463042365E-01  0.11831247848E-01  0.23660187255E-01  0.00000000000E+00 0.  1.
     999901    1    3    3    0    0 -0.94282737489E-01 -0.56244053376E-01  0.19391431115E-01  0.88703362717E+00  0.88000000000E+00 0. -1.
        -11    1    4    4    0    0  0.75924114497E-01  0.61349381209E-01 -0.19555806554E-01  0.99553545531E-01  0.51100000000E-03 0. -1.
         11    1    4    4    0    0  0.29076280695E-01  0.12357714532E-01 -0.11666872410E-01  0.33682640044E-01  0.51100000000E-03 0.  1.
</event>
<event>
 8    1  0.1115874E+005  0.1043930E+01  0.7957747E-01            NaN
         13   -1    0    0    0    0  0.00000000000E+00  0.00000000000E+00  0.74505805969E-08  0.10566000000E+00  0.10566000000E+00 0.  1.
     999900   -1    0    0    0    0 -0.00000000000E+00 -0.00000000000E+00 -0.74505805969E-08  0.93827000000E+00  0.93827000000E+00 0. -1.
     999902    2    1    2    0    0  0.34997116990E-02 -0.10888272320E-01 -0.10177469626E-01  0.10286204166E+01  0.10285064794E+01 0.  0.
     999903    2    3    3    0    0  0.37651996927E-01  0.93866651277E-02 -0.13218823966E+00  0.13931502491E+00  0.20716252241E-01 0.  0.
         14    1    1    2    0    0 -0.34997116990E-02  0.10888272320E-01  0.10177469626E-01  0.15309583406E-01  0.00000000000E+00 0.  1.
     999901    1    3    3    0    0 -0.34152285228E-01 -0.20274937447E-01  0.12201077003E+00  0.88930539168E+00  0.88000000000E+00 0.  1.
        -11    1    4    4    0    0  0.11597986346E-01  0.94365248572E-02 -0.26202979817E-01  0.30173143041E-01  0.51100000000E-03 0.  1.
         11    1    4    4    0    0  0.26054010581E-01 -0.49859729424E-04 -0.10598525984E+00  0.10914188187E+00  0.51100000000E-03 0. -1.
</event>
<event>
 8    1  0.1115874E+005  0.1043930E+01  0.7957747E-01            NaN
         13   -1    0    0    0    0  0.00000000000E+00  0.00000000000E+00  0.74505805969E-08  0.10566000000E+00  0.10566000000E+00 0.  1.
     999900   -1    0    0    0    0 -0.00000000000E+00 -0.00000000000E+00 -0.74505805969E-08  0.93827000000E+00  0.93827000000E+00 0. -1.
     999902    2    1    2    0    0 -0.12127488587E-01 -0.46104153237E-02 -0.18916576890E-01  0.10209916306E+01  0.10207339227E+01 0.  0.
     999903    2    3    3    0    0 -0.69911653591E-01 -0.73720382400E-01 -0.84931726927E-01  0.13393289676E+00  0.20057131056E-01 0.  0.
         14    1    1    2    0    0  0.12127488587E-01  0.46104153237E-02  0.18916576890E-01  0.22938369386E-01  0.00000000000E+00 0.  1.
     999901    1    3    3    0    0  0.57784165005E-01  0.69109967076E-01  0.66015150037E-01  0.88705873386E+00  0.88000000000E+00 0.  1.
        -11    1    4    4    0    0 -0.42021757178E-01 -0.55878213117E-01 -0.51159199219E-01  0.86635602169E-01  0.51100000000E-03 0.  1.
         11    1    4    4    0    0 -0.27889896413E-01 -0.17842169283E-01 -0.33772527708E-01  0.47297294589E-01  0.51100000000E-03 0. -1.
</event>
<event>
 8    1  0.1115874E+005  0.1043930E+01  0.7957747E-01            NaN
         13   -1    0    0    0    0  0.00000000000E+00  0.00000000000E+00  0.74505805969E-08  0.10566000000E+00  0.10566000000E+00 0. -1.
     999900   -1    0    0    0    0 -0.00000000000E+00 -0.00000000000E+00 -0.74505805969E-08  0.93827000000E+00  0.93827000000E+00 0. -1.
     999902    2    1    2    0    0 -0.26290006215E-02 -0.87473460062E-02 -0.21238538199E-01  0.10208106745E+01  0.10205488376E+01 0.  0.
     999903    2    3    3    0    0 -0.37118239262E-01  0.12412453493E+00 -0.12221782176E-03  0.12991767122E+00  0.96913620650E-02 0.  0.
         14    1    1    2    0    0  0.26290006215E-02  0.87473460062E-02  0.21238538199E-01  0.23119325493E-01  0.00000000000E+00 0. -1.
     999901    1    3    3    0    0  0.34489238641E-01 -0.13287188094E+00 -0.21116320377E-01  0.89089300329E+00  0.88000000000E+00 0. -1.
        -11    1    4    4    0    0 -0.22497837539E-01  0.86478420624E-01  0.29971348087E-02  0.89408690101E-01  0.51100000000E-03 0. -1.
         11    1    4    4    0    0 -0.14620401723E-01  0.37646114310E-01 -0.31193526305E-02  0.40508981115E-01  0.51100000000E-03 0.  1.
</event>
<event>
 8    1  0.1115874E+005  0.1043930E+01  0.7957747E-01            NaN
         13   -1    0    0    0    0  0.00000000000E+00  0.00000000000E+00  0.74505805969E-08  0.10566000000E+00  0.10566000000E+00 0. -1.
     999900   -1    0    0    0    0 -0.00000000000E+00 -0.00000000000E+00 -0.74505805969E-08  0.93827000000E+00  0.93827000000E+00 0. -1.
     999902    2    1    2    0    0  0.14270405339E-01 -0.38592595930E-02  0.18987277350E-01  0.10198664372E+01  0.10195825100E+01 0.  0.
     999903    2    3    3    0    0 -0.36834925750E-02 -0.86823554124E-01  0.97706020833E-01  0.13228429611E+00  0.20019261277E-01 0.  0.
         14    1    1    2    0    0 -0.14270405339E-01  0.38592595930E-02 -0.18987277350E-01  0.24063562794E-01  0.00000000000E+00 0.  1.
     999901    1    3    3    0    0  0.17953897914E-01  0.82964294531E-01 -0.78718743483E-01  0.88758214110E+00  0.88000000000E+00 0. -1.
        -11    1    4    4    0    0  0.31579202431E-02 -0.33350308247E-01  0.25155233143E-01  0.41895851774E-01  0.51100000000E-03 0. -1.
         11    1    4    4    0    0 -0.68414128181E-02 -0.53473245877E-01  0.72550787691E-01  0.90388444336E-01  0.51100000000E-03 0.  1.
</event>
<event>
 8    1  0.1115874E+005  0.1043930E+01  0.7957747E-01            NaN
         13   -1    0    0    0    0  0.00000000000E+00  0.00000000000E+00  0.74505805969E-08  0.10566000000E+00  0.10566000000E+00 0. -1.
     999900   -1    0    0    0    0 -0.00000000000E+00 -0.00000000000E+00 -0.74505805969E-08  0.93827000000E+00  0.93827000000E+00 0. -1.
     999902    2    1    2    0    0  0.12698374161E-01 -0.14677440594E-01  0.11574314506E-01  0.10213326390E+01  0.10210826209E+01 0.  0.
     999903    2    3    3    0    0 -0.31623685790E-01 -0.58468954322E-01 -0.11082684304E+00  0.13067884258E+00  0.19382843919E-01 0.  0.
         14    1    1    2    0    0 -0.12698374161E-01  0.14677440594E-01 -0.11574314506E-01  0.22597361019E-01  0.00000000000E+00 0.  1.
     999901    1    3    3    0    0  0.44322059951E-01  0.43791513728E-01  0.12240115754E+00  0.89065379640E+00  0.88000000000E+00 0.  1.
        -11    1    4    4    0    0 -0.17285783187E-02 -0.19625890660E-01 -0.39337678033E-01  0.43998609083E-01  0.51100000000E-03 0.  1.
         11    1    4    4    0    0 -0.29895107471E-01 -0.38843063662E-01 -0.71489165004E-01  0.86680233499E-01  0.51100000000E-03 0. -1.
</event>
<event>
 8    1  0.1115874E+005  0.1043930E+01  0.7957747E-01            NaN
         13   -1    0    0    0    0  0.00000000000E+00  0.00000000000E+00  0.74505805969E-08  0.10566000000E+00  0.10566000000E+00 0.  1.
     999900   -1    0    0    0    0 -0.00000000000E+00 -0.00000000000E+00 -0.74505805969E-08  0.93827000000E+00  0.93827000000E+00 0.  1.
     999902    2    1    2    0    0  0.10154797864E-01 -0.20153572709E-01  0.79917311978E-02  0.10199893613E+01  0.10197083618E+01 0.  0.
     999903    2    3    3    0    0  0.12757464134E+00 -0.26250173969E-01 -0.99131071639E-02  0.13198870174E+00  0.18931110544E-01 0.  0.
         14    1    1    2    0    0 -0.10154797864E-01  0.20153572709E-01 -0.79917311978E-02  0.23940638674E-01  0.00000000000E+00 0.  1.
     999901    1    3    3    0    0 -0.11741984348E+00  0.60966012603E-02  0.17904838362E-01  0.88800065959E+00  0.88000000000E+00 0. -1.
        -11    1    4    4    0    0  0.11870738362E+00 -0.25855786332E-01 -0.44901696809E-02  0.12157461642E+00  0.51100000000E-03 0.  1.
         11    1    4    4    0    0  0.88672577198E-02 -0.39438763736E-03 -0.54229374830E-02  0.10414085319E-01  0.51100000000E-03 0. -1.
</event>
<event>
 8    1  0.1115874E+005  0.1043930E+01  0.7957747E-01            NaN
         13   -1    0    0    0    0  0.00000000000E+00  0.00000000000E+00  0.74505805969E-08  0.10566000000E+00  0.10566000000E+00 0. -1.
     999900   -1    0    0    0    0 -0.00000000000E+00 -0.00000000000E+00 -0.74505805969E-08  0.93827000000E+00  0.93827000000E+00 0. -1.
     999902    2    1    2    0    0 -0.18118536980E-01  0.94954494584E-02 -0.11447677924E-01  0.10204887058E+01  0.10202194394E+01 0.  0.
     999903    2    3    3    0    0  0.10835559269E+00  0.36775193567E-01  0.55091902773E-01  0.12854285225E+00  0.19869518988E-01 0.  0.
         14    1    1    2    0    0  0.18118536980E-01 -0.94954494584E-02  0.11447677924E-01  0.23441294174E-01  0.00000000000E+00 0. -1.
     999901    1    3    3    0    0 -0.12647412967E+00 -0.27279744108E-01 -0.66539580697E-01  0.89194585358E+00  0.88000000000E+00 0.  1.
        -11    1    4    4    0    0  0.63285939773E-01  0.30111134659E-01  0.39102209011E-01  0.80256055684E-01  0.51100000000E-03 0.  1.
         11    1    4    4    0    0  0.45069652914E-01  0.66640589073E-02  0.15989693761E-01  0.48286796565E-01  0.51100000000E-03 0. -1.
</event>
<event>
 8    1  0.1115874E+005  0.1043930E+01  0.7957747E-01            NaN
         13   -1    0    0    0    0  0.00000000000E+00  0.00000000000E+00  0.74505805969E-08  0.10566000000E+00  0.10566000000E+00 0. -1.
     999900   -1    0    0    0    0 -0.00000000000E+00 -0.00000000000E+00 -0.74505805969E-08  0.93827000000E+00  0.93827000000E+00 0.  1.
     999902    2    1    2    0    0 -0.15382146987E-01  0.16562610303E-01  0.30019793243E-02  0.10211277548E+01  0.10208731308E+01 0.  0.
     999903    2    3    3    0    0  0.97427262166E-02 -0.36702354071E-01 -0.12280162366E+00  0.13023215924E+00  0.20933060377E-01 0.  0.
         14    1    1    2    0    0  0.15382146987E-01 -0.16562610303E-01 -0.30019793243E-02  0.22802245193E-01  0.00000000000E+00 0.  1.
     999901    1    3    3    0    0 -0.25124873204E-01  0.53264964374E-01  0.12580360299E+00  0.89089559557E+00  0.88000000000E+00 0. -1.
        -11    1    4    4    0    0  0.16817509313E-02 -0.20768710405E-02 -0.40343320680E-01  0.40434964128E-01  0.51100000000E-03 0. -1.
         11    1    4    4    0    0  0.80609752853E-02 -0.34625483030E-01 -0.82458302982E-01  0.89797195108E-01  0.51100000000E-03 0.  1.
</event>
<event>
 8    1  0.1115874E+005  0.1043930E+01  0.7957747E-01            NaN
         13   -1    0    0    0    0  0.00000000000E+00  0.00000000000E+00  0.74505805969E-08  0.10566000000E+00  0.10566000000E+00 0. -1.
     999900   -1    0    0    0    0 -0.00000000000E+00 -0.00000000000E+00 -0.74505805969E-08  0.93827000000E+00  0.93827000000E+00 0. -1.
     999902    2    1    2    0    0 -0.20837937980E-01 -0.95549262717E-02 -0.23739992402E-02  0.10208832617E+01  0.10206230851E+01 0.  0.
     999903    2    3    3    0    0  0.85918963027E-01  0.77451993642E-01  0.52262296414E-01  0.12849749036E+00  0.19984440858E-01 0.  0.
         14    1    1    2    0    0  0.20837937980E-01  0.95549262717E-02  0.23739992402E-02  0.23046738332E-01  0.00000000000E+00 0.  1.
     999901    1    3    3    0    0 -0.10675690101E+00 -0.87006919913E-01 -0.54636295654E-01  0.89238577131E+00  0.88000000000E+00 0. -1.
        -11    1    4    4    0    0  0.77097295166E-01  0.63831330840E-01  0.50657820058E-01  0.11218247445E+00  0.51100000000E-03 0.  1.
         11    1    4    4    0    0  0.88216678611E-02  0.13620662802E-01  0.16044763561E-02  0.16315015918E-01  0.51100000000E-03 0. -1.
</event>
<event>
 8    1  0.1115874E+005  0.1043930E+01  0.7957747E-01            NaN
         13   -1    0    0    0    0  0.00000000000E+00  0.00000000000E+00  0.74505805969E-08  0.10566000000E+00  0.10566000000E+00 0. -1.
     999900   -1    0    0    0    0 -0.00000000000E+00 -0.00000000000E+00 -0.74505805969E-08  0.93827000000E+00  0.93827000000E+00 0. -1.
     999902    2    1    2    0    0 -0.36518292135E-02 -0.14923213931E-01 -0.18079419929E-01  0.10202044105E+01  0.10199284954E+01 0.  0.
     999903    2    3    3    0    0  0.86507451295E-01 -0.98261931663E-01 -0.33604620863E-02  0.13155898886E+00  0.12551035867E-01 0.  0.
         14    1    1    2    0    0  0.36518292135E-02  0.14923213931E-01  0.18079419929E-01  0.23725589468E-01  0.00000000000E+00 0. -1.
     999901    1    3    3    0    0 -0.90159280508E-01  0.83338717733E-01 -0.14718957842E-01  0.88864542167E+00  0.88000000000E+00 0. -1.
        -11    1    4    4    0    0  0.59532345937E-01 -0.59998330404E-01 -0.54009932706E-02  0.84695523573E-01  0.51100000000E-03 0. -1.
         11    1    4    4    0    0  0.26975105358E-01 -0.38263601259E-01  0.20405311843E-02  0.46863465289E-01  0.51100000000E-03 0.  1.
</event>
<event>
 8    1  0.1115874E+005  0.1043930E+01  0.7957747E-01            NaN
         13   -1    0    0    0    0  0.00000000000E+00  0.00000000000E+00  0.74505805969E-08  0.10566000000E+00  0.10566000000E+00 0. -1.
     999900   -1    0    0    0    0 -0.00000000000E+00 -0.00000000000E+00 -0.74505805969E-08  0.93827000000E+00  0.93827000000E+00 0. -1.
     999902    2    1    2    0    0 -0.66074081097E-02 -0.20423220755E-01  0.81840430165E-02  0.10209573130E+01  0.10206988246E+01 0.  0.
     999903    2    3    3    0    0  0.62039274987E-01 -0.86287480481E-01  0.77685791121E-01  0.13310543301E+00  0.19686879545E-01 0.  0.
         14    1    1    2    0    0  0.66074081097E-02  0.20423220755E-01 -0.81840430165E-02  0.22972687001E-01  0.00000000000E+00 0. -1.
     999901    1    3    3    0    0 -0.68646683096E-01  0.65864259726E-01 -0.69501748104E-01  0.88785187999E+00  0.88000000000E+00 0. -1.
        -11    1    4    4    0    0  0.27839747254E-01 -0.29154679169E-01  0.19992231118E-01  0.44999969674E-01  0.51100000000E-03 0. -1.
         11    1    4    4    0    0  0.34199527733E-01 -0.57132801313E-01  0.57693560002E-01  0.88105463337E-01  0.51100000000E-03 0.  1.
</event>
<event>
 8    1  0.1115874E+005  0.1043930E+01  0.7957747E-01            NaN
         13   -1    0    0    0    0  0.00000000000E+00  0.00000000000E+00  0.74505805969E-08  0.10566000000E+00  0.10566000000E+00 0. -1.
     999900   -1    0    0    0    0 -0.00000000000E+00 -0.00000000000E+00 -0.74505805969E-08  0.93827000000E+00  0.93827000000E+00 0.  1.
     999902    2    1    2    0    0 -0.16639266389E-02  0.61480858243E-02  0.22745584761E-01  0.10203094742E+01  0.10200360258E+01 0.  0.
     999903    2    3    3    0    0  0.94667849254E-01  0.50344746269E-01  0.74918591526E-01  0.13241579903E+00  0.20604691623E-01 0.  0.
         14    1    1    2    0    0  0.16639266389E-02 -0.61480858243E-02 -0.22745584761E-01  0.23620525762E-01  0.00000000000E+00 0.  1.
     999901    1    3    3    0    0 -0.96331775893E-01 -0.44196660445E-01 -0.52173006764E-01  0.88789367521E+00  0.88000000000E+00 0. -1.
        -11    1    4    4    0    0  0.32531782534E-01  0.21420721094E-01  0.38634698486E-01  0.54864061234E-01  0.51100000000E-03 0.  1.
         11    1    4    4    0    0  0.62136066720E-01  0.28924025175E-01  0.36283893040E-01  0.77551737794E-01  0.51100000000E-03 0. -1.
</event>
<event>
 8    1  0.1115874E+005  0.1043930E+01  0.7957747E-01            NaN
         13   -1    0    0    0    0  0.00000000000E+00  0.00000000000E+00  0.74505805969E-08  0.10566000000E+00  0.10566000000E+00 0. -1.
     999900   -1    0    0    0    0 -0.00000000000E+00 -0.00000000000E+00 -0.74505805969E-08  0.93827000000E+00  0.93827000000E+00 0. -1.
     999902    2    1    2    0    0 -0.71813422454E-02 -0.12167904146E-02 -0.21017961668E-01  0.10216857430E+01  0.10214435621E+01 0.  0.
     999903    2    3    3    0    0 -0.51981658460E-01 -0.10351149835E+00 -0.63476237088E-01  0.13361255869E+00  0.20158374372E-01 0.  0.
         14    1    1    2    0    0  0.71813422454E-02  0.12167904146E-02  0.21017961668E-01  0.22244256967E-01  0.00000000000E+00 0. -1.
     999901    1    3    3    0    0  0.44800316215E-01  0.10229470793E+00  0.42458275420E-01  0.88807318435E+00  0.88000000000E+00 0.  1.
        -11    1    4    4    0    0 -0.44275520009E-01 -0.69083973422E-01 -0.40486457696E-01  0.91500444992E-01  0.51100000000E-03 0. -1.
         11    1    4    4    0    0 -0.77061384510E-02 -0.34427524926E-01 -0.22989779391E-01  0.42112113694E-01  0.51100000000E-03 0.  1.
</event>
<event>
 8    1  0.1115874E+005  0.1043930E+01  0.7957747E-01            NaN
         13   -1    0    0    0    0  0.00000000000E+00  0.00000000000E+00  0.74505805969E-08  0.10566000000E+00  0.10566000000E+00 0. -1.
     999900   -1    0    0    0    0 -0.00000000000E+00 -0.00000000000E+00 -0.74505805969E-08  0.93827000000E+00  0.93827000000E+00 0.  1.
     999902    2    1    2    0    0  0.18554176303E-01  0.11704699815E-01  0.88393756117E-02  0.10202785303E+01  0.10200043566E+01 0.  0.
     999903    2    3    3    0    0 -0.40810569876E-01 -0.32223658355E-01  0.11789502341E+00  0.13047686252E+00  0.20520924345E-01 0.  0.
         14    1    1    2    0    0 -0.18554176303E-01 -0.11704699815E-01 -0.88393756117E-02  0.23651469663E-01  0.00000000000E+00 0. -1.
     999901    1    3    3    0    0  0.59364746179E-01  0.43928358170E-01 -0.10905564780E+00  0.88980166782E+00  0.88000000000E+00 0.  1.
        -11    1    4    4    0    0 -0.10583694774E-02  0.10513817368E-02  0.16704843937E-01  0.16779108483E-01  0.51100000000E-03 0. -1.
         11    1    4    4    0    0 -0.39752200398E-01 -0.33275040092E-01  0.10119017947E+00  0.11369775403E+00  0.51100000000E-03 0.  1.
</event>
<event>
 8    1  0.1115874E+005  0.1043930E+01  0.7957747E-01            NaN
         13   -1    0    0    0    0  0.00000000000E+00  0.00000000000E+00  0.74505805969E-08  0.10566000000E+00  0.10566000000E+00 0. -1.
     999900   -1    0    0    0    0 -0.00000000000E+00 -0.00000000000E+00 -0.74505805969E-08  0.93827000000E+00  0.93827000000E+00 0.  1.
     999902    2    1    2    0    0 -0.21696588280E-03  0.22751757170E-01  0.76608149120E-02  0.10199221343E+01  0.10196395356E+01 0.  0.
     999903    2    3    3    0    0  0.48966408521E-01  0.82879414307E-01  0.89199424261E-01  0.13274521608E+00  0.19951155989E-01 0.  0.
         14    1    1    2    0    0  0.21696588280E-03 -0.22751757170E-01 -0.76608149120E-02  0.24007865661E-01  0.00000000000E+00 0.  1.
     999901    1    3    3    0    0 -0.49183374404E-01 -0.60127657137E-01 -0.81538609348E-01  0.88717691826E+00  0.88000000000E+00 0.  1.
        -11    1    4    4    0    0  0.18417637241E-01  0.21382597452E-01  0.36745228752E-01  0.46334628437E-01  0.51100000000E-03 0. -1.
         11    1    4    4    0    0  0.30548771280E-01  0.61496816854E-01  0.52454195509E-01  0.86410587647E-01  0.51100000000E-03 0.  1.
</event>
<event>
 8    1  0.1115874E+005  0.1043930E+01  0.7957747E-01            NaN
         13   -1    0    0    0    0  0.00000000000E+00  0.00000000000E+00  0.74505805969E-08  0.10566000000E+00  0.10566000000E+00 0.  1.
     999900   -1    0    0    0    0 -0.00000000000E+00 -0.00000000000E+00 -0.74505805969E-08  0.93827000000E+00  0.93827000000E+00 0.  1.
     999902    2    1    2    0    0 -0.19187204584E-01  0.13932417402E-01  0.42966575169E-02  0.10198318187E+01  0.10195470642E+01 0.  0.
     999903    2    3    3    0    0 -0.43419880512E-02 -0.11298931278E+00 -0.57533226029E-01  0.12845510794E+00  0.20129704308E-01 0.  0.
         14    1    1    2    0    0  0.19187204584E-01 -0.13932417402E-01 -0.42966575169E-02  0.24098181264E-01  0.00000000000E+00 0. -1.
     999901    1    3    3    0    0 -0.14845216533E-01  0.12692173019E+00  0.61829883546E-01  0.89137671079E+00  0.88000000000E+00 0. -1.
        -11    1    4    4    0    0 -0.46003409400E-02 -0.86016272348E-01 -0.33840622641E-01  0.92549506250E-01  0.51100000000E-03 0. -1.
         11    1    4    4    0    0  0.25835288873E-03 -0.26973040435E-01 -0.23692603388E-01  0.35905601692E-01  0.51100000000E-03 0.  1.
</event>
<event>
 8    1  0.1115874E+005  0.1043930E+01  0.7957747E-01            NaN
         13   -1    0    0    0    0  0.00000000000E+00  0.00000000000E+00  0.74505805969E-08  0.10566000000E+00  0.10566000000E+00 0.  1.
     999900   -1    0    0    0    0 -0.00000000000E+00 -0.00000000000E+00 -0.74505805969E-08  0.93827000000E+00  0.93827000000E+00 0. -1.
     999902    2    1    2    0    0 -0.13116926808E-01  0.17095645612E-01 -0.77333438381E-02  0.10210363442E+01  0.10207796514E+01 0.  0.
     999903    2    3    3    0    0 -0.85334234212E-01  0.15034576235E-01 -0.97862290588E-01  0.13348757681E+00  0.27091239045E-01 0.  0.
         14    1    1    2    0    0  0.13116926808E-01 -0.17095645612E-01  0.77333438381E-02  0.22893655774E-01  0.00000000000E+00 0.  1.
     999901    1    3    3    0    0  0.72217307403E-01  0.20610693774E-02  0.90128946750E-01  0.88754876741E+00  0.88000000000E+00 0.  1.
        -11    1    4    4    0    0 -0.23067106461E-01  0.16173557257E-01 -0.35873644429E-01  0.45616387849E-01  0.51100000000E-03 0. -1.
         11    1    4    4    0    0 -0.62267127751E-01 -0.11389810219E-02 -0.61988646159E-01  0.87871188963E-01  0.51100000000E-03 0.  1.
</event>
<event>
 8    1  0.1115874E+005  0.1043930E+01  0.7957747E-01            NaN
         13   -1    0    0    0    0  0.00000000000E+00  0.00000000000E+00  0.74505805969E-08  0.10566000000E+00  0.10566000000E+00 0. -1.
     999900   -1    0    0    0    0 -0.00000000000E+00 -0.00000000000E+00 -0.74505805969E-08  0.93827000000E+00  0.93827000000E+00 0.  1.
     999902    2    1    2    0    0  0.19232269449E-01 -0.11537165536E-01  0.17290884029E-01  0.10156110832E+01  0.10152161895E+01 0.  0.
     999903    2    3    3    0    0  0.86996501189E-01  0.48208389996E-01 -0.75160961393E-01  0.12616807424E+00  0.19410635101E-01 0.  0.
         14    1    1    2    0    0 -0.19232269449E-01  0.11537165536E-01 -0.17290884029E-01  0.28318916775E-01  0.00000000000E+00 0.  1.
     999901    1    3    3    0    0 -0.67764231740E-01 -0.59745555532E-01  0.92451845423E-01  0.88944300898E+00  0.88000000000E+00 0.  1.
        -11    1    4    4    0    0  0.33617013420E-01  0.12809971061E-01 -0.17602238541E-01  0.40053699861E-01  0.51100000000E-03 0.  1.
         11    1    4    4    0    0  0.53379487769E-01  0.35398418936E-01 -0.57558722852E-01  0.86114374380E-01  0.51100000000E-03 0. -1.
</event>
<event>
 8    1  0.1115874E+005  0.1043930E+01  0.7957747E-01            NaN
         13   -1    0    0    0    0  0.00000000000E+00  0.00000000000E+00  0.74505805969E-08  0.10566000000E+00  0.10566000000E+00 0. -1.
     999900   -1    0    0    0    0 -0.00000000000E+00 -0.00000000000E+00 -0.74505805969E-08  0.93827000000E+00  0.93827000000E+00 0.  1.
     999902    2    1    2    0    0  0.38320287650E-02  0.22846825561E-01 -0.50938355524E-03  0.10207584365E+01  0.10204954014E+01 0.  0.
     999903    2    3    3    0    0  0.12793974706E+00  0.72602127922E-02  0.21856415444E-01  0.13163195665E+00  0.20687666528E-01 0.  0.
         14    1    1    2    0    0 -0.38320287650E-02 -0.22846825561E-01  0.50938355524E-03  0.23171563484E-01  0.00000000000E+00 0.  1.
     999901    1    3    3    0    0 -0.12410771830E+00  0.15586612769E-01 -0.22365798999E-01  0.88912647987E+00  0.88000000000E+00 0.  1.
        -11    1    4    4    0    0  0.68097188096E-01  0.11780015493E-01  0.18396901979E-01  0.71517151195E-01  0.51100000000E-03 0.  1.
         11    1    4    4    0    0  0.59842558967E-01 -0.45198027007E-02  0.34595134654E-02  0.60114805452E-01  0.51100000000E-03 0. -1.
</event>
<event>
 8    1  0.1115874E+005  0.1043930E+01  0.7957747E-01            NaN
         13   -1    0    0    0    0  0.00000000000E+00  0.00000000000E+00  0.74505805969E-08  0.10566000000E+00  0.10566000000E+00 0. -1.
     999900   -1    0    0    0    0 -0.00000000000E+00 -0.00000000000E+00 -0.74505805969E-08  0.93827000000E+00  0.93827000000E+00 0.  1.
     999902    2    1    2    0    0  0.99193496633E-02  0.13013951388E-01 -0.18604544231E-01  0.10191532873E+01  0.10188520685E+01 0.  0.
     999903    2    3    3    0    0 -0.74841103931E-01 -0.43010262960E-01  0.90551216785E-01  0.12660747484E+00  0.19464230466E-01 0.  0.
         14    1    1    2    0    0 -0.99193496633E-02 -0.13013951388E-01  0.18604544231E-01  0.24776712746E-01  0.00000000000E+00 0.  1.
     999901    1    3    3    0    0  0.84760453594E-01  0.56024214349E-01 -0.10915576102E+00  0.89254581241E+00  0.88000000000E+00 0.  1.
        -11    1    4    4    0    0 -0.39530720679E-01 -0.22260325850E-01  0.33601028161E-01  0.56457862152E-01  0.51100000000E-03 0.  1.
         11    1    4    4    0    0 -0.35310383252E-01 -0.20749937110E-01  0.56950188624E-01  0.70149612692E-01  0.51100000000E-03 0. -1.
</event>
<event>
 8    1  0.1115874E+005  0.1043930E+01  0.7957747E-01            NaN
         13   -1    0    0    0    0  0.00000000000E+00  0.00000000000E+00  0.74505805969E-08  0.10566000000E+00  0.10566000000E+00 0.  1.
     999900   -1    0    0    0    0 -0.00000000000E+00 -0.00000000000E+00 -0.74505805969E-08  0.93827000000E+00  0.93827000000E+00 0.  1.
     999902    2    1    2    0    0  0.80031188973E-02 -0.22072922878E-01 -0.37219222199E-02  0.10201578200E+01  0.10198808073E+01 0.  0.
     999903    2    3    3    0    0 -0.10940753530E+00 -0.47726492339E-01  0.48425158863E-01  0.13045973335E+00  0.20662022241E-01 0.  0.
         14    1    1    2    0    0 -0.80031188973E-02  0.22072922878E-01  0.37219222199E-02  0.23772179990E-01  0.00000000000E+00 0.  1.
     999901    1    3    3    0    0  0.11741065420E+00  0.25653569461E-01 -0.52147081083E-01  0.88969808666E+00  0.88000000000E+00 0.  1.
        -11    1    4    4    0    0 -0.42640070071E-01 -0.96088467643E-02  0.23547309659E-01  0.49651207689E-01  0.51100000000E-03 0.  1.
         11    1    4    4    0    0 -0.66767465228E-01 -0.38117645575E-01  0.24877849204E-01  0.80808525659E-01  0.51100000000E-03 0. -1.
</event>
<event>
 8    1  0.1115874E+005  0.1043930E+01  0.7957747E-01            NaN
         13   -1    0    0    0    0  0.00000000000E+00  0.00000000000E+00  0.74505805969E-08  0.10566000000E+00  0.10566000000E+00 0.  1.
     999900   -1    0    0    0    0 -0.00000000000E+00 -0.00000000000E+00 -0.74505805969E-08  0.93827000000E+00  0.93827000000E+00 0. -1.
     999902    2    1    2    0    0 -0.62353495622E-02 -0.18531532273E-01 -0.30521105341E-01  0.10076831361E+01  0.10070310162E+01 0.  0.
     999903    2    3    3    0    0  0.74458492537E-01 -0.28141861174E-01 -0.90251153588E-01  0.12192270954E+00  0.19591960476E-01 0.  0.
         14    1    1    2    0    0  0.62353495622E-02  0.18531532273E-01  0.30521105341E-01  0.36246863917E-01  0.00000000000E+00 0.  1.
     999901    1    3    3    0    0 -0.80693842099E-01  0.96103289008E-02  0.59730048246E-01  0.88576042655E+00  0.88000000000E+00 0.  1.
        -11    1    4    4    0    0  0.32145825463E-01 -0.19512292438E-02 -0.35696357939E-01  0.48079647268E-01  0.51100000000E-03 0.  1.
         11    1    4    4    0    0  0.42312667074E-01 -0.26190631930E-01 -0.54554795649E-01  0.73843062268E-01  0.51100000000E-03 0. -1.
</event>
<event>
 8    1  0.1115874E+005  0.1043930E+01  0.7957747E-01            NaN
         13   -1    0    0    0    0  0.00000000000E+00  0.00000000000E+00  0.74505805969E-08  0.10566000000E+00  0.10566000000E+00 0. -1.
     999900   -1    0    0    0    0 -0.00000000000E+00 -0.00000000000E+00 -0.74505805969E-08  0.93827000000E+00  0.93827000000E+00 0.  1.
     999902    2    1    2    0    0 -0.10057163481E-01  0.20355703470E-01  0.76152452439E-02  0.10199822828E+01  0.10197011150E+01 0.  0.
     999903    2    3    3    0    0  0.15656644016E-01  0.10157236084E+00  0.81831665785E-01  0.13275884844E+00  0.19141978078E-01 0.  0.
         14    1    1    2    0    0  0.10057163481E-01 -0.20355703470E-01 -0.76152452439E-02  0.23947717243E-01  0.00000000000E+00 0.  1.
     999901    1    3    3    0    0 -0.25713807497E-01 -0.81216657369E-01 -0.74216420541E-01  0.88722343432E+00  0.88000000000E+00 0. -1.
        -11    1    4    4    0    0  0.18088712761E-01  0.86824889995E-01  0.63389860140E-01  0.10901512987E+00  0.51100000000E-03 0.  1.
         11    1    4    4    0    0 -0.24320687454E-02  0.14747470843E-01  0.18441805646E-01  0.23743718562E-01  0.51100000000E-03 0. -1.
</event>
<event>
 8    1  0.1115874E+005  0.1043930E+01  0.7957747E-01            NaN
         13   -1    0    0    0    0  0.00000000000E+00  0.00000000000E+00  0.74505805969E-08  0.10566000000E+00  0.10566000000E+00 0. -1.
     999900   -1    0    0    0    0 -0.00000000000E+00 -0.00000000000E+00 -0.74505805969E-08  0.93827000000E+00  0.93827000000E+00 0.  1.
     999902    2    1    2    0    0  0.44193617905E-03 -0.20679925745E-01 -0.10922261681E-01  0.10205387530E+01  0.10202706484E+01 0.  0.
     999903    2    3    3    0    0  0.44307282825E-01 -0.12031145552E+00  0.29027869723E-01  0.13293150687E+00  0.19753143013E-01 0.  0.
         14    1    1    2    0    0 -0.44193617905E-03  0.20679925745E-01  0.10922261681E-01  0.23391247009E-01  0.00000000000E+00 0.  1.
     999901    1    3    3    0    0 -0.43865346646E-01  0.99631529773E-01 -0.39950131404E-01  0.88760724612E+00  0.88000000000E+00 0.  1.
        -11    1    4    4    0    0  0.33793853706E-01 -0.65183339632E-01  0.13026901566E-01  0.74571131139E-01  0.51100000000E-03 0.  1.
         11    1    4    4    0    0  0.10513429119E-01 -0.55128115886E-01  0.16000968157E-01  0.58360375735E-01  0.51100000000E-03 0. -1.
</event>
<event>
 8    1  0.1115874E+005  0.1043930E+01  0.7957747E-01            NaN
         13   -1    0    0    0    0  0.00000000000E+00  0.00000000000E+00  0.74505805969E-08  0.10566000000E+00  0.10566000000E+00 0. -1.
     999900   -1    0    0    0    0 -0.00000000000E+00 -0.00000000000E+00 -0.74505805969E-08  0.93827000000E+00  0.93827000000E+00 0. -1.
     999902    2    1    2    0    0  0.60257205580E-02  0.21662526208E-01 -0.65472844439E-02  0.10205111767E+01  0.10202424322E+01 0.  0.
     999903    2    3    3    0    0  0.70401016329E-01  0.75598639523E-01 -0.81937992879E-01  0.13330373653E+00  0.19611070780E-01 0.  0.
         14    1    1    2    0    0 -0.60257205580E-02 -0.21662526208E-01  0.65472844439E-02  0.23418823274E-01  0.00000000000E+00 0. -1.
     999901    1    3    3    0    0 -0.64375295771E-01 -0.53936113315E-01  0.75390708435E-01  0.88720744020E+00  0.88000000000E+00 0.  1.
        -11    1    4    4    0    0  0.29355505194E-01  0.28547522290E-01 -0.20859734532E-01  0.45957549541E-01  0.51100000000E-03 0.  1.
         11    1    4    4    0    0  0.41045511135E-01  0.47051117233E-01 -0.61078258348E-01  0.87346186986E-01  0.51100000000E-03 0. -1.
</event>
<event>
 8    1  0.1115874E+005  0.1043930E+01  0.7957747E-01            NaN
         13   -1    0    0    0    0  0.00000000000E+00  0.00000000000E+00  0.74505805969E-08  0.10566000000E+00  0.10566000000E+00 0.  1.
     999900   -1    0    0    0    0 -0.00000000000E+00 -0.00000000000E+00 -0.74505805969E-08  0.93827000000E+00  0.93827000000E+00 0.  1.
     999902    2    1    2    0    0 -0.25385710684E-02 -0.11201145090E-01  0.21036049577E-01  0.10199628271E+01  0.10196811969E+01 0.  0.
     999903    2    3    3    0    0  0.14521981591E-01 -0.12807030402E-01  0.13016234562E+00  0.13305686264E+00  0.19671921653E-01 0.  0.
         14    1    1    2    0    0  0.25385710684E-02  0.11201145090E-01 -0.21036049577E-01  0.23967172887E-01  0.00000000000E+00 0. -1.
     999901    1    3    3    0    0 -0.17060552660E-01  0.16058853125E-02 -0.10912629604E+00  0.88690596447E+00  0.88000000000E+00 0.  1.
        -11    1    4    4    0    0 -0.33138987705E-02 -0.48372698107E-04  0.44656011186E-01  0.44781745399E-01  0.51100000000E-03 0. -1.
         11    1    4    4    0    0  0.17835880362E-01 -0.12758657704E-01  0.85506334436E-01  0.88275117244E-01  0.51100000000E-03 0.  1.
</event>
<event>
 8    1  0.1115874E+005  0.1043930E+01  0.7957747E-01            NaN
         13   -1    0    0    0    0  0.00000000000E+00  0.00000000000E+00  0.74505805969E-08  0.10566000000E+00  0.10566000000E+00 0.  1.
     999900   -1    0    0    0    0 -0.00000000000E+00 -0.00000000000E+00 -0.74505805969E-08  0.93827000000E+00  0.93827000000E+00 0.  1.
     999902    2    1    2    0    0  0.11505286529E-01  0.13041195181E-01  0.16463022545E-01  0.10199826515E+01  0.10197014925E+01 0.  0.
     999903    2    3    3    0    0 -0.26225126611E-01  0.37768046716E-01  0.12249551903E+00  0.13247045913E+00  0.20714433138E-01 0.  0.
         14    1    1    2    0    0 -0.11505286529E-01 -0.13041195181E-01 -0.16463022545E-01  0.23947348521E-01  0.00000000000E+00 0. -1.
     999901    1    3    3    0    0  0.37730413140E-01 -0.24726851536E-01 -0.10603249649E+00  0.88751219235E+00  0.88000000000E+00 0.  1.
        -11    1    4    4    0    0 -0.18804449964E-01  0.29621984444E-01  0.64425253522E-01  0.73361731940E-01  0.51100000000E-03 0. -1.
         11    1    4    4    0    0 -0.74206766474E-02  0.81460622720E-02  0.58070265509E-01  0.59108727187E-01  0.51100000000E-03 0.  1.
</event>
<event>
 8    1  0.1115874E+005  0.1043930E+01  0.7957747E-01            NaN
         13   -1    0    0    0    0  0.00000000000E+00  0.00000000000E+00  0.74505805969E-08  0.10566000000E+00  0.10566000000E+00 0. -1.
     999900   -1    0    0    0    0 -0.00000000000E+00 -0.00000000000E+00 -0.74505805969E-08  0.93827000000E+00  0.93827000000E+00 0.  1.
     999902    2    1    2    0    0 -0.20895418778E-01  0.88740601676E-02  0.53085803863E-02  0.10206158735E+01  0.10203495542E+01 0.  0.
     999903    2    3    3    0    0  0.11000816675E+00  0.39502301895E-01  0.50650695729E-01  0.12925189321E+00  0.21870763894E-01 0.  0.
         14    1    1    2    0    0  0.20895418778E-01 -0.88740601676E-02 -0.53085803863E-02  0.23314126522E-01  0.00000000000E+00 0.  1.
     999901    1    3    3    0    0 -0.13090358553E+00 -0.30628241728E-01 -0.45342115343E-01  0.89136398027E+00  0.88000000000E+00 0. -1.
        -11    1    4    4    0    0  0.85185039353E-02  0.29332348064E-03  0.98893301445E-02  0.13065638892E-01  0.51100000000E-03 0. -1.
         11    1    4    4    0    0  0.10148966282E+00  0.39208978415E-01  0.40761365585E-01  0.11618625432E+00  0.51100000000E-03 0.  1.
</event>
<event>
 8    1  0.1115874E+005  0.1043930E+01  0.7957747E-01            NaN
         13   -1    0    0    0    0  0.00000000000E+00  0.00000000000E+00  0.74505805969E-08  0.10566000000E+00  0.10566000000E+00 0. -1.
     999900   -1    0    0    0    0 -0.00000000000E+00 -0.00000000000E+00 -0.74505805969E-08  0.93827000000E+00  0.93827000000E+00 0.  1.
     999902    2    1    2    0    0  0.17676780812E-01  0.14296197562E-01 -0.60581350631E-02  0.10204023387E+01  0.10201310612E+01 0.  0.
     999903    2    3    3    0    0 -0.10133956979E+00 -0.74592566761E-01  0.30714854878E-02  0.12790614596E+00  0.22732987669E-01 0.  0.
         14    1    1    2    0    0 -0.17676780812E-01 -0.14296197562E-01  0.60581350631E-02  0.23527661275E-01  0.00000000000E+00 0. -1.
     999901    1    3    3    0    0  0.11901635061E+00  0.88888764323E-01 -0.91296205510E-02  0.89249619277E+00  0.88000000000E+00 0. -1.
        -11    1    4    4    0    0 -0.17856287752E-01 -0.61125870794E-02  0.62308457015E-02  0.19882034409E-01  0.51100000000E-03 0.  1.
         11    1    4    4    0    0 -0.83483282043E-01 -0.68479979681E-01 -0.31593602137E-02  0.10802411155E+00  0.51100000000E-03 0. -1.
</event>
<event>
 8    1  0.1115874E+005  0.1043930E+01  0.7957747E-01            NaN
         13   -1    0    0    0    0  0.00000000000E+00  0.00000000000E+00  0.74505805969E-08  0.10566000000E+00  0.10566000000E+00 0. -1.
     999900   -1    0    0    0    0 -0.00000000000E+00 -0.00000000000E+00 -0.74505805969E-08  0.93827000000E+00  0.93827000000E+00 0.  1.
     999902    2    1    2    0    0 -0.22583451334E-02  0.23344241370E-01  0.28500396557E-02  0.10203042417E+01  0.10200306707E+01 0.  0.
     999903    2    3    3    0    0  0.11497170267E+00  0.48363181025E-02  0.58286927511E-01  0.13060840839E+00  0.20477012337E-01 0.  0.
         14    1    1    2    0    0  0.22583451334E-02 -0.23344241370E-01 -0.28500396557E-02  0.23625758272E-01  0.00000000000E+00 0. -1.
     999901    1    3    3    0    0 -0.11723004780E+00  0.18507923268E-01 -0.55436887855E-01  0.88969583334E+00  0.88000000000E+00 0.  1.
        -11    1    4    4    0    0  0.19647475409E-01  0.64062131133E-03  0.19236595960E-01  0.27508933653E-01  0.51100000000E-03 0. -1.
         11    1    4    4    0    0  0.95324227262E-01  0.41956967912E-02  0.39050331551E-01  0.10309947473E+00  0.51100000000E-03 0.  1.
</event>
<event>
 8    1  0.1115874E+005  0.1043930E+01  0.7957747E-01            NaN
         13   -1    0    0    0    0  0.00000000000E+00  0.00000000000E+00  0.74505805969E-08  0.10566000000E+00  0.10566000000E+00 0. -1.
     999900   -1    0    0    0    0 -0.00000000000E+00 -0.00000000000E+00 -0.74505805969E-08  0.93827000000E+00  0.93827000000E+00 0.  1.
     999902    2    1    2    0    0 -0.15491813220E-01 -0.16956886738E-01  0.50659943610E-02  0.10204098685E+01  0.10201387667E+01 0.  0.
     999903    2    3    3    0    0 -0.11209726581E+00 -0.68596611123E-01  0.12818780520E-01  0.13358441768E+00  0.20228283514E-01 0.  0.
         14    1    1    2    0    0  0.15491813220E-01  0.16956886738E-01 -0.50659943610E-02  0.23520131453E-01  0.00000000000E+00 0. -1.
     999901    1    3    3    0    0  0.96605452591E-01  0.51639724384E-01 -0.77527861591E-02  0.88682545086E+00  0.88000000000E+00 0. -1.
        -11    1    4    4    0    0 -0.63446427479E-01 -0.46424729148E-01  0.74262388993E-04  0.78619153342E-01  0.51100000000E-03 0.  1.
         11    1    4    4    0    0 -0.48650838333E-01 -0.22171881975E-01  0.12744518131E-01  0.54965264342E-01  0.51100000000E-03 0. -1.
</event>
<event>
 8    1  0.1115874E+005  0.1043930E+01  0.7957747E-01            NaN
         13   -1    0    0    0    0  0.00000000000E+00  0.00000000000E+00  0.74505805969E-08  0.10566000000E+00  0.10566000000E+00 0.  1.
     999900   -1    0    0    0    0 -0.00000000000E+00 -0.00000000000E+00 -0.74505805969E-08  0.93827000000E+00  0.93827000000E+00 0. -1.
     999902    2    1    2    0    0 -0.73665167812E-02 -0.12409094365E-01  0.17549880001E-01  0.10212088759E+01  0.10209560807E+01 0.  0.
     999903    2    3    3    0    0 -0.71822375401E-01  0.34688508940E-01  0.10493519628E+00  0.13328492901E+00  0.19792185931E-01 0.  0.
         14    1    1    2    0    0  0.73665167812E-02  0.12409094365E-01 -0.17549880001E-01  0.22721124103E-01  0.00000000000E+00 0. -1.
     999901    1    3    3    0    0  0.64455858620E-01 -0.47097603305E-01 -0.87385316275E-01  0.88792394688E+00  0.88000000000E+00 0.  1.
        -11    1    4    4    0    0 -0.40597998779E-01  0.28742963724E-01  0.55712904663E-01  0.74689653470E-01  0.51100000000E-03 0.  1.
         11    1    4    4    0    0 -0.31224376622E-01  0.59455452152E-02  0.49222291614E-01  0.58595275544E-01  0.51100000000E-03 0. -1.
</event>
<event>
 8    1  0.1115874E+005  0.1043930E+01  0.7957747E-01            NaN
         13   -1    0    0    0    0  0.00000000000E+00  0.00000000000E+00  0.74505805969E-08  0.10566000000E+00  0.10566000000E+00 0. -1.
     999900   -1    0    0    0    0 -0.00000000000E+00 -0.00000000000E+00 -0.74505805969E-08  0.93827000000E+00  0.93827000000E+00 0. -1.
     999902    2    1    2    0    0 -0.73192294890E-02 -0.18009734269E-01  0.12947861874E-01  0.10205725863E+01  0.10203052656E+01 0.  0.
     999903    2    3    3    0    0  0.27835406880E-01  0.14643666696E-01 -0.12288152724E+00  0.12885978722E+00  0.22709649391E-01 0.  0.
         14    1    1    2    0    0  0.73192294890E-02  0.18009734269E-01 -0.12947861874E-01  0.23357413724E-01  0.00000000000E+00 0.  1.
     999901    1    3    3    0    0 -0.35154636369E-01 -0.32653400965E-01  0.13582938911E+00  0.89171279906E+00  0.88000000000E+00 0.  1.
        -11    1    4    4    0    0  0.12616485756E-01  0.15798397483E-01 -0.94403586677E-01  0.96545654353E-01  0.51100000000E-03 0.  1.
         11    1    4    4    0    0  0.15218921124E-01 -0.11547307872E-02 -0.28477940562E-01  0.32314132868E-01  0.51100000000E-03 0. -1.
</event>
<event>
 8    1  0.1115874E+005  0.1043930E+01  0.7957747E-01            NaN
         13   -1    0    0    0    0  0.00000000000E+00  0.00000000000E+00  0.74505805969E-08  0.10566000000E+00  0.10566000000E+00 0.  1.
     999900   -1    0    0    0    0 -0.00000000000E+00 -0.00000000000E+00 -0.74505805969E-08  0.93827000000E+00  0.93827000000E+00 0.  1.
     999902    2    1    2    0    0 -0.17190570595E-01  0.46349338599E-02  0.22709632178E-01  0.10150730126E+01  0.10146627495E+01 0.  0.
     999903    2    3    3    0    0 -0.62553205153E-01 -0.37768319099E-01  0.10446744911E+00  0.12910453396E+00  0.20376048798E-01 0.  0.
         14    1    1    2    0    0  0.17190570595E-01 -0.46349338599E-02 -0.22709632178E-01  0.28856987419E-01  0.00000000000E+00 0. -1.
     999901    1    3    3    0    0  0.45362634558E-01  0.42403252959E-01 -0.81757816928E-01  0.88596847862E+00  0.88000000000E+00 0.  1.
        -11    1    4    4    0    0 -0.23955034273E-01 -0.18715753057E-01  0.27895864622E-01  0.41262131108E-01  0.51100000000E-03 0. -1.
         11    1    4    4    0    0 -0.38598170880E-01 -0.19052566042E-01  0.76571584483E-01  0.87842402855E-01  0.51100000000E-03 0.  1.
</event>
<event>
 8    1  0.1115874E+005  0.1043930E+01  0.7957747E-01            NaN
         13   -1    0    0    0    0  0.00000000000E+00  0.00000000000E+00  0.74505805969E-08  0.10566000000E+00  0.10566000000E+00 0. -1.
     999900   -1    0    0    0    0 -0.00000000000E+00 -0.00000000000E+00 -0.74505805969E-08  0.93827000000E+00  0.93827000000E+00 0.  1.
     999902    2    1    2    0    0 -0.25891174322E-01 -0.45804536003E-02  0.24654339747E-01  0.10078860001E+01  0.10072412914E+01 0.  0.
     999903    2    3    3    0    0 -0.26736092131E-01 -0.13410654393E-02 -0.11233581829E+00  0.11728086258E+00  0.20465765974E-01 0.  0.
         14    1    1    2    0    0  0.25891174322E-01  0.45804536003E-02 -0.24654339747E-01  0.36043999935E-01  0.00000000000E+00 0. -1.
     999901    1    3    3    0    0  0.84491780971E-03 -0.32393881611E-02  0.13699015804E+00  0.89060513749E+00  0.88000000000E+00 0. -1.
        -11    1    4    4    0    0 -0.22306440668E-01 -0.71235104343E-02 -0.10181528282E+00  0.10447456452E+00  0.51100000000E-03 0.  1.
         11    1    4    4    0    0 -0.44296514629E-02  0.57824449951E-02 -0.10520535474E-01  0.12806298055E-01  0.51100000000E-03 0. -1.
</event>
<event>
 8    1  0.1115874E+005  0.1043930E+01  0.7957747E-01            NaN
         13   -1    0    0    0    0  0.00000000000E+00  0.00000000000E+00  0.74505805969E-08  0.10566000000E+00  0.10566000000E+00 0. -1.
     999900   -1    0    0    0    0 -0.00000000000E+00 -0.00000000000E+00 -0.74505805969E-08  0.93827000000E+00  0.93827000000E+00 0.  1.
     999902    2    1    2    0    0  0.22375505751E-01  0.25778465553E-02 -0.11436655198E-01  0.10186692472E+01  0.10183559935E+01 0.  0.
     999903    2    3    3    0    0  0.17161909795E-01 -0.30054841920E-01 -0.12441188675E+00  0.13083171876E+00  0.20995151787E-01 0.  0.
         14    1    1    2    0    0 -0.22375505751E-01 -0.25778465553E-02  0.11436655198E-01  0.25260752811E-01  0.00000000000E+00 0.  1.
     999901    1    3    3    0    0  0.52135959561E-02  0.32632688475E-01  0.11297523155E+00  0.88783752843E+00  0.88000000000E+00 0. -1.
        -11    1    4    4    0    0  0.66360389094E-02 -0.26658018226E-01 -0.67959467426E-01  0.73303733070E-01  0.51100000000E-03 0.  1.
         11    1    4    4    0    0  0.10525870885E-01 -0.33968236934E-02 -0.56452419325E-01  0.57527985691E-01  0.51100000000E-03 0. -1.
</event>
<event>
 8    1  0.1115874E+005  0.1043930E+01  0.7957747E-01            NaN
         13   -1    0    0    0    0  0.00000000000E+00  0.00000000000E+00  0.74505805969E-08  0.10566000000E+00  0.10566000000E+00 0. -1.
     999900   -1    0    0    0    0 -0.00000000000E+00 -0.00000000000E+00 -0.74505805969E-08  0.93827000000E+00  0.93827000000E+00 0. -1.
     999902    2    1    2    0    0  0.20052572531E-01  0.63488658891E-02 -0.94185877515E-02  0.10208838819E+01  0.10206237195E+01 0.  0.
     999903    2    3    3    0    0 -0.60933531562E-01  0.40917387292E-01 -0.10680871109E+00  0.13114315123E+00  0.20082268254E-01 0.  0.
         14    1    1    2    0    0 -0.20052572531E-01 -0.63488658891E-02  0.94185877515E-02  0.23046118077E-01  0.00000000000E+00 0. -1.
     999901    1    3    3    0    0  0.80986104093E-01 -0.34568521403E-01  0.97390123340E-01  0.88974073069E+00  0.88000000000E+00 0.  1.
        -11    1    4    4    0    0 -0.44706088908E-01  0.37614057420E-01 -0.91632920418E-01  0.10867522683E+00  0.51100000000E-03 0. -1.
         11    1    4    4    0    0 -0.16227442654E-01  0.33033298718E-02 -0.15175790674E-01  0.22467924402E-01  0.51100000000E-03 0.  1.
</event>
<event>
 8    1  0.1115874E+005  0.1043930E+01  0.7957747E-01            NaN
         13   -1    0    0    0    0  0.00000000000E+00  0.00000000000E+00  0.74505805969E-08  0.10566000000E+00  0.10566000000E+00 0. -1.
     999900   -1    0    0    0    0 -0.00000000000E+00 -0.00000000000E+00 -0.74505805969E-08  0.93827000000E+00  0.93827000000E+00 0.  1.
     999902    2    1    2    0    0  0.14941055141E-01  0.17896124378E-01 -0.62686160806E-02  0.10197887087E+01  0.10195029223E+01 0.  0.
     999903    2    3    3    0    0  0.56883642260E-01  0.15660941599E-01 -0.11733384456E+00  0.13181367438E+00  0.11251658753E-01 0.  0.
         14    1    1    2    0    0 -0.14941055141E-01 -0.17896124378E-01  0.62686160806E-02  0.24141291267E-01  0.00000000000E+00 0. -1.
     999901    1    3    3    0    0 -0.41942587119E-01  0.22351827790E-02  0.11106522848E+00  0.88797503435E+00  0.88000000000E+00 0. -1.
        -11    1    4    4    0    0  0.18889975585E-01  0.18949434957E-02 -0.28883866216E-01  0.34568205580E-01  0.51100000000E-03 0. -1.
         11    1    4    4    0    0  0.37993666675E-01  0.13765998103E-01 -0.88449978348E-01  0.97245468800E-01  0.51100000000E-03 0.  1.
</event>
<event>
 8    1  0.1115874E+005  0.1043930E+01  0.7957747E-01            NaN
         13   -1    0    0    0    0  0.00000000000E+00  0.00000000000E+00  0.74505805969E-08  0.10566000000E+00  0.10566000000E+00 0.  1.
     999900   -1    0    0    0    0 -0.00000000000E+00 -0.00000000000E+00 -0.74505805969E-08  0.93827000000E+00  0.93827000000E+00 0.  1.
     999902    2    1    2    0    0 -0.52060800091E-02  0.16498461856E-01 -0.15984461230E-01  0.10203756901E+01  0.10201037905E+01 0.  0.
     999903    2    3    3    0    0 -0.63843174975E-01 -0.10987481945E+00  0.10428408780E-01  0.12902494276E+00  0.19754928621E-01 0.  0.
         14    1    1    2    0    0  0.52060800091E-02 -0.16498461856E-01  0.15984461230E-01  0.23554309871E-01  0.00000000000E+00 0.  1.
     999901    1    3    3    0    0  0.58637094966E-01  0.12637328130E+00 -0.26412870010E-01  0.89135074737E+00  0.88000000000E+00 0. -1.
        -11    1    4    4    0    0 -0.48053493660E-01 -0.91491982244E-01  0.20046828608E-02  0.10336440849E+00  0.51100000000E-03 0.  1.
         11    1    4    4    0    0 -0.15789681315E-01 -0.18382837204E-01  0.84237259195E-02  0.25660534271E-01  0.51100000000E-03 0. -1.
</event>
<event>
 8    1  0.1115874E+005  0.1043930E+01  0.7957747E-01            NaN
         13   -1    0    0    0    0  0.00000000000E+00  0.00000000000E+00  0.74505805969E-08  0.10566000000E+00  0.10566000000E+00 0. -1.
     999900   -1    0    0    0    0 -0.00000000000E+00 -0.00000000000E+00 -0.74505805969E-08  0.93827000000E+00  0.93827000000E+00 0. -1.
     999902    2    1    2    0    0 -0.76427672949E-02  0.16666163249E-01  0.14599309722E-01  0.10204925783E+01  0.10202234019E+01 0.  0.
     999903    2    3    3    0    0  0.76645664678E-01  0.82705561526E-01  0.66240909423E-01  0.13249899914E+00  0.21292225609E-01 0.  0.
         14    1    1    2    0    0  0.76427672949E-02 -0.16666163249E-01 -0.14599309722E-01  0.23437421653E-01  0.00000000000E+00 0.  1.
     999901    1    3    3    0    0 -0.84288431972E-01 -0.66039398277E-01 -0.51641599701E-01  0.88799357920E+00  0.88000000000E+00 0. -1.
        -11    1    4    4    0    0  0.27906772475E-01  0.26906224541E-01  0.34499428234E-01  0.51896093673E-01  0.51100000000E-03 0.  1.
         11    1    4    4    0    0  0.48738892202E-01  0.55799336984E-01  0.31741481189E-01  0.80602905469E-01  0.51100000000E-03 0. -1.
</event>
<event>
 8    1  0.1115874E+005  0.1043930E+01  0.7957747E-01            NaN
         13   -1    0    0    0    0  0.00000000000E+00  0.00000000000E+00  0.74505805969E-08  0.10566000000E+00  0.10566000000E+00 0.  1.
     999900   -1    0    0    0    0 -0.00000000000E+00 -0.00000000000E+00 -0.74505805969E-08  0.93827000000E+00  0.93827000000E+00 0. -1.
     999902    2    1    2    0    0  0.12759820684E-01  0.12026068399E-01 -0.14412761162E-01  0.10212327088E+01  0.10209804496E+01 0.  0.
     999903    2    3    3    0    0  0.51947394184E-01 -0.67688200877E-01 -0.99954775656E-01  0.13263411160E+00  0.17906034820E-01 0.  0.
         14    1    1    2    0    0 -0.12759820684E-01 -0.12026068399E-01  0.14412761162E-01  0.22697291233E-01  0.00000000000E+00 0.  1.
     999901    1    3    3    0    0 -0.39187573500E-01  0.79714269276E-01  0.85542014494E-01  0.88859859717E+00  0.88000000000E+00 0.  1.
        -11    1    4    4    0    0  0.10885623485E-01 -0.80049220601E-02 -0.85379347844E-02  0.15991654925E-01  0.51100000000E-03 0.  1.
         11    1    4    4    0    0  0.41061770699E-01 -0.59683278817E-01 -0.91416840871E-01  0.11664245668E+00  0.51100000000E-03 0. -1.
</event>
<event>
 8    1  0.1115874E+005  0.1043930E+01  0.7957747E-01            NaN
         13   -1    0    0    0    0  0.00000000000E+00  0.00000000000E+00  0.74505805969E-08  0.10566000000E+00  0.10566000000E+00 0.  1.
     999900   -1    0    0    0    0 -0.00000000000E+00 -0.00000000000E+00 -0.74505805969E-08  0.93827000000E+00  0.93827000000E+00 0.  1.
     999902    2    1    2    0    0  0.26584064205E-01 -0.45263179451E-02 -0.48359515232E-02  0.10165331671E+01  0.10161639107E+01 0.  0.
     999903    2    3    3    0    0  0.79867937414E-01  0.82796055707E-01  0.53308296098E-01  0.12870147046E+00  0.22095696401E-01 0.  0.
         14    1    1    2    0    0 -0.26584064205E-01  0.45263179451E-02  0.48359515232E-02  0.27396832863E-01  0.00000000000E+00 0.  1.
     999901    1    3    3    0    0 -0.53283873208E-01 -0.87322373652E-01 -0.58144247622E-01  0.88783169667E+00  0.88000000000E+00 0.  1.
        -11    1    4    4    0    0  0.38532281278E-01  0.24545576116E-01  0.22090864043E-01  0.50749279823E-01  0.51100000000E-03 0.  1.
         11    1    4    4    0    0  0.41335656136E-01  0.58250479590E-01  0.31217432055E-01  0.77952190641E-01  0.51100000000E-03 0. -1.
</event>
<event>
 8    1  0.1115874E+005  0.1043930E+01  0.7957747E-01            NaN
         13   -1    0    0    0    0  0.00000000000E+00  0.00000000000E+00  0.74505805969E-08  0.10566000000E+00  0.10566000000E+00 0.  1.
     999900   -1    0    0    0    0 -0.00000000000E+00 -0.00000000000E+00 -0.74505805969E-08  0.93827000000E+00  0.93827000000E+00 0. -1.
     999902    2    1    2    0    0  0.13790907720E-01 -0.13739397875E-01 -0.13423076743E-01  0.10202838760E+01  0.10200098276E+01 0.  0.
     999903    2    3    3    0    0  0.85827299947E-02  0.57113861535E-01 -0.11633416306E+00  0.13144305722E+00  0.20198598059E-01 0.  0.
         14    1    1    2    0    0 -0.13790907720E-01  0.13739397875E-01  0.13423076743E-01  0.23646123973E-01  0.00000000000E+00 0.  1.
     999901    1    3    3    0    0  0.52081777249E-02 -0.70853259410E-01  0.10291108632E+00  0.88884081880E+00  0.88000000000E+00 0.  1.
        -11    1    4    4    0    0 -0.22693588534E-02  0.87934180390E-02 -0.72138246323E-02  0.11609245335E-01  0.51100000000E-03 0.  1.
         11    1    4    4    0    0  0.10852088848E-01  0.48320443496E-01 -0.10912033843E+00  0.11983381189E+00  0.51100000000E-03 0. -1.
</event>
<event>
 8    1  0.1115874E+005  0.1043930E+01  0.7957747E-01            NaN
         13   -1    0    0    0    0  0.00000000000E+00  0.00000000000E+00  0.74505805969E-08  0.10566000000E+00  0.10566000000E+00 0.  1.
     999900   -1    0    0    0    0 -0.00000000000E+00 -0.00000000000E+00 -0.74505805969E-08  0.93827000000E+00  0.93827000000E+00 0. -1.
     999902    2    1    2    0    0  0.12797251013E-01 -0.21015703814E-02  0.17097849959E-01  0.10224702073E+01  0.10222449814E+01 0.  0.
     999903    2    3    3    0    0 -0.74542475867E-01 -0.20890431014E-01  0.10689028656E+00  0.13340106998E+00  0.19424759824E-01 0.  0.
         14    1    1    2    0    0 -0.12797251013E-01  0.21015703814E-02 -0.17097849959E-01  0.21459792748E-01  0.00000000000E+00 0. -1.
     999901    1    3    3    0    0  0.87339726880E-01  0.18788860633E-01 -0.89792436605E-01  0.88906913727E+00  0.88000000000E+00 0. -1.
        -11    1    4    4    0    0 -0.45284446669E-01 -0.20330451103E-01  0.76617041006E-01  0.91293156621E-01  0.51100000000E-03 0. -1.
         11    1    4    4    0    0 -0.29258029197E-01 -0.55997991123E-03  0.30273245558E-01  0.42107913361E-01  0.51100000000E-03 0.  1.
</event>
<event>
 8    1  0.1115874E+005  0.1043930E+01  0.7957747E-01            NaN
         13   -1    0    0    0    0  0.00000000000E+00  0.00000000000E+00  0.74505805969E-08  0.10566000000E+00  0.10566000000E+00 0.  1.
     999900   -1    0    0    0    0 -0.00000000000E+00 -0.00000000000E+00 -0.74505805969E-08  0.93827000000E+00  0.93827000000E+00 0.  1.
     999902    2    1    2    0    0 -0.13425078597E-01 -0.22140050969E-02  0.19549313538E-01  0.10201117252E+01  0.10198336245E+01 0.  0.
     999903    2    3    3    0    0 -0.12541104556E+00  0.54647837163E-02 -0.34296372478E-01  0.13134900182E+00  0.17847266015E-01 0.  0.
         14    1    1    2    0    0  0.13425078597E-01  0.22140050969E-02 -0.19549313538E-01  0.23818274784E-01  0.00000000000E+00 0. -1.
     999901    1    3    3    0    0  0.11198596696E+00 -0.76787888132E-02  0.53845686016E-01  0.88876272340E+00  0.88000000000E+00 0. -1.
        -11    1    4    4    0    0 -0.47890340401E-01  0.10666918518E-01 -0.14647843743E-01  0.51206330680E-01  0.51100000000E-03 0. -1.
         11    1    4    4    0    0 -0.77520705160E-01 -0.52021348021E-02 -0.19648528736E-01  0.80142671140E-01  0.51100000000E-03 0.  1.
</event>
<event>
 8    1  0.1115874E+005  0.1043930E+01  0.7957747E-01            NaN
         13   -1    0    0    0    0  0.00000000000E+00  0.00000000000E+00  0.74505805969E-08  0.10566000000E+00  0.10566000000E+00 0.  1.
     999900   -1    0    0    0    0 -0.00000000000E+00 -0.00000000000E+00 -0.74505805969E-08  0.93827000000E+00  0.93827000000E+00 0.  1.
     999902    2    1    2    0    0 -0.13030750079E-01  0.12302978499E-01 -0.16512624040E-01  0.10195613628E+01  0.10192701026E+01 0.  0.
     999903    2    3    3    0    0  0.22643075823E-01  0.10566751881E+00  0.69099816717E-01  0.12977540579E+00  0.19711363778E-01 0.  0.
         14    1    1    2    0    0  0.13030750079E-01 -0.12302978499E-01  0.16512624040E-01  0.24368637226E-01  0.00000000000E+00 0.  1.
     999901    1    3    3    0    0 -0.35673825902E-01 -0.93364540313E-01 -0.85612440757E-01  0.88978595699E+00  0.88000000000E+00 0.  1.
        -11    1    4    4    0    0  0.22252181099E-01  0.98582201828E-01  0.57806446592E-01  0.11642790245E+00  0.51100000000E-03 0.  1.
         11    1    4    4    0    0  0.39089472305E-03  0.70853169834E-02  0.11293370125E-01  0.13347503333E-01  0.51100000000E-03 0. -1.
</event>
<event>
 8    1  0.1115874E+005  0.1043930E+01  0.7957747E-01            NaN
         13   -1    0    0    0    0  0.00000000000E+00  0.00000000000E+00  0.74505805969E-08  0.10566000000E+00  0.10566000000E+00 0.  1.
     999900   -1    0    0    0    0 -0.00000000000E+00 -0.00000000000E+00 -0.74505805969E-08  0.93827000000E+00  0.93827000000E+00 0. -1.
     999902    2    1    2    0    0  0.14389968287E-02  0.21561021867E-01  0.59736441823E-02  0.10215105263E+01  0.10212644724E+01 0.  0.
     999903    2    3    3    0    0  0.53298755684E-01 -0.92732652477E-01  0.72165021631E-01  0.13014428450E+00  0.17018879177E-01 0.  0.
         14    1    1    2    0    0 -0.14389968287E-02 -0.21561021867E-01 -0.59736441823E-02  0.22419473693E-01  0.00000000000E+00 0.  1.
     999901    1    3    3    0    0 -0.51859758856E-01  0.11429367434E+00 -0.66191377448E-01  0.89136624181E+00  0.88000000000E+00 0. -1.
        -11    1    4    4    0    0  0.23368490939E-01 -0.45670829933E-01  0.24863401098E-01  0.57011936563E-01  0.51100000000E-03 0.  1.
         11    1    4    4    0    0  0.29930264745E-01 -0.47061822544E-01  0.47301620533E-01  0.73132347938E-01  0.51100000000E-03 0. -1.
</event>
<event>
 8    1  0.1115874E+005  0.1043930E+01  0.7957747E-01            NaN
         13   -1    0    0    0    0  0.00000000000E+00  0.00000000000E+00  0.74505805969E-08  0.10566000000E+00  0.10566000000E+00 0. -1.
     999900   -1    0    0    0    0 -0.00000000000E+00 -0.00000000000E+00 -0.74505805969E-08  0.93827000000E+00  0.93827000000E+00 0.  1.
     999902    2    1    2    0    0  0.74492970372E-02  0.12695990339E-01  0.18426184950E-01  0.10203460120E+01  0.10200734188E+01 0.  0.
     999903    2    3    3    0    0  0.72598581703E-01 -0.86444238598E-01  0.63873266961E-01  0.13122360676E+00  0.19916834229E-01 0.  0.
         14    1    1    2    0    0 -0.74492970372E-02 -0.12695990339E-01 -0.18426184950E-01  0.23583987976E-01  0.00000000000E+00 0.  1.
     999901    1    3    3    0    0 -0.65149284666E-01  0.99140228937E-01 -0.45447082012E-01  0.88912240527E+00  0.88000000000E+00 0.  1.
        -11    1    4    4    0    0  0.62613146276E-01 -0.61587579995E-01  0.48234352016E-01  0.10020104756E+00  0.51100000000E-03 0.  1.
         11    1    4    4    0    0  0.99854354272E-02 -0.24856658603E-01  0.15638914945E-01  0.31022559199E-01  0.51100000000E-03 0. -1.
</event>
<event>
 8    1  0.1249111E+005  0.1043930E+01  0.7957747E-01            NaN
         13   -1    0    0    0    0  0.00000000000E+00  0.00000000000E+00  0.74505805969E-08  0.10566000000E+00  0.10566000000E+00 0.  1.
     999900   -1    0    0    0    0 -0.00000000000E+00 -0.00000000000E+00 -0.74505805969E-08  0.93827000000E+00  0.93827000000E+00 0.  1.
     999902    2    1    2    0    0  0.22935417795E-01 -0.25372387915E-02 -0.11323388211E-02  0.10208269015E+01  0.10205654362E+01 0.  0.
     999903    2    3    3    0    0  0.37350212551E-02 -0.90595105325E-01 -0.93049060721E-01  0.13146110112E+00  0.20061652812E-01 0.  0.
         14    1    1    2    0    0 -0.22935417795E-01  0.25372387915E-02  0.11323388211E-02  0.23103098522E-01  0.00000000000E+00 0. -1.
     999901    1    3    3    0    0  0.19200396539E-01  0.88057866533E-01  0.91916721900E-01  0.88936580036E+00  0.88000000000E+00 0. -1.
        -11    1    4    4    0    0  0.50981226689E-03 -0.30568147950E-01 -0.18671406043E-01  0.35826723298E-01  0.51100000000E-03 0. -1.
         11    1    4    4    0    0  0.32252089883E-02 -0.60026957375E-01 -0.74377654678E-01  0.95634377821E-01  0.51100000000E-03 0.  1.
</event>
<event>
 8    1  0.1115874E+005  0.1043930E+01  0.7957747E-01            NaN
         13   -1    0    0    0    0  0.00000000000E+00  0.00000000000E+00  0.74505805969E-08  0.10566000000E+00  0.10566000000E+00 0.  1.
     999900   -1    0    0    0    0 -0.00000000000E+00 -0.00000000000E+00 -0.74505805969E-08  0.93827000000E+00  0.93827000000E+00 0.  1.
     999902    2    1    2    0    0 -0.11340692384E-01 -0.75489135804E-02 -0.19211059279E-01  0.10203787325E+01  0.10201069040E+01 0.  0.
     999903    2    3    3    0    0  0.12400042103E+00  0.28697906323E-01 -0.11304081165E-01  0.12925945364E+00  0.19507687254E-01 0.  0.
         14    1    1    2    0    0  0.11340692384E-01  0.75489135804E-02  0.19211059279E-01  0.23551267452E-01  0.00000000000E+00 0.  1.
     999901    1    3    3    0    0 -0.13534111341E+00 -0.36246819903E-01 -0.79069781141E-02  0.89111927890E+00  0.88000000000E+00 0. -1.
        -11    1    4    4    0    0  0.40015599686E-01  0.98659897675E-04 -0.46463139252E-02  0.40287805923E-01  0.51100000000E-03 0.  1.
         11    1    4    4    0    0  0.83984821345E-01  0.28599246425E-01 -0.66577672398E-02  0.88971647720E-01  0.51100000000E-03 0. -1.
</event>
<event>
 8    1  0.1115874E+005  0.1043930E+01  0.7957747E-01            NaN
         13   -1    0    0    0    0  0.00000000000E+00  0.00000000000E+00  0.74505805969E-08  0.10566000000E+00  0.10566000000E+00 0. -1.
     999900   -1    0    0    0    0 -0.00000000000E+00 -0.00000000000E+00 -0.74505805969E-08  0.93827000000E+00  0.93827000000E+00 0. -1.
     999902    2    1    2    0    0  0.69123311282E-02  0.22481972537E-01 -0.37026014944E-02  0.10201197361E+01  0.10198418246E+01 0.  0.
     999903    2    3    3    0    0 -0.12188731664E-02  0.10110503132E+00 -0.84058063141E-01  0.13293052171E+00  0.19520568949E-01 0.  0.
         14    1    1    2    0    0 -0.69123311282E-02 -0.22481972537E-01  0.37026014944E-02  0.23810263934E-01  0.00000000000E+00 0. -1.
     999901    1    3    3    0    0  0.81312042947E-02 -0.78623058785E-01  0.80355461646E-01  0.88718921436E+00  0.88000000000E+00 0.  1.
        -11    1    4    4    0    0 -0.40829719163E-03  0.44576400108E-01 -0.49733114110E-01  0.66789714128E-01  0.51100000000E-03 0. -1.
         11    1    4    4    0    0 -0.81057597482E-03  0.56528631215E-01 -0.34324949030E-01  0.66140807580E-01  0.51100000000E-03 0.  1.
</event>
<event>
 8    1  0.1115874E+005  0.1043930E+01  0.7957747E-01            NaN
         13   -1    0    0    0    0  0.00000000000E+00  0.00000000000E+00  0.74505805969E-08  0.10566000000E+00  0.10566000000E+00 0.  1.
     999900   -1    0    0    0    0 -0.00000000000E+00 -0.00000000000E+00 -0.74505805969E-08  0.93827000000E+00  0.93827000000E+00 0.  1.
     999902    2    1    2    0    0  0.25283191946E-02 -0.23739433469E-01  0.35293374770E-02  0.10197968418E+01  0.10195112502E+01 0.  0.
     999903    2    3    3    0    0 -0.11826806011E+00  0.33768521153E-01  0.34095445613E-01  0.12916043059E+00  0.19805816213E-01 0.  0.
         14    1    1    2    0    0 -0.25283191946E-02  0.23739433469E-01 -0.35293374770E-02  0.24133158153E-01  0.00000000000E+00 0. -1.
     999901    1    3    3    0    0  0.12079637930E+00 -0.57507954622E-01 -0.30566108136E-01  0.89063641126E+00  0.88000000000E+00 0. -1.
        -11    1    4    4    0    0 -0.34835184607E-01  0.19485559324E-01  0.10059314045E-01  0.41165859991E-01  0.51100000000E-03 0. -1.
         11    1    4    4    0    0 -0.83432875499E-01  0.14282961829E-01  0.24036131568E-01  0.87994570596E-01  0.51100000000E-03 0.  1.
</event>
<event>
 8    1  0.1115874E+005  0.1043930E+01  0.7957747E-01            NaN
         13   -1    0    0    0    0  0.00000000000E+00  0.00000000000E+00  0.74505805969E-08  0.10566000000E+00  0.10566000000E+00 0. -1.
     999900   -1    0    0    0    0 -0.00000000000E+00 -0.00000000000E+00 -0.74505805969E-08  0.93827000000E+00  0.93827000000E+00 0.  1.
     999902    2    1    2    0    0  0.23284842939E-01  0.48542997403E-03 -0.46325524678E-02  0.10201838404E+01  0.10199074410E+01 0.  0.
     999903    2    3    3    0    0  0.11964269143E+00 -0.48822590993E-01  0.24921581821E-01  0.13305951837E+00  0.19640040346E-01 0.  0.
         14    1    1    2    0    0 -0.23284842939E-01 -0.48542997403E-03  0.46325524678E-02  0.23746159591E-01  0.00000000000E+00 0. -1.
     999901    1    3    3    0    0 -0.96357848491E-01  0.49308020967E-01 -0.29554134288E-01  0.88712432204E+00  0.88000000000E+00 0.  1.
        -11    1    4    4    0    0  0.85568009961E-01 -0.43313026094E-01  0.22120862188E-01  0.98425079238E-01  0.51100000000E-03 0. -1.
         11    1    4    4    0    0  0.34074681469E-01 -0.55095648993E-02  0.28007196331E-02  0.34634439133E-01  0.51100000000E-03 0.  1.
</event>
<event>
 8    1  0.1115874E+005  0.1043930E+01  0.7957747E-01            NaN
         13   -1    0    0    0    0  0.00000000000E+00  0.00000000000E+00  0.74505805969E-08  0.10566000000E+00  0.10566000000E+00 0.  1.
     999900   -1    0    0    0    0 -0.00000000000E+00 -0.00000000000E+00 -0.74505805969E-08  0.93827000000E+00  0.93827000000E+00 0.  1.
     999902    2    1    2    0    0 -0.17448767032E-01 -0.88509703430E-02 -0.12920059769E-01  0.10204837404E+01  0.10202143585E+01 0.  0.
     999903    2    3    3    0    0 -0.14193994325E-01 -0.76188200379E-01 -0.10620250244E+00  0.13298922758E+00  0.20026277138E-01 0.  0.
         14    1    1    2    0    0  0.17448767032E-01  0.88509703430E-02  0.12920059769E-01  0.23446259646E-01  0.00000000000E+00 0.  1.
     999901    1    3    3    0    0 -0.32547727070E-02  0.67337230036E-01  0.93282442669E-01  0.88749451277E+00  0.88000000000E+00 0. -1.
        -11    1    4    4    0    0  0.16859973185E-02 -0.33548776844E-01 -0.35213244498E-01  0.48668231156E-01  0.51100000000E-03 0.  1.
         11    1    4    4    0    0 -0.15879991644E-01 -0.42639423535E-01 -0.70989257940E-01  0.84320996424E-01  0.51100000000E-03 0. -1.
</event>
<event>
 8    1  0.1115874E+005  0.1043930E+01  0.7957747E-01            NaN
         13   -1    0    0    0    0  0.00000000000E+00  0.00000000000E+00  0.74505805969E-08  0.10566000000E+00  0.10566000000E+00 0.  1.
     999900   -1    0    0    0    0 -0.00000000000E+00 -0.00000000000E+00 -0.74505805969E-08  0.93827000000E+00  0.93827000000E+00 0. -1.
     999902    2    1    2    0    0  0.58653832585E-02 -0.13688910793E-01  0.18285549043E-01  0.10203471608E+01  0.10200745945E+01 0.  0.
     999903    2    3    3    0    0 -0.28273111643E-01 -0.37587563915E-01  0.12298631918E+00  0.13316125375E+00  0.19851725167E-01 0.  0.
         14    1    1    2    0    0 -0.58653832585E-02  0.13688910793E-01 -0.18285549043E-01  0.23582839169E-01  0.00000000000E+00 0. -1.
     999901    1    3    3    0    0  0.34138494902E-01  0.23898653122E-01 -0.10470077014E+00  0.88718590708E+00  0.88000000000E+00 0. -1.
        -11    1    4    4    0    0 -0.16837059076E-01 -0.28297905793E-01  0.59702288309E-01  0.68182713212E-01  0.51100000000E-03 0.  1.
         11    1    4    4    0    0 -0.11436052567E-01 -0.92896581217E-02  0.63284030870E-01  0.64978540538E-01  0.51100000000E-03 0. -1.
</event>
<event>
 8    1  0.1115874E+005  0.1043930E+01  0.7957747E-01            NaN
         13   -1    0    0    0    0  0.00000000000E+00  0.00000000000E+00  0.74505805969E-08  0.10566000000E+00  0.10566000000E+00 0.  1.
     999900   -1    0    0    0    0 -0.00000000000E+00 -0.00000000000E+00 -0.74505805969E-08  0.93827000000E+00  0.93827000000E+00 0. -1.
     999902    2    1    2    0    0  0.22775056034E-01 -0.70423413786E-02 -0.40564128935E-03  0.10200875527E+01  0.10198088805E+01 0.  0.
     999903    2    3    3    0    0 -0.75149468907E-01 -0.14533775802E-01 -0.10173792608E+00  0.12884484381E+00  0.19791787628E-01 0.  0.
         14    1    1    2    0    0 -0.22775056034E-01  0.70423413786E-02  0.40564128935E-03  0.23842447322E-01  0.00000000000E+00 0.  1.
     999901    1    3    3    0    0  0.97924524940E-01  0.74914344230E-02  0.10133228479E+00  0.89124270887E+00  0.88000000000E+00 0.  1.
        -11    1    4    4    0    0 -0.19076431629E-01 -0.45875835457E-02 -0.13489862466E-01  0.23815828283E-01  0.51100000000E-03 0. -1.
         11    1    4    4    0    0 -0.56073037278E-01 -0.99461922559E-02 -0.88248063611E-01  0.10502901552E+00  0.51100000000E-03 0.  1.
</event>
<event>
 8    1  0.1115874E+005  0.1043930E+01  0.7957747E-01            NaN
         13   -1    0    0    0    0  0.00000000000E+00  0.00000000000E+00  0.74505805969E-08  0.10566000000E+00  0.10566000000E+00 0.  1.
     999900   -1    0    0    0    0 -0.00000000000E+00 -0.00000000000E+00 -0.74505805969E-08  0.93827000000E+00  0.93827000000E+00 0.  1.
     999902    2    1    2    0    0  0.87668423053E-02  0.84845497704E-03 -0.22771561596E-01  0.10195144022E+01  0.10192220047E+01 0.  0.
     999903    2    3    3    0    0 -0.79441907441E-01 -0.96913967920E-01  0.20574334795E-01  0.12866248316E+00  0.20673593927E-01 0.  0.
         14    1    1    2    0    0 -0.87668423053E-02 -0.84845497704E-03  0.22771561596E-01  0.24415597830E-01  0.00000000000E+00 0.  1.
     999901    1    3    3    0    0  0.88208749746E-01  0.97762422897E-01 -0.43345896392E-01  0.89085191901E+00  0.88000000000E+00 0. -1.
        -11    1    4    4    0    0 -0.37431503374E-01 -0.33038453115E-01  0.19222184434E-02  0.49966117258E-01  0.51100000000E-03 0. -1.
         11    1    4    4    0    0 -0.42010404067E-01 -0.63875514805E-01  0.18652116352E-01  0.78696365907E-01  0.51100000000E-03 0.  1.
</event>
<event>
 8    1  0.1115874E+005  0.1043930E+01  0.7957747E-01            NaN
         13   -1    0    0    0    0  0.00000000000E+00  0.00000000000E+00  0.74505805969E-08  0.10566000000E+00  0.10566000000E+00 0.  1.
     999900   -1    0    0    0    0 -0.00000000000E+00 -0.00000000000E+00 -0.74505805969E-08  0.93827000000E+00  0.93827000000E+00 0. -1.
     999902    2    1    2    0    0 -0.10493841886E-02  0.99005647786E-02 -0.20535483122E-01  0.10211083336E+01  0.10208532708E+01 0.  0.
     999903    2    3    3    0    0 -0.11124161689E+00  0.15342056553E-01  0.63098271246E-01  0.13028481413E+00  0.19561823301E-01 0.  0.
         14    1    1    2    0    0  0.10493841886E-02 -0.99005647786E-02  0.20535483122E-01  0.22821666398E-01  0.00000000000E+00 0.  1.
     999901    1    3    3    0    0  0.11019223270E+00 -0.54414917740E-02 -0.83633754369E-01  0.89082351947E+00  0.88000000000E+00 0. -1.
        -11    1    4    4    0    0 -0.87658060901E-01  0.15332103975E-01  0.57782658058E-01  0.10610422115E+00  0.51100000000E-03 0. -1.
         11    1    4    4    0    0 -0.23583555987E-01  0.99525778828E-05  0.53156131885E-02  0.24180592975E-01  0.51100000000E-03 0.  1.
</event>
<event>
 8    1  0.1115874E+005  0.1043930E+01  0.7957747E-01            NaN
         13   -1    0    0    0    0  0.00000000000E+00  0.00000000000E+00  0.74505805969E-08  0.10566000000E+00  0.10566000000E+00 0. -1.
     999900   -1    0    0    0    0 -0.00000000000E+00 -0.00000000000E+00 -0.74505805969E-08  0.93827000000E+00  0.93827000000E+00 0. -1.
     999902    2    1    2    0    0  0.14163184948E-01  0.13242477197E-01  0.13025391446E-01  0.10205714934E+01  0.10203041474E+01 0.  0.
     999903    2    3    3    0    0 -0.71331276015E-01  0.82709916650E-01  0.71212586954E-01  0.13179661876E+00  0.19236291886E-01 0.  0.
         14    1    1    2    0    0 -0.14163184948E-01 -0.13242477197E-01 -0.13025391446E-01  0.23358506641E-01  0.00000000000E+00 0.  1.
     999901    1    3    3    0    0  0.85494460963E-01 -0.69467439453E-01 -0.58187195508E-01  0.88877487460E+00  0.88000000000E+00 0. -1.
        -11    1    4    4    0    0 -0.18967538122E-01  0.18692156388E-01  0.27356412992E-01  0.38181129706E-01  0.51100000000E-03 0.  1.
         11    1    4    4    0    0 -0.52363737894E-01  0.64017760261E-01  0.43856173962E-01  0.93615489053E-01  0.51100000000E-03 0. -1.
</event>
<event>
 8    1  0.1115874E+005  0.1043930E+01  0.7957747E-01            NaN
         13   -1    0    0    0    0  0.00000000000E+00  0.00000000000E+00  0.74505805969E-08  0.10566000000E+00  0.10566000000E+00 0.  1.
     999900   -1    0    0    0    0 -0.00000000000E+00 -0.00000000000E+00 -0.74505805969E-08  0.93827000000E+00  0.93827000000E+00 0.  1.
     999902    2    1    2    0    0 -0.18713161884E-01  0.64620503271E-03  0.11339916511E-01  0.10220395063E+01  0.10218050493E+01 0.  0.
     999903    2    3    3    0    0  0.37785471631E-02  0.12843655346E+00  0.28193070202E-01  0.13236525190E+00  0.14679407978E-01 0.  0.
         14    1    1    2    0    0  0.18713161884E-01 -0.64620503271E-03 -0.11339916511E-01  0.21890493716E-01  0.00000000000E+00 0.  1.
     999901    1    3    3    0    0 -0.22491709047E-01 -0.12779034843E+00 -0.16853153691E-01  0.88967425439E+00  0.88000000000E+00 0. -1.
        -11    1    4    4    0    0  0.50816349540E-02  0.76436065705E-01  0.10000707618E-01  0.77256523531E-01  0.51100000000E-03 0.  1.
         11    1    4    4    0    0 -0.13030877909E-02  0.52000487758E-01  0.18192362584E-01  0.55108728367E-01  0.51100000000E-03 0. -1.
</event>
<event>
 8    1  0.1115874E+005  0.1043930E+01  0.7957747E-01            NaN
         13   -1    0    0    0    0  0.00000000000E+00  0.00000000000E+00  0.74505805969E-08  0.10566000000E+00  0.10566000000E+00 0.  1.
     999900   -1    0    0    0    0 -0.00000000000E+00 -0.00000000000E+00 -0.74505805969E-08  0.93827000000E+00  0.93827000000E+00 0. -1.
     999902    2    1    2    0    0  0.36893346490E-02  0.86382133882E-02 -0.27855268174E-01  0.10145336416E+01  0.10141076689E+01 0.  0.
     999903    2    3    3    0    0  0.11961043603E+00  0.33083450940E-01 -0.15142483671E-01  0.12650386382E+00  0.19307035412E-01 0.  0.
         14    1    1    2    0    0 -0.36893346490E-02 -0.86382133882E-02  0.27855268174E-01  0.29396358375E-01  0.00000000000E+00 0.  1.
     999901    1    3    3    0    0 -0.11592110138E+00 -0.24445237552E-01 -0.12712784503E-01  0.88802977781E+00  0.88000000000E+00 0. -1.
        -11    1    4    4    0    0  0.54005229041E-01  0.21227019720E-01 -0.14573863216E-01  0.59831511263E-01  0.51100000000E-03 0. -1.
         11    1    4    4    0    0  0.65605206986E-01  0.11856431220E-01 -0.56862045430E-03  0.66672352554E-01  0.51100000000E-03 0.  1.
</event>
<event>
 8    1  0.1115874E+005  0.1043930E+01  0.7957747E-01            NaN
         13   -1    0    0    0    0  0.00000000000E+00  0.00000000000E+00  0.74505805969E-08  0.10566000000E+00  0.10566000000E+00 0. -1.
     999900   -1    0    0    0    0 -0.00000000000E+00 -0.00000000000E+00 -0.74505805969E-08  0.93827000000E+00  0.93827000000E+00 0. -1.
     999902    2    1    2    0    0  0.17247979870E-01  0.13841121723E-01  0.88671551727E-02  0.10201036301E+01  0.10198253381E+01 0.  0.
     999903    2    3    3    0    0 -0.70662443443E-01 -0.47857163290E-02  0.10714081321E+00  0.13008513960E+00  0.20661696365E-01 0.  0.
         14    1    1    2    0    0 -0.17247979870E-01 -0.13841121723E-01 -0.88671551727E-02  0.23826369866E-01  0.00000000000E+00 0. -1.
     999901    1    3    3    0    0  0.87910423313E-01  0.18626838052E-01 -0.98273658035E-01  0.89001849053E+00  0.88000000000E+00 0. -1.
        -11    1    4    4    0    0 -0.10940477072E-01  0.58618183388E-02  0.25573475374E-01  0.28430946459E-01  0.51100000000E-03 0. -1.
         11    1    4    4    0    0 -0.59721966371E-01 -0.10647534668E-01  0.81567337833E-01  0.10165419314E+00  0.51100000000E-03 0.  1.
</event>
<event>
 8    1  0.1115874E+005  0.1043930E+01  0.7957747E-01            NaN
         13   -1    0    0    0    0  0.00000000000E+00  0.00000000000E+00  0.74505805969E-08  0.10566000000E+00  0.10566000000E+00 0. -1.
     999900   -1    0    0    0    0 -0.00000000000E+00 -0.00000000000E+00 -0.74505805969E-08  0.93827000000E+00  0.93827000000E+00 0. -1.
     999902    2    1    2    0    0 -0.13495847664E-01 -0.12191633625E-01 -0.14895932188E-01  0.10204212223E+01  0.10201503851E+01 0.  0.
     999903    2    3    3    0    0  0.33435278542E-01 -0.57177629157E-01 -0.11299928729E+00  0.13258647487E+00  0.20570251903E-01 0.  0.
         14    1    1    2    0    0  0.13495847664E-01  0.12191633625E-01  0.14895932188E-01  0.23508777730E-01  0.00000000000E+00 0. -1.
     999901    1    3    3    0    0 -0.46931126206E-01  0.44985995533E-01  0.98103355106E-01  0.88783474740E+00  0.88000000000E+00 0. -1.
        -11    1    4    4    0    0  0.54128876014E-02 -0.11711747695E-01 -0.40695752481E-01  0.42695079076E-01  0.51100000000E-03 0.  1.
         11    1    4    4    0    0  0.28022390940E-01 -0.45465881462E-01 -0.72303534813E-01  0.89891395798E-01  0.51100000000E-03 0. -1.
</event>
<event>
 8    1  0.1115874E+005  0.1043930E+01  0.7957747E-01            NaN
         13   -1    0    0    0    0  0.00000000000E+00  0.00000000000E+00  0.74505805969E-08  0.10566000000E+00  0.10566000000E+00 0.  1.
     999900   -1    0    0    0    0 -0.00000000000E+00 -0.00000000000E+00 -0.74505805969E-08  0.93827000000E+00  0.93827000000E+00 0.  1.
     999902    2    1    2    0    0 -0.47301865653E-02 -0.77918823154E-03 -0.23050618114E-01  0.10203861517E+01  0.10201144964E+01 0.  0.
     999903    2    3    3    0    0  0.39328087240E-02 -0.12907428256E+00 -0.88916678959E-02  0.13092836481E+00  0.19685973430E-01 0.  0.
         14    1    1    2    0    0  0.47301865653E-02  0.77918823154E-03  0.23050618114E-01  0.23543848340E-01  0.00000000000E+00 0.  1.
     999901    1    3    3    0    0 -0.86629952893E-02  0.12829509433E+00 -0.14158950218E-01  0.88945778685E+00  0.88000000000E+00 0.  1.
        -11    1    4    4    0    0  0.83291188116E-02 -0.58294318024E-01 -0.11328490571E-01  0.59968304575E-01  0.51100000000E-03 0. -1.
         11    1    4    4    0    0 -0.43963100876E-02 -0.70779964540E-01  0.24368226746E-02  0.70960060234E-01  0.51100000000E-03 0.  1.
</event>
<event>
 8    1  0.1115874E+005  0.1043930E+01  0.7957747E-01            NaN
         13   -1    0    0    0    0  0.00000000000E+00  0.00000000000E+00  0.74505805969E-08  0.10566000000E+00  0.10566000000E+00 0.  1.
     999900   -1    0    0    0    0 -0.00000000000E+00 -0.00000000000E+00 -0.74505805969E-08  0.93827000000E+00  0.93827000000E+00 0.  1.
     999902    2    1    2    0    0 -0.19048104414E-01 -0.69122235643E-02 -0.13788369070E-01  0.10194202420E+01  0.10191255573E+01 0.  0.
     999903    2    3    3    0    0 -0.10484770470E+00  0.15913685150E-01 -0.76919689212E-01  0.13270261100E+00  0.21143741897E-01 0.  0.
         14    1    1    2    0    0  0.19048104414E-01  0.69122235643E-02  0.13788369070E-01  0.24509758016E-01  0.00000000000E+00 0. -1.
     999901    1    3    3    0    0  0.85799600286E-01 -0.22825908715E-01  0.63131320142E-01  0.88671763099E+00  0.88000000000E+00 0. -1.
        -11    1    4    4    0    0 -0.33728421993E-01  0.15230492994E-01 -0.26250596727E-01  0.45375426351E-01  0.51100000000E-03 0.  1.
         11    1    4    4    0    0 -0.71119282707E-01  0.68319215662E-03 -0.50669092485E-01  0.87327184648E-01  0.51100000000E-03 0. -1.
</event>
<event>
 8    1  0.1115874E+005  0.1043930E+01  0.7957747E-01            NaN
         13   -1    0    0    0    0  0.00000000000E+00  0.00000000000E+00  0.74505805969E-08  0.10566000000E+00  0.10566000000E+00 0. -1.
     999900   -1    0    0    0    0 -0.00000000000E+00 -0.00000000000E+00 -0.74505805969E-08  0.93827000000E+00  0.93827000000E+00 0.  1.
     999902    2    1    2    0    0 -0.88626878306E-02  0.22183215790E-01 -0.15413283928E-02  0.10199922058E+01  0.10197112738E+01 0.  0.
     999903    2    3    3    0    0 -0.11685255342E+00 -0.54460377270E-01  0.18577712876E-02  0.13007782491E+00  0.17214449894E-01 0.  0.
         14    1    1    2    0    0  0.88626878306E-02 -0.22183215790E-01  0.15413283928E-02  0.23937794209E-01  0.00000000000E+00 0. -1.
     999901    1    3    3    0    0  0.10798986559E+00  0.76643593060E-01 -0.33990996804E-02  0.88991438088E+00  0.88000000000E+00 0.  1.
        -11    1    4    4    0    0 -0.66804687524E-01 -0.21701971784E-01  0.51843746826E-03  0.70245083479E-01  0.51100000000E-03 0.  1.
         11    1    4    4    0    0 -0.50047865895E-01 -0.32758405486E-01  0.13393338193E-02  0.59832741427E-01  0.51100000000E-03 0. -1.
</event>
<event>
 8    1  0.1115874E+005  0.1043930E+01  0.7957747E-01            NaN
         13   -1    0    0    0    0  0.00000000000E+00  0.00000000000E+00  0.74505805969E-08  0.10566000000E+00  0.10566000000E+00 0.  1.
     999900   -1    0    0    0    0 -0.00000000000E+00 -0.00000000000E+00 -0.74505805969E-08  0.93827000000E+00  0.93827000000E+00 0.  1.
     999902    2    1    2    0    0 -0.40860246086E-02  0.66265053741E-02  0.22286061967E-01  0.10203233330E+01  0.10200502091E+01 0.  0.
     999903    2    3    3    0    0  0.63100906458E-01 -0.94456028571E-01  0.61340073324E-01  0.13113438894E+00  0.23020808791E-01 0.  0.
         14    1    1    2    0    0  0.40860246086E-02 -0.66265053741E-02 -0.22286061967E-01  0.23606667037E-01  0.00000000000E+00 0. -1.
     999901    1    3    3    0    0 -0.67186931066E-01  0.10108253394E+00 -0.39054011356E-01  0.88918894403E+00  0.88000000000E+00 0.  1.
        -11    1    4    4    0    0  0.59222207467E-01 -0.72852110450E-01  0.48038021223E-01  0.10546379691E+00  0.51100000000E-03 0.  1.
         11    1    4    4    0    0  0.38786989911E-02 -0.21603918121E-01  0.13302052101E-01  0.25670592029E-01  0.51100000000E-03 0. -1.
</event>
<event>
 8    1  0.1115874E+005  0.1043930E+01  0.7957747E-01            NaN
         13   -1    0    0    0    0  0.00000000000E+00  0.00000000000E+00  0.74505805969E-08  0.10566000000E+00  0.10566000000E+00 0. -1.
     999900   -1    0    0    0    0 -0.00000000000E+00 -0.00000000000E+00 -0.74505805969E-08  0.93827000000E+00  0.93827000000E+00 0. -1.
     999902    2    1    2    0    0  0.18347414180E-01  0.12987730934E-01 -0.81137239050E-02  0.10200314378E+01  0.10197514367E+01 0.  0.
     999903    2    3    3    0    0  0.13388451455E-01 -0.10446475557E+00  0.70566196539E-01  0.12873451317E+00  0.22379700558E-01 0.  0.
         14    1    1    2    0    0 -0.18347414180E-01 -0.12987730934E-01  0.81137239050E-02  0.23898562248E-01  0.00000000000E+00 0.  1.
     999901    1    3    3    0    0  0.49589627247E-02  0.11745248650E+00 -0.78679920444E-01  0.89129692459E+00  0.88000000000E+00 0. -1.
        -11    1    4    4    0    0  0.11657008657E-01 -0.67351013348E-01  0.33026320379E-01  0.75914714045E-01  0.51100000000E-03 0.  1.
         11    1    4    4    0    0  0.17314427985E-02 -0.37113742223E-01  0.37539876160E-01  0.52819799120E-01  0.51100000000E-03 0. -1.
</event>
<event>
 8    1  0.1115874E+005  0.1043930E+01  0.7957747E-01            NaN
         13   -1    0    0    0    0  0.00000000000E+00  0.00000000000E+00  0.74505805969E-08  0.10566000000E+00  0.10566000000E+00 0.  1.
     999900   -1    0    0    0    0 -0.00000000000E+00 -0.00000000000E+00 -0.74505805969E-08  0.93827000000E+00  0.93827000000E+00 0. -1.
     999902    2    1    2    0    0 -0.13181977590E-01  0.19870543880E-01 -0.21891440226E-02  0.10199843240E+01  0.10197032048E+01 0.  0.
     999903    2    3    3    0    0 -0.57845134385E-01  0.40743495628E-01 -0.10967054026E+00  0.13207513483E+00  0.20251464882E-01 0.  0.
         14    1    1    2    0    0  0.13181977590E-01 -0.19870543880E-01  0.21891440226E-02  0.23945675994E-01  0.00000000000E+00 0. -1.
     999901    1    3    3    0    0  0.44663156796E-01 -0.20872951748E-01  0.10748139624E+00  0.88790918918E+00  0.88000000000E+00 0.  1.
        -11    1    4    4    0    0 -0.48167562295E-01  0.36543411355E-01 -0.78003802391E-01  0.98693410516E-01  0.51100000000E-03 0.  1.
         11    1    4    4    0    0 -0.96775720903E-02  0.42000842730E-02 -0.31666737873E-01  0.33381724311E-01  0.51100000000E-03 0. -1.
</event>
<event>
 8    1  0.1115874E+005  0.1043930E+01  0.7957747E-01            NaN
         13   -1    0    0    0    0  0.00000000000E+00  0.00000000000E+00  0.74505805969E-08  0.10566000000E+00  0.10566000000E+00 0.  1.
     999900   -1    0    0    0    0 -0.00000000000E+00 -0.00000000000E+00 -0.74505805969E-08  0.93827000000E+00  0.93827000000E+00 0. -1.
     999902    2    1    2    0    0 -0.43463336617E-02 -0.21494747639E-02 -0.23164118163E-01  0.10202638379E+01  0.10199893194E+01 0.  0.
     999903    2    3    3    0    0  0.11066040022E+00 -0.65584885177E-01 -0.54911107544E-02  0.13034084386E+00  0.20285017670E-01 0.  0.
         14    1    1    2    0    0  0.43463336617E-02  0.21494747639E-02  0.23164118163E-01  0.23666162095E-01  0.00000000000E+00 0.  1.
     999901    1    3    3    0    0 -0.11500673388E+00  0.63435410413E-01 -0.17673007409E-01  0.88992299404E+00  0.88000000000E+00 0. -1.
        -11    1    4    4    0    0  0.51072224916E-01 -0.22262346532E-01 -0.96689539705E-02  0.56548510350E-01  0.51100000000E-03 0. -1.
         11    1    4    4    0    0  0.59588175302E-01 -0.43322538645E-01  0.41778432161E-02  0.73792333513E-01  0.51100000000E-03 0.  1.
</event>
<event>
 7    1  0.1115874E+005  0.1043930E+01  0.7957747E-01            NaN
         13   -1    0    0    0    0  0.00000000000E+00  0.00000000000E+00  0.74505805969E-08  0.10566000000E+00  0.10566000000E+00 0. -1.
     999900   -1    0    0    0    0 -0.00000000000E+00 -0.00000000000E+00 -0.74505805969E-08  0.93827000000E+00  0.93827000000E+00 0.  1.
     999903    2    1    2    0    0 -0.70673201391E-01  0.64648438121E-01 -0.28854771952E-01  0.10201900356E+00  0.20028911044E-01 0.  0.
         14    1    1    2    0    0 -0.38411795969E-01 -0.34625669430E-02  0.36404303794E-01  0.53035165449E-01  0.00000000000E+00 0. -1.
     999901    1    1    2    0    0  0.10908499736E+00 -0.61185871178E-01 -0.75495318426E-02  0.88887583099E+00  0.88000000000E+00 0.  1.
        -11    1    3    3    0    0 -0.25797158616E-01  0.36898989649E-01 -0.11464748503E-01  0.46462139523E-01  0.51100000000E-03 0.  1.
         11    1    3    3    0    0 -0.44876042775E-01  0.27749448472E-01 -0.17390023448E-01  0.55556864042E-01  0.51100000000E-03 0. -1.
</event>
<event>
 8    1  0.1115874E+005  0.1043930E+01  0.7957747E-01            NaN
         13   -1    0    0    0    0  0.00000000000E+00  0.00000000000E+00  0.74505805969E-08  0.10566000000E+00  0.10566000000E+00 0. -1.
     999900   -1    0    0    0    0 -0.00000000000E+00 -0.00000000000E+00 -0.74505805969E-08  0.93827000000E+00  0.93827000000E+00 0. -1.
     999902    2    1    2    0    0  0.23243165346E-01  0.17138291746E-02 -0.10146266503E-01  0.10185109389E+01  0.10181936966E+01 0.  0.
     999903    2    3    3    0    0 -0.47014784171E-01  0.16168763083E-01 -0.11729439580E+00  0.12911460077E+00  0.20994904520E-01 0.  0.
         14    1    1    2    0    0 -0.23243165346E-01 -0.17138291746E-02  0.10146266503E-01  0.25419061149E-01  0.00000000000E+00 0.  1.
     999901    1    3    3    0    0  0.70257949517E-01 -0.14454933908E-01  0.10714812929E+00  0.88939633808E+00  0.88000000000E+00 0.  1.
        -11    1    4    4    0    0 -0.25147434301E-02 -0.40227902321E-02 -0.15112056320E-01  0.15847464875E-01  0.51100000000E-03 0.  1.
         11    1    4    4    0    0 -0.44500040741E-01  0.20191553315E-01 -0.10218233948E+00  0.11326713589E+00  0.51100000000E-03 0. -1.
</event>
<event>
 8    1  0.1115874E+005  0.1043930E+01  0.7957747E-01            NaN
         13   -1    0    0    0    0  0.00000000000E+00  0.00000000000E+00  0.74505805969E-08  0.10566000000E+00  0.10566000000E+00 0. -1.
     999900   -1    0    0    0    0 -0.00000000000E+00 -0.00000000000E+00 -0.74505805969E-08  0.93827000000E+00  0.93827000000E+00 0. -1.
     999902    2    1    2    0    0  0.23086913078E-01  0.29684529557E-02 -0.14071760599E-01  0.10167301523E+01  0.10163662582E+01 0.  0.
     999903    2    3    3    0    0  0.98130378642E-01 -0.42889588257E-01 -0.71945380119E-01  0.13045489173E+00  0.19319758338E-01 0.  0.
         14    1    1    2    0    0 -0.23086913078E-01 -0.29684529557E-02  0.14071760599E-01  0.27199847697E-01  0.00000000000E+00 0. -1.
     999901    1    3    3    0    0 -0.75043465565E-01  0.45858041213E-01  0.57873619520E-01  0.88627526057E+00  0.88000000000E+00 0.  1.
        -11    1    4    4    0    0  0.73312394739E-01 -0.40147010844E-01 -0.51493984384E-01  0.98175257834E-01  0.51100000000E-03 0.  1.
         11    1    4    4    0    0  0.24817983903E-01 -0.27425774138E-02 -0.20451395735E-01  0.32279633895E-01  0.51100000000E-03 0. -1.
</event>
<event>
 8    1  0.1115874E+005  0.1043930E+01  0.7957747E-01            NaN
         13   -1    0    0    0    0  0.00000000000E+00  0.00000000000E+00  0.74505805969E-08  0.10566000000E+00  0.10566000000E+00 0.  1.
     999900   -1    0    0    0    0 -0.00000000000E+00 -0.00000000000E+00 -0.74505805969E-08  0.93827000000E+00  0.93827000000E+00 0.  1.
     999902    2    1    2    0    0  0.40104964282E-02 -0.10704614335E-01 -0.20356171505E-01  0.10205837676E+01  0.10203167058E+01 0.  0.
     999903    2    3    3    0    0  0.12732872349E+00 -0.28211577594E-01 -0.30988622620E-02  0.13164524687E+00  0.17674024469E-01 0.  0.
         14    1    1    2    0    0 -0.40104964282E-02  0.10704614335E-01  0.20356171505E-01  0.23346232415E-01  0.00000000000E+00 0.  1.
     999901    1    3    3    0    0 -0.12331822706E+00  0.17506963259E-01 -0.17257309243E-01  0.88893852071E+00  0.88000000000E+00 0.  1.
        -11    1    4    4    0    0  0.40563402010E-01 -0.15294111777E-02 -0.46065472146E-02  0.40855967489E-01  0.51100000000E-03 0. -1.
         11    1    4    4    0    0  0.86765321477E-01 -0.26682166416E-01  0.15076849526E-02  0.90789279382E-01  0.51100000000E-03 0.  1.
</event>
<event>
 8    1  0.1115874E+005  0.1043930E+01  0.7957747E-01            NaN
         13   -1    0    0    0    0  0.00000000000E+00  0.00000000000E+00  0.74505805969E-08  0.10566000000E+00  0.10566000000E+00 0.  1.
     999900   -1    0    0    0    0 -0.00000000000E+00 -0.00000000000E+00 -0.74505805969E-08  0.93827000000E+00  0.93827000000E+00 0.  1.
     999902    2    1    2    0    0  0.10497111537E-01 -0.17894267011E-01 -0.93813315572E-02  0.10211615235E+01  0.10209076616E+01 0.  0.
     999903    2    3    3    0    0  0.72652743197E-01  0.33876186956E-01  0.10109566382E+00  0.13057257845E+00  0.20071070299E-01 0.  0.
         14    1    1    2    0    0 -0.10497111537E-01  0.17894267011E-01  0.93813315572E-02  0.22768476547E-01  0.00000000000E+00 0.  1.
     999901    1    3    3    0    0 -0.62155631660E-01 -0.51770453967E-01 -0.11047699538E+00  0.89058894500E+00  0.88000000000E+00 0.  1.
        -11    1    4    4    0    0  0.27878847227E-01  0.11643131415E-01  0.54057779176E-01  0.61929776702E-01  0.51100000000E-03 0.  1.
         11    1    4    4    0    0  0.44773895970E-01  0.22233055541E-01  0.47037884646E-01  0.68642801749E-01  0.51100000000E-03 0. -1.
</event>
<event>
 8    1  0.1115874E+005  0.1043930E+01  0.7957747E-01            NaN
         13   -1    0    0    0    0  0.00000000000E+00  0.00000000000E+00  0.74505805969E-08  0.10566000000E+00  0.10566000000E+00 0. -1.
     999900   -1    0    0    0    0 -0.00000000000E+00 -0.00000000000E+00 -0.74505805969E-08  0.93827000000E+00  0.93827000000E+00 0. -1.
     999902    2    1    2    0    0 -0.13948243364E-01 -0.34434868611E-02  0.18489567814E-01  0.10205147227E+01  0.10202460605E+01 0.  0.
     999903    2    3    3    0    0  0.64299152826E-01 -0.98634267647E-01  0.54375829533E-01  0.13120501085E+00  0.19872700501E-01 0.  0.
         14    1    1    2    0    0  0.13948243364E-01  0.34434868611E-02 -0.18489567814E-01  0.23415277334E-01  0.00000000000E+00 0.  1.
     999901    1    3    3    0    0 -0.78247396189E-01  0.95190780786E-01 -0.35886261719E-01  0.88930971182E+00  0.88000000000E+00 0.  1.
        -11    1    4    4    0    0  0.44045554836E-01 -0.75748668416E-01  0.31840888028E-01  0.93230761764E-01  0.51100000000E-03 0. -1.
         11    1    4    4    0    0  0.20253597990E-01 -0.22885599231E-01  0.22534941505E-01  0.37974249082E-01  0.51100000000E-03 0.  1.
</event>
<event>
 8    1  0.1115874E+005  0.1043930E+01  0.7957747E-01            NaN
         13   -1    0    0    0    0  0.00000000000E+00  0.00000000000E+00  0.74505805969E-08  0.10566000000E+00  0.10566000000E+00 0.  1.
     999900   -1    0    0    0    0 -0.00000000000E+00 -0.00000000000E+00 -0.74505805969E-08  0.93827000000E+00  0.93827000000E+00 0. -1.
     999902    2    1    2    0    0 -0.72961397664E-03  0.15081921325E-01 -0.17623920179E-01  0.10207222588E+01  0.10204583923E+01 0.  0.
     999903    2    3    3    0    0  0.41267002146E-01 -0.24852992487E-02 -0.12506694738E+00  0.13301942168E+00  0.18527898921E-01 0.  0.
         14    1    1    2    0    0  0.72961397664E-03 -0.15081921325E-01  0.17623920179E-01  0.23207741163E-01  0.00000000000E+00 0.  1.
     999901    1    3    3    0    0 -0.41996616123E-01  0.17567220573E-01  0.10744302720E+00  0.88770283716E+00  0.88000000000E+00 0.  1.
        -11    1    4    4    0    0  0.24121314413E-02  0.49040871252E-02 -0.20473508112E-01  0.21196558778E-01  0.51100000000E-03 0. -1.
         11    1    4    4    0    0  0.38854870705E-01 -0.73893863739E-02 -0.10459343927E+00  0.11182286290E+00  0.51100000000E-03 0.  1.
</event>
<event>
 8    1  0.1115874E+005  0.1043930E+01  0.7957747E-01            NaN
         13   -1    0    0    0    0  0.00000000000E+00  0.00000000000E+00  0.74505805969E-08  0.10566000000E+00  0.10566000000E+00 0. -1.
     999900   -1    0    0    0    0 -0.00000000000E+00 -0.00000000000E+00 -0.74505805969E-08  0.93827000000E+00  0.93827000000E+00 0.  1.
     999902    2    1    2    0    0  0.21354667966E-01  0.83696043727E-02 -0.58511808357E-02  0.10202591648E+01  0.10199845366E+01 0.  0.
     999903    2    3    3    0    0  0.22502561563E-03 -0.12799331948E+00 -0.75233352220E-03  0.12949134600E+00  0.19624021379E-01 0.  0.
         14    1    1    2    0    0 -0.21354667966E-01 -0.83696043727E-02  0.58511808357E-02  0.23670835188E-01  0.00000000000E+00 0.  1.
     999901    1    3    3    0    0  0.21129642351E-01  0.13636292385E+00 -0.50988473135E-02  0.89076781881E+00  0.88000000000E+00 0.  1.
        -11    1    4    4    0    0  0.58973641437E-02 -0.45520924140E-01 -0.76419399973E-02  0.46535941017E-01  0.51100000000E-03 0. -1.
         11    1    4    4    0    0 -0.56723385281E-02 -0.82472395340E-01  0.68896064751E-02  0.82955404983E-01  0.51100000000E-03 0.  1.
</event>
<event>
 8    1  0.1115874E+005  0.1043930E+01  0.7957747E-01            NaN
         13   -1    0    0    0    0  0.00000000000E+00  0.00000000000E+00  0.74505805969E-08  0.10566000000E+00  0.10566000000E+00 0. -1.
     999900   -1    0    0    0    0 -0.00000000000E+00 -0.00000000000E+00 -0.74505805969E-08  0.93827000000E+00  0.93827000000E+00 0. -1.
     999902    2    1    2    0    0  0.20730553767E-01  0.18956345226E-03 -0.10924561345E-01  0.10204963098E+01  0.10202272201E+01 0.  0.
     999903    2    3    3    0    0 -0.60924460367E-01  0.10598496848E+00 -0.39387201816E-01  0.12995134693E+00  0.19783768284E-01 0.  0.
         14    1    1    2    0    0 -0.20730553767E-01 -0.18956345226E-03  0.10924561345E-01  0.23433690157E-01  0.00000000000E+00 0.  1.
     999901    1    3    3    0    0  0.81655014134E-01 -0.10579540503E+00  0.28462640471E-01  0.89054496291E+00  0.88000000000E+00 0.  1.
        -11    1    4    4    0    0 -0.35885855105E-01  0.53070530219E-01 -0.29690322183E-01  0.70611982883E-01  0.51100000000E-03 0. -1.
         11    1    4    4    0    0 -0.25038605262E-01  0.52914438266E-01 -0.96968796330E-02  0.59339364052E-01  0.51100000000E-03 0.  1.
</event>
<event>
 8    1  0.1115874E+005  0.1043930E+01  0.7957747E-01            NaN
         13   -1    0    0    0    0  0.00000000000E+00  0.00000000000E+00  0.74505805969E-08  0.10566000000E+00  0.10566000000E+00 0. -1.
     999900   -1    0    0    0    0 -0.00000000000E+00 -0.00000000000E+00 -0.74505805969E-08  0.93827000000E+00  0.93827000000E+00 0.  1.
     999902    2    1    2    0    0  0.34390377390E-02  0.16699904332E-01  0.16802643900E-01  0.10199916912E+01  0.10197107470E+01 0.  0.
     999903    2    3    3    0    0 -0.58635489942E-01 -0.10793663802E+00 -0.29184621859E-01  0.12785810073E+00  0.20186957699E-01 0.  0.
         14    1    1    2    0    0 -0.34390377390E-02 -0.16699904332E-01 -0.16802643900E-01  0.23938308781E-01  0.00000000000E+00 0.  1.
     999901    1    3    3    0    0  0.62074527681E-01  0.12463654235E+00  0.45987265759E-01  0.89213359049E+00  0.88000000000E+00 0.  1.
        -11    1    4    4    0    0 -0.33986337537E-01 -0.56100383025E-01 -0.57077754324E-02  0.65841961819E-01  0.51100000000E-03 0.  1.
         11    1    4    4    0    0 -0.24649152404E-01 -0.51836254991E-01 -0.23476846427E-01  0.62016138907E-01  0.51100000000E-03 0. -1.
</event>
<event>
 8    1  0.1115874E+005  0.1043930E+01  0.7957747E-01            NaN
         13   -1    0    0    0    0  0.00000000000E+00  0.00000000000E+00  0.74505805969E-08  0.10566000000E+00  0.10566000000E+00 0.  1.
     999900   -1    0    0    0    0 -0.00000000000E+00 -0.00000000000E+00 -0.74505805969E-08  0.93827000000E+00  0.93827000000E+00 0. -1.
     999902    2    1    2    0    0 -0.20953284701E-01  0.35049483353E-02  0.99573167084E-02  0.10204678399E+01  0.10201980882E+01 0.  0.
     999903    2    3    3    0    0 -0.36981958979E-01  0.12032281843E+00  0.32850814314E-01  0.13230825656E+00  0.24105037371E-01 0.  0.
         14    1    1    2    0    0  0.20953284701E-01 -0.35049483353E-02 -0.99573167084E-02  0.23462160144E-01  0.00000000000E+00 0. -1.
     999901    1    3    3    0    0  0.16028674277E-01 -0.11681787010E+00 -0.22893497605E-01  0.88815958330E+00  0.88000000000E+00 0. -1.
        -11    1    4    4    0    0 -0.14880627280E-02  0.43331447324E-01  0.98933098653E-02  0.44474344953E-01  0.51100000000E-03 0. -1.
         11    1    4    4    0    0 -0.35493896251E-01  0.76991371108E-01  0.22957504449E-01  0.87833911604E-01  0.51100000000E-03 0.  1.
</event>
<event>
 8    1  0.1115874E+005  0.1043930E+01  0.7957747E-01            NaN
         13   -1    0    0    0    0  0.00000000000E+00  0.00000000000E+00  0.74505805969E-08  0.10566000000E+00  0.10566000000E+00 0.  1.
     999900   -1    0    0    0    0 -0.00000000000E+00 -0.00000000000E+00 -0.74505805969E-08  0.93827000000E+00  0.93827000000E+00 0. -1.
     999902    2    1    2    0    0 -0.24514515321E-01 -0.60412902261E-02  0.42725539397E-03  0.10186784417E+01  0.10183654189E+01 0.  0.
     999903    2    3    3    0    0 -0.95877099265E-02 -0.11444541102E+00  0.57864402598E-01  0.13004280839E+00  0.19317521594E-01 0.  0.
         14    1    1    2    0    0  0.24514515321E-01  0.60412902261E-02 -0.42725539397E-03  0.25251558292E-01  0.00000000000E+00 0. -1.
     999901    1    3    3    0    0 -0.14926805394E-01  0.10840412079E+00 -0.57437147204E-01  0.88863563332E+00  0.88000000000E+00 0. -1.
        -11    1    4    4    0    0  0.11986206396E-02 -0.76029486803E-01  0.32067634858E-01  0.82525837659E-01  0.51100000000E-03 0.  1.
         11    1    4    4    0    0 -0.10786330566E-01 -0.38415924218E-01  0.25796767740E-01  0.47516970731E-01  0.51100000000E-03 0. -1.
</event>
<event>
 8    1  0.1115874E+005  0.1043930E+01  0.7957747E-01            NaN
         13   -1    0    0    0    0  0.00000000000E+00  0.00000000000E+00  0.74505805969E-08  0.10566000000E+00  0.10566000000E+00 0. -1.
     999900   -1    0    0    0    0 -0.00000000000E+00 -0.00000000000E+00 -0.74505805969E-08  0.93827000000E+00  0.93827000000E+00 0.  1.
     999902    2    1    2    0    0 -0.14807228069E-01  0.17813885698E-01 -0.64212511018E-02  0.10198920926E+01  0.10196087777E+01 0.  0.
     999903    2    3    3    0    0  0.64092982520E-01  0.96686208103E-01  0.56697342777E-01  0.13060583757E+00  0.19676455091E-01 0.  0.
         14    1    1    2    0    0  0.14807228069E-01 -0.17813885698E-01  0.64212511018E-02  0.24037907406E-01  0.00000000000E+00 0.  1.
     999901    1    3    3    0    0 -0.78900210589E-01 -0.78872322405E-01 -0.63118593879E-01  0.88928625502E+00  0.88000000000E+00 0.  1.
        -11    1    4    4    0    0  0.30287498009E-01  0.38049328498E-01  0.33497885765E-01  0.59054664562E-01  0.51100000000E-03 0. -1.
         11    1    4    4    0    0  0.33805484511E-01  0.58636879605E-01  0.23199457012E-01  0.71551173013E-01  0.51100000000E-03 0.  1.
</event>
<event>
 8    1  0.1115874E+005  0.1043930E+01  0.7957747E-01            NaN
         13   -1    0    0    0    0  0.00000000000E+00  0.00000000000E+00  0.74505805969E-08  0.10566000000E+00  0.10566000000E+00 0. -1.
     999900   -1    0    0    0    0 -0.00000000000E+00 -0.00000000000E+00 -0.74505805969E-08  0.93827000000E+00  0.93827000000E+00 0.  1.
     999902    2    1    2    0    0  0.15633049261E-01 -0.17458038664E-01  0.63490611909E-02  0.10196506688E+01  0.10193615652E+01 0.  0.
     999903    2    3    3    0    0  0.98062847716E-01 -0.78799085429E-01  0.38505795041E-01  0.13308907977E+00  0.20109424070E-01 0.  0.
         14    1    1    2    0    0 -0.15633049261E-01  0.17458038664E-01 -0.63490611909E-02  0.24279331152E-01  0.00000000000E+00 0.  1.
     999901    1    3    3    0    0 -0.82429798456E-01  0.61341046765E-01 -0.32156733851E-01  0.88656158908E+00  0.88000000000E+00 0.  1.
        -11    1    4    4    0    0  0.80014669124E-01 -0.70543584718E-01  0.37969879629E-01  0.11322860725E+00  0.51100000000E-03 0. -1.
         11    1    4    4    0    0  0.18048178592E-01 -0.82555007105E-02  0.53591541268E-03  0.19860472522E-01  0.51100000000E-03 0.  1.
</event>
<event>
 8    1  0.1115874E+005  0.1043930E+01  0.7957747E-01            NaN
         13   -1    0    0    0    0  0.00000000000E+00  0.00000000000E+00  0.74505805969E-08  0.10566000000E+00  0.10566000000E+00 0.  1.
     999900   -1    0    0    0    0 -0.00000000000E+00 -0.00000000000E+00 -0.74505805969E-08  0.93827000000E+00  0.93827000000E+00 0. -1.
     999902    2    1    2    0    0 -0.17758620241E-01  0.15562164235E-01  0.15710059910E-02  0.10202653088E+01  0.10199908249E+01 0.  0.
     999903    2    3    3    0    0  0.37670838168E-01  0.11839706642E+00  0.39102560346E-01  0.13175191020E+00  0.19814091685E-01 0.  0.
         14    1    1    2    0    0  0.17758620241E-01 -0.15562164235E-01 -0.15710059910E-02  0.23664691174E-01  0.00000000000E+00 0. -1.
     999901    1    3    3    0    0 -0.55429458409E-01 -0.10283490219E+00 -0.37531554355E-01  0.88851339863E+00  0.88000000000E+00 0. -1.
        -11    1    4    4    0    0  0.21177643859E-01  0.53666871672E-01  0.86635018285E-02  0.58343320949E-01  0.51100000000E-03 0. -1.
         11    1    4    4    0    0  0.16493194309E-01  0.64730194752E-01  0.30439058517E-01  0.73408589250E-01  0.51100000000E-03 0.  1.
</event>
<event>
 8    1  0.1115874E+005  0.1043930E+01  0.7957747E-01            NaN
         13   -1    0    0    0    0  0.00000000000E+00  0.00000000000E+00  0.74505805969E-08  0.10566000000E+00  0.10566000000E+00 0. -1.
     999900   -1    0    0    0    0 -0.00000000000E+00 -0.00000000000E+00 -0.74505805969E-08  0.93827000000E+00  0.93827000000E+00 0.  1.
     999902    2    1    2    0    0 -0.94045071887E-02 -0.88706318541E-02  0.19369103459E-01  0.10206427710E+01  0.10203770729E+01 0.  0.
     999903    2    3    3    0    0 -0.98944060906E-01  0.53272499587E-01  0.67627619968E-01  0.13260674422E+00  0.19574657862E-01 0.  0.
         14    1    1    2    0    0  0.94045071887E-02  0.88706318541E-02 -0.19369103459E-01  0.23287228984E-01  0.00000000000E+00 0.  1.
     999901    1    3    3    0    0  0.89539553717E-01 -0.62143131441E-01 -0.48258516509E-01  0.88803602679E+00  0.88000000000E+00 0. -1.
        -11    1    4    4    0    0 -0.72976576696E-01  0.41491347165E-01  0.59680317162E-01  0.10300055346E+00  0.51100000000E-03 0. -1.
         11    1    4    4    0    0 -0.25967484210E-01  0.11781152423E-01  0.79473028059E-02  0.29606190762E-01  0.51100000000E-03 0.  1.
</event>
<event>
 8    1  0.1115874E+005  0.1043930E+01  0.7957747E-01            NaN
         13   -1    0    0    0    0  0.00000000000E+00  0.00000000000E+00  0.74505805969E-08  0.10566000000E+00  0.10566000000E+00 0.  1.
     999900   -1    0    0    0    0 -0.00000000000E+00 -0.00000000000E+00 -0.74505805969E-08  0.93827000000E+00  0.93827000000E+00 0.  1.
     999902    2    1    2    0    0  0.23592452464E-01  0.92681541940E-03  0.95999348971E-02  0.10184423255E+01  0.10181233466E+01 0.  0.
     999903    2    3    3    0    0  0.23477497765E-01  0.11884364788E+00  0.42318243692E-01  0.12997461068E+00  0.20677527146E-01 0.  0.
         14    1    1    2    0    0 -0.23592452464E-01 -0.92681541940E-03 -0.95999348971E-02  0.25487674474E-01  0.00000000000E+00 0. -1.
     999901    1    3    3    0    0  0.11495469902E-03 -0.11791683246E+00 -0.32718308795E-01  0.88846771485E+00  0.88000000000E+00 0.  1.
        -11    1    4    4    0    0  0.18147433413E-01  0.40875169157E-01  0.14431479993E-01  0.46996143767E-01  0.51100000000E-03 0. -1.
         11    1    4    4    0    0  0.53300643520E-02  0.77968478725E-01  0.27886763699E-01  0.82978466913E-01  0.51100000000E-03 0.  1.
</event>
<event>
 8    1  0.1115874E+005  0.1043930E+01  0.7957747E-01            NaN
         13   -1    0    0    0    0  0.00000000000E+00  0.00000000000E+00  0.74505805969E-08  0.10566000000E+00  0.10566000000E+00 0. -1.
     999900   -1    0    0    0    0 -0.00000000000E+00 -0.00000000000E+00 -0.74505805969E-08  0.93827000000E+00  0.93827000000E+00 0. -1.
     999902    2    1    2    0    0  0.95671579324E-02  0.14728299667E-01 -0.17292634424E-01  0.10192827176E+01  0.10189846760E+01 0.  0.
     999903    2    3    3    0    0 -0.30215030984E-01 -0.98541230985E-01 -0.75262506070E-01  0.12924164267E+00  0.20387130229E-01 0.  0.
         14    1    1    2    0    0 -0.95671579324E-02 -0.14728299667E-01  0.17292634424E-01  0.24647282351E-01  0.00000000000E+00 0. -1.
     999901    1    3    3    0    0  0.39782188916E-01  0.11326953065E+00  0.57969871646E-01  0.89004107498E+00  0.88000000000E+00 0.  1.
        -11    1    4    4    0    0 -0.22791035930E-01 -0.49783582931E-01 -0.30723580858E-01  0.62785635220E-01  0.51100000000E-03 0.  1.
         11    1    4    4    0    0 -0.74239950537E-02 -0.48757648053E-01 -0.44538925212E-01  0.66456007451E-01  0.51100000000E-03 0. -1.
</event>
<event>
 8    1  0.1292321E+005  0.1043930E+01  0.7957747E-01            NaN
         13   -1    0    0    0    0  0.00000000000E+00  0.00000000000E+00  0.74505805969E-08  0.10566000000E+00  0.10566000000E+00 0. -1.
     999900   -1    0    0    0    0 -0.00000000000E+00 -0.00000000000E+00 -0.74505805969E-08  0.93827000000E+00  0.93827000000E+00 0.  1.
     999902    2    1    2    0    0  0.13587255823E-01 -0.49566770124E-02 -0.16451094245E-01  0.10220251907E+01  0.10217904236E+01 0.  0.
     999903    2    3    3    0    0  0.75567905426E-01 -0.99814022595E-01 -0.43165748383E-01  0.13435791652E+00  0.22702873414E-01 0.  0.
         14    1    1    2    0    0 -0.13587255823E-01  0.49566770124E-02  0.16451094245E-01  0.21904809282E-01  0.00000000000E+00 0. -1.
     999901    1    3    3    0    0 -0.61980649603E-01  0.94857345582E-01  0.26714654138E-01  0.88766727420E+00  0.88000000000E+00 0.  1.
        -11    1    4    4    0    0  0.50440671793E-01 -0.48505213252E-01 -0.26674993422E-01  0.74892145640E-01  0.51100000000E-03 0. -1.
         11    1    4    4    0    0  0.25127233634E-01 -0.51308809342E-01 -0.16490754961E-01  0.59465770880E-01  0.51100000000E-03 0.  1.
</event>
<event>
 8    1  0.1115874E+005  0.1043930E+01  0.7957747E-01            NaN
         13   -1    0    0    0    0  0.00000000000E+00  0.00000000000E+00  0.74505805969E-08  0.10566000000E+00  0.10566000000E+00 0.  1.
     999900   -1    0    0    0    0 -0.00000000000E+00 -0.00000000000E+00 -0.74505805969E-08  0.93827000000E+00  0.93827000000E+00 0.  1.
     999902    2    1    2    0    0 -0.28979789732E-02  0.97328678143E-02  0.24067054566E-01  0.10178081679E+01  0.10174729070E+01 0.  0.
     999903    2    3    3    0    0 -0.84587467592E-01  0.22885223429E-01  0.95460813549E-01  0.13104820834E+00  0.19547195744E-01 0.  0.
         14    1    1    2    0    0  0.28979789732E-02 -0.97328678143E-02 -0.24067054566E-01  0.26121832124E-01  0.00000000000E+00 0. -1.
     999901    1    3    3    0    0  0.81689488619E-01 -0.13152355615E-01 -0.71393758983E-01  0.88675995953E+00  0.88000000000E+00 0. -1.
        -11    1    4    4    0    0 -0.36790106399E-01  0.12619754908E-01  0.56185989924E-01  0.68336642641E-01  0.51100000000E-03 0.  1.
         11    1    4    4    0    0 -0.47797361193E-01  0.10265468521E-01  0.39274823626E-01  0.62711565702E-01  0.51100000000E-03 0. -1.
</event>
<event>
 8    1  0.1115874E+005  0.1043930E+01  0.7957747E-01            NaN
         13   -1    0    0    0    0  0.00000000000E+00  0.00000000000E+00  0.74505805969E-08  0.10566000000E+00  0.10566000000E+00 0.  1.
     999900   -1    0    0    0    0 -0.00000000000E+00 -0.00000000000E+00 -0.74505805969E-08  0.93827000000E+00  0.93827000000E+00 0.  1.
     999902    2    1    2    0    0  0.20063669309E-01  0.65401717470E-02 -0.73854292015E-02  0.10215722444E+01  0.10213275582E+01 0.  0.
     999903    2    3    3    0    0  0.92186798390E-01 -0.85066544957E-01 -0.39027627922E-01  0.13331847148E+00  0.22714229665E-01 0.  0.
         14    1    1    2    0    0 -0.20063669309E-01 -0.65401717470E-02  0.73854292015E-02  0.22357755637E-01  0.00000000000E+00 0. -1.
     999901    1    3    3    0    0 -0.72123129081E-01  0.91606716704E-01  0.31642198721E-01  0.88825377288E+00  0.88000000000E+00 0. -1.
        -11    1    4    4    0    0  0.83883762622E-01 -0.69323655395E-01 -0.27975674522E-01  0.11236171196E+00  0.51100000000E-03 0. -1.
         11    1    4    4    0    0  0.83030357677E-02 -0.15742889562E-01 -0.11051953400E-01  0.20956759522E-01  0.51100000000E-03 0.  1.
</event>
<event>
 8    1  0.1115874E+005  0.1043930E+01  0.7957747E-01            NaN
         13   -1    0    0    0    0  0.00000000000E+00  0.00000000000E+00  0.74505805969E-08  0.10566000000E+00  0.10566000000E+00 0. -1.
     999900   -1    0    0    0    0 -0.00000000000E+00 -0.00000000000E+00 -0.74505805969E-08  0.93827000000E+00  0.93827000000E+00 0.  1.
     999902    2    1    2    0    0  0.17232573622E-01  0.16082682744E-01 -0.46635670369E-02  0.10199016181E+01  0.10196185304E+01 0.  0.
     999903    2    3    3    0    0  0.12303943585E+00  0.64565083912E-02  0.42954728857E-01  0.13223317922E+00  0.21450307233E-01 0.  0.
         14    1    1    2    0    0 -0.17232573622E-01 -0.16082682744E-01  0.46635670369E-02  0.24028381872E-01  0.00000000000E+00 0.  1.
     999901    1    3    3    0    0 -0.10580686223E+00  0.96261743529E-02 -0.47618295894E-01  0.88766843891E+00  0.88000000000E+00 0.  1.
        -11    1    4    4    0    0  0.24211847769E-01  0.98661313185E-02  0.79251302817E-02  0.27324401742E-01  0.51100000000E-03 0.  1.
         11    1    4    4    0    0  0.98827588082E-01 -0.34096229273E-02  0.35029598576E-01  0.10490877748E+00  0.51100000000E-03 0. -1.
</event>
<event>
 8    1  0.1115874E+005  0.1043930E+01  0.7957747E-01            NaN
         13   -1    0    0    0    0  0.00000000000E+00  0.00000000000E+00  0.74505805969E-08  0.10566000000E+00  0.10566000000E+00 0.  1.
     999900   -1    0    0    0    0 -0.00000000000E+00 -0.00000000000E+00 -0.74505805969E-08  0.93827000000E+00  0.93827000000E+00 0.  1.
     999902    2    1    2    0    0  0.23502508028E-01  0.26736622433E-02 -0.27457721524E-02  0.10201170704E+01  0.10198390959E+01 0.  0.
     999903    2    3    3    0    0  0.12056184147E+00 -0.49087195086E-01  0.21925478292E-01  0.13292578819E+00  0.15615000053E-01 0.  0.
         14    1    1    2    0    0 -0.23502508028E-01 -0.26736622433E-02  0.27457721524E-02  0.23812929641E-01  0.00000000000E+00 0.  1.
     999901    1    3    3    0    0 -0.97059333444E-01  0.51760857330E-01 -0.24671250444E-01  0.88719128217E+00  0.88000000000E+00 0.  1.
        -11    1    4    4    0    0  0.64444070915E-01 -0.33957684087E-01  0.15201332688E-01  0.74414408693E-01  0.51100000000E-03 0. -1.
         11    1    4    4    0    0  0.56117770557E-01 -0.15129511000E-01  0.67241456037E-02  0.58511379496E-01  0.51100000000E-03 0.  1.
</event>
<event>
 8    1  0.1115874E+005  0.1043930E+01  0.7957747E-01            NaN
         13   -1    0    0    0    0  0.00000000000E+00  0.00000000000E+00  0.74505805969E-08  0.10566000000E+00  0.10566000000E+00 0.  1.
     999900   -1    0    0    0    0 -0.00000000000E+00 -0.00000000000E+00 -0.74505805969E-08  0.93827000000E+00  0.93827000000E+00 0.  1.
     999902    2    1    2    0    0 -0.19294726218E-01  0.12455997633E-01 -0.62838527369E-02  0.10201198101E+01  0.10198419004E+01 0.  0.
     999903    2    3    3    0    0 -0.91866508576E-01 -0.91267392316E-01 -0.50595592218E-02  0.13106036098E+00  0.19545505413E-01 0.  0.
         14    1    1    2    0    0  0.19294726218E-01 -0.12455997633E-01  0.62838527369E-02  0.23810189879E-01  0.00000000000E+00 0.  1.
     999901    1    3    3    0    0  0.72571782359E-01  0.10372338995E+00 -0.12242935151E-02  0.88905944914E+00  0.88000000000E+00 0. -1.
        -11    1    4    4    0    0 -0.46712409086E-01 -0.37765042671E-01 -0.99009715882E-02  0.60881343365E-01  0.51100000000E-03 0.  1.
         11    1    4    4    0    0 -0.45154099490E-01 -0.53502349645E-01  0.48414123664E-02  0.70179017612E-01  0.51100000000E-03 0. -1.
</event>
<event>
 8    1  0.1115874E+005  0.1043930E+01  0.7957747E-01            NaN
         13   -1    0    0    0    0  0.00000000000E+00  0.00000000000E+00  0.74505805969E-08  0.10566000000E+00  0.10566000000E+00 0. -1.
     999900   -1    0    0    0    0 -0.00000000000E+00 -0.00000000000E+00 -0.74505805969E-08  0.93827000000E+00  0.93827000000E+00 0. -1.
     999902    2    1    2    0    0  0.14139507108E-01  0.76825708748E-02  0.17644823822E-01  0.10200493098E+01  0.10197697324E+01 0.  0.
     999903    2    3    3    0    0 -0.67747834052E-01  0.57878566908E-01 -0.90576574413E-01  0.12823259899E+00  0.17314331755E-01 0.  0.
         14    1    1    2    0    0 -0.14139507108E-01 -0.76825708748E-02 -0.17644823822E-01  0.23880690195E-01  0.00000000000E+00 0.  1.
     999901    1    3    3    0    0  0.81887341161E-01 -0.50195996033E-01  0.10822139823E+00  0.89181671082E+00  0.88000000000E+00 0.  1.
        -11    1    4    4    0    0 -0.36273841202E-01  0.38565335999E-01 -0.62037779161E-01  0.81559940293E-01  0.51100000000E-03 0. -1.
         11    1    4    4    0    0 -0.31473992850E-01  0.19313230909E-01 -0.28538795252E-01  0.46672658693E-01  0.51100000000E-03 0.  1.
</event>
<event>
 8    1  0.1115874E+005  0.1043930E+01  0.7957747E-01            NaN
         13   -1    0    0    0    0  0.00000000000E+00  0.00000000000E+00  0.74505805969E-08  0.10566000000E+00  0.10566000000E+00 0. -1.
     999900   -1    0    0    0    0 -0.00000000000E+00 -0.00000000000E+00 -0.74505805969E-08  0.93827000000E+00  0.93827000000E+00 0.  1.
     999902    2    1    2    0    0 -0.15586183856E-01  0.12896832231E-01  0.11103243649E-01  0.10208531842E+01  0.10205923203E+01 0.  0.
     999903    2    3    3    0    0 -0.67812755907E-01 -0.24928621837E-01  0.10992646072E+00  0.13297683691E+00  0.19468085137E-01 0.  0.
         14    1    1    2    0    0  0.15586183856E-01 -0.12896832231E-01 -0.11103243649E-01  0.23076815818E-01  0.00000000000E+00 0.  1.
     999901    1    3    3    0    0  0.52226572051E-01  0.37825454068E-01 -0.98823217072E-01  0.88787634727E+00  0.88000000000E+00 0.  1.
        -11    1    4    4    0    0 -0.57064806576E-01 -0.13688103341E-01  0.93148762858E-01  0.11009409369E+00  0.51100000000E-03 0.  1.
         11    1    4    4    0    0 -0.10747949331E-01 -0.11240518496E-01  0.16777697862E-01  0.22882743224E-01  0.51100000000E-03 0. -1.
</event>
<event>
 8    1  0.1115874E+005  0.1043930E+01  0.7957747E-01            NaN
         13   -1    0    0    0    0  0.00000000000E+00  0.00000000000E+00  0.74505805969E-08  0.10566000000E+00  0.10566000000E+00 0. -1.
     999900   -1    0    0    0    0 -0.00000000000E+00 -0.00000000000E+00 -0.74505805969E-08  0.93827000000E+00  0.93827000000E+00 0. -1.
     999902    2    1    2    0    0 -0.15305775244E-01  0.65367157170E-02 -0.17701016101E-01  0.10196334698E+01  0.10193439515E+01 0.  0.
     999903    2    3    3    0    0  0.75991138932E-01 -0.45524699604E-01  0.88863458862E-01  0.12699608272E+00  0.19599470299E-01 0.  0.
         14    1    1    2    0    0  0.15305775244E-01 -0.65367157170E-02  0.17701016101E-01  0.24296530188E-01  0.00000000000E+00 0.  1.
     999901    1    3    3    0    0 -0.91296914176E-01  0.52061415321E-01 -0.10656447496E+00  0.89263738709E+00  0.88000000000E+00 0.  1.
        -11    1    4    4    0    0  0.42640660020E-01 -0.14711371479E-01  0.39993836434E-01  0.60286137805E-01  0.51100000000E-03 0.  1.
         11    1    4    4    0    0  0.33350478912E-01 -0.30813328125E-01  0.48869622428E-01  0.66709944919E-01  0.51100000000E-03 0. -1.
</event>
<event>
 8    1  0.1115874E+005  0.1043930E+01  0.7957747E-01            NaN
         13   -1    0    0    0    0  0.00000000000E+00  0.00000000000E+00  0.74505805969E-08  0.10566000000E+00  0.10566000000E+00 0. -1.
     999900   -1    0    0    0    0 -0.00000000000E+00 -0.00000000000E+00 -0.74505805969E-08  0.93827000000E+00  0.93827000000E+00 0.  1.
     999902    2    1    2    0    0  0.35767968380E-02 -0.23038023431E-01  0.53252091912E-02  0.10200155305E+01  0.10197351522E+01 0.  0.
     999903    2    3    3    0    0 -0.34410797499E-02 -0.40202096891E-01 -0.12244342918E+00  0.13059511192E+00  0.20848028271E-01 0.  0.
         14    1    1    2    0    0 -0.35767968380E-02  0.23038023431E-01 -0.53252091912E-02  0.23914469514E-01  0.00000000000E+00 0. -1.
     999901    1    3    3    0    0  0.70178765879E-02  0.17164073461E-01  0.12776863838E+00  0.88942041857E+00  0.88000000000E+00 0. -1.
        -11    1    4    4    0    0 -0.68062224598E-04 -0.28351520008E-01 -0.10771904311E+00  0.11138880863E+00  0.51100000000E-03 0.  1.
         11    1    4    4    0    0 -0.33730175253E-02 -0.11850576883E-01 -0.14724386075E-01  0.19206303287E-01  0.51100000000E-03 0. -1.
</event>
<event>
 8    1  0.1115874E+005  0.1043930E+01  0.7957747E-01            NaN
         13   -1    0    0    0    0  0.00000000000E+00  0.00000000000E+00  0.74505805969E-08  0.10566000000E+00  0.10566000000E+00 0.  1.
     999900   -1    0    0    0    0 -0.00000000000E+00 -0.00000000000E+00 -0.74505805969E-08  0.93827000000E+00  0.93827000000E+00 0. -1.
     999902    2    1    2    0    0 -0.23521325258E-01  0.17625120860E-02  0.28683998956E-02  0.10201689624E+01  0.10198922124E+01 0.  0.
     999903    2    3    3    0    0 -0.77510277388E-01 -0.10502396274E+00 -0.38911069454E-02  0.13204518211E+00  0.19568177065E-01 0.  0.
         14    1    1    2    0    0  0.23521325258E-01 -0.17625120860E-02 -0.28683998956E-02  0.23761037618E-01  0.00000000000E+00 0.  1.
     999901    1    3    3    0    0  0.53988952130E-01  0.10678647483E+00  0.67595068410E-02  0.88812378028E+00  0.88000000000E+00 0.  1.
        -11    1    4    4    0    0 -0.13718880499E-01 -0.32063423908E-01 -0.41772872154E-02  0.35128075443E-01  0.51100000000E-03 0. -1.
         11    1    4    4    0    0 -0.63791396889E-01 -0.72960538833E-01  0.28618027000E-03  0.96917106663E-01  0.51100000000E-03 0.  1.
</event>
<event>
 7    1  0.1115874E+005  0.1043930E+01  0.7957747E-01            NaN
         13   -1    0    0    0    0  0.00000000000E+00  0.00000000000E+00  0.74505805969E-08  0.10566000000E+00  0.10566000000E+00 0. -1.
     999900   -1    0    0    0    0 -0.00000000000E+00 -0.00000000000E+00 -0.74505805969E-08  0.93827000000E+00  0.93827000000E+00 0. -1.
     999903    2    1    2    0    0  0.17045257784E-01 -0.55422671787E-01 -0.89909006577E-01  0.10882944921E+00  0.19950092514E-01 0.  0.
         14    1    1    2    0    0  0.28848343513E-01 -0.23891662623E-01 -0.21766588320E-01  0.43322313344E-01  0.00000000000E+00 0.  1.
     999901    1    1    2    0    0 -0.45893601296E-01  0.79314334410E-01  0.11167559490E+00  0.89177823744E+00  0.88000000000E+00 0.  1.
        -11    1    3    3    0    0  0.15377920775E-01 -0.54404312928E-01 -0.75728985167E-01  0.94506349141E-01  0.51100000000E-03 0. -1.
         11    1    3    3    0    0  0.16673370088E-02 -0.10183588586E-02 -0.14180021410E-01  0.14323100072E-01  0.51100000000E-03 0.  1.
</event>
<event>
 7    1  0.1115874E+005  0.1043930E+01  0.7957747E-01            NaN
         13   -1    0    0    0    0  0.00000000000E+00  0.00000000000E+00  0.74505805969E-08  0.10566000000E+00  0.10566000000E+00 0. -1.
     999900   -1    0    0    0    0 -0.00000000000E+00 -0.00000000000E+00 -0.74505805969E-08  0.93827000000E+00  0.93827000000E+00 0.  1.
     999903    2    1    2    0    0 -0.65314690155E-01  0.56240726541E-01 -0.30870899822E-02  0.87796146307E-01  0.16419656205E-01 0.  0.
         14    1    1    2    0    0  0.70961496163E-01 -0.25630767509E-01 -0.40098433359E-02  0.75554940436E-01  0.00000000000E+00 0.  1.
     999901    1    1    2    0    0 -0.56468060074E-02 -0.30609959032E-01  0.70969333181E-02  0.88057891326E+00  0.88000000000E+00 0.  1.
        -11    1    3    3    0    0 -0.32049717164E-01  0.31073186177E-01  0.61647017747E-02  0.45066527917E-01  0.51100000000E-03 0.  1.
         11    1    3    3    0    0 -0.33264972991E-01  0.25167540363E-01 -0.92517917568E-02  0.42729618390E-01  0.51100000000E-03 0. -1.
</event>
<event>
 8    1  0.1115874E+005  0.1043930E+01  0.7957747E-01            NaN
         13   -1    0    0    0    0  0.00000000000E+00  0.00000000000E+00  0.74505805969E-08  0.10566000000E+00  0.10566000000E+00 0.  1.
     999900   -1    0    0    0    0 -0.00000000000E+00 -0.00000000000E+00 -0.74505805969E-08  0.93827000000E+00  0.93827000000E+00 0.  1.
     999902    2    1    2    0    0 -0.12548972717E-01  0.89670060332E-03 -0.20344455778E-01  0.10200097644E+01  0.10197292493E+01 0.  0.
     999903    2    3    3    0    0  0.72194841752E-02 -0.86665337527E-02 -0.13109362313E+00  0.13279635978E+00  0.17947294727E-01 0.  0.
         14    1    1    2    0    0  0.12548972717E-01 -0.89670060332E-03  0.20344455778E-01  0.23920235557E-01  0.00000000000E+00 0.  1.
     999901    1    3    3    0    0 -0.19768456893E-01  0.95632343560E-02  0.11074916735E+00  0.88721340466E+00  0.88000000000E+00 0. -1.
        -11    1    4    4    0    0  0.26076106409E-02  0.35302650960E-02 -0.77908329118E-01  0.78033526589E-01  0.51100000000E-03 0. -1.
         11    1    4    4    0    0  0.46118735343E-02 -0.12196798849E-01 -0.53185294009E-01  0.54762833194E-01  0.51100000000E-03 0.  1.
</event>
<event>
 8    1  0.1115874E+005  0.1043930E+01  0.7957747E-01            NaN
         13   -1    0    0    0    0  0.00000000000E+00  0.00000000000E+00  0.74505805969E-08  0.10566000000E+00  0.10566000000E+00 0.  1.
     999900   -1    0    0    0    0 -0.00000000000E+00 -0.00000000000E+00 -0.74505805969E-08  0.93827000000E+00  0.93827000000E+00 0.  1.
     999902    2    1    2    0    0  0.21006763939E-01 -0.13203853227E-01 -0.91722077519E-03  0.10191012432E+01  0.10187987420E+01 0.  0.
     999903    2    3    3    0    0  0.12807875242E+00 -0.27497448500E-01 -0.36781039595E-02  0.13249178008E+00  0.19500431882E-01 0.  0.
         14    1    1    2    0    0 -0.21006763939E-01  0.13203853227E-01  0.91722077519E-03  0.24828756819E-01  0.00000000000E+00 0.  1.
     999901    1    3    3    0    0 -0.10707198849E+00  0.14293595274E-01  0.27608831843E-02  0.88660946310E+00  0.88000000000E+00 0.  1.
        -11    1    4    4    0    0  0.90179054805E-01 -0.15155215758E-01  0.54168722183E-02  0.91605382571E-01  0.51100000000E-03 0. -1.
         11    1    4    4    0    0  0.37899697619E-01 -0.12342232742E-01 -0.90949761778E-02  0.40886397510E-01  0.51100000000E-03 0.  1.
</event>
<event>
 8    1  0.1115874E+005  0.1043930E+01  0.7957747E-01            NaN
         13   -1    0    0    0    0  0.00000000000E+00  0.00000000000E+00  0.74505805969E-08  0.10566000000E+00  0.10566000000E+00 0.  1.
     999900   -1    0    0    0    0 -0.00000000000E+00 -0.00000000000E+00 -0.74505805969E-08  0.93827000000E+00  0.93827000000E+00 0. -1.
     999902    2    1    2    0    0 -0.10019566601E-02 -0.21234296863E-01  0.10599480024E-01  0.10201760896E+01  0.10198995076E+01 0.  0.
     999903    2    3    3    0    0 -0.31854591225E-01 -0.11885649357E+00 -0.44910901368E-01  0.13250307508E+00  0.19962334465E-01 0.  0.
         14    1    1    2    0    0  0.10019566601E-02  0.21234296863E-01 -0.10599480024E-01  0.23753910356E-01  0.00000000000E+00 0. -1.
     999901    1    3    3    0    0  0.30852634565E-01  0.97622196707E-01  0.55510381392E-01  0.88767301457E+00  0.88000000000E+00 0.  1.
        -11    1    4    4    0    0 -0.16114642975E-01 -0.79418144290E-01 -0.37896485986E-01  0.89461321988E-01  0.51100000000E-03 0.  1.
         11    1    4    4    0    0 -0.15739948250E-01 -0.39438349279E-01 -0.70144153817E-02  0.43041753089E-01  0.51100000000E-03 0. -1.
</event>
<event>
 8    1  0.1115874E+005  0.1043930E+01  0.7957747E-01            NaN
         13   -1    0    0    0    0  0.00000000000E+00  0.00000000000E+00  0.74505805969E-08  0.10566000000E+00  0.10566000000E+00 0.  1.
     999900   -1    0    0    0    0 -0.00000000000E+00 -0.00000000000E+00 -0.74505805969E-08  0.93827000000E+00  0.93827000000E+00 0. -1.
     999902    2    1    2    0    0 -0.21879325314E-01  0.50676606588E-02  0.88588747679E-02  0.10197873878E+01  0.10195015697E+01 0.  0.
     999903    2    3    3    0    0 -0.75850392608E-01  0.98057483665E-03 -0.10473701744E+00  0.13083654154E+00  0.19852309512E-01 0.  0.
         14    1    1    2    0    0  0.21879325314E-01 -0.50676606588E-02 -0.88588747679E-02  0.24142612180E-01  0.00000000000E+00 0. -1.
     999901    1    3    3    0    0  0.53971067294E-01  0.40870858221E-02  0.11359589221E+00  0.88895084628E+00  0.88000000000E+00 0.  1.
        -11    1    4    4    0    0 -0.71341301873E-01  0.29918784812E-02 -0.87711301659E-01  0.11310201700E+00  0.51100000000E-03 0.  1.
         11    1    4    4    0    0 -0.45090907344E-02 -0.20113036445E-02 -0.17025715785E-01  0.17734524539E-01  0.51100000000E-03 0. -1.
</event>
<event>
 8    1  0.1115874E+005  0.1043930E+01  0.7957747E-01            NaN
         13   -1    0    0    0    0  0.00000000000E+00  0.00000000000E+00  0.74505805969E-08  0.10566000000E+00  0.10566000000E+00 0. -1.
     999900   -1    0    0    0    0 -0.00000000000E+00 -0.00000000000E+00 -0.74505805969E-08  0.93827000000E+00  0.93827000000E+00 0. -1.
     999902    2    1    2    0    0 -0.12498318955E-01 -0.20278953996E-01  0.63841658396E-02  0.10192682579E+01  0.10189698621E+01 0.  0.
     999903    2    3    3    0    0 -0.29485846081E-01  0.11402903802E+00  0.46351605483E-01  0.12801935378E+00  0.19194972787E-01 0.  0.
         14    1    1    2    0    0  0.12498318955E-01  0.20278953996E-01 -0.63841658396E-02  0.24661742139E-01  0.00000000000E+00 0. -1.
     999901    1    3    3    0    0  0.16987527126E-01 -0.13430799201E+00 -0.39967439643E-01  0.89124890408E+00  0.88000000000E+00 0.  1.
        -11    1    4    4    0    0 -0.12257984796E-01  0.34860925559E-01  0.57787379415E-02  0.37405845203E-01  0.51100000000E-03 0.  1.
         11    1    4    4    0    0 -0.17227861285E-01  0.79168112460E-01  0.40572867541E-01  0.90613508576E-01  0.51100000000E-03 0. -1.
</event>
<event>
 8    1  0.1115874E+005  0.1043930E+01  0.7957747E-01            NaN
         13   -1    0    0    0    0  0.00000000000E+00  0.00000000000E+00  0.74505805969E-08  0.10566000000E+00  0.10566000000E+00 0. -1.
     999900   -1    0    0    0    0 -0.00000000000E+00 -0.00000000000E+00 -0.74505805969E-08  0.93827000000E+00  0.93827000000E+00 0. -1.
     999902    2    1    2    0    0  0.76603467157E-02 -0.20078766728E-01 -0.87031647076E-02  0.10207441668E+01  0.10204808039E+01 0.  0.
     999903    2    3    3    0    0  0.24322987229E-02 -0.11664691176E+00 -0.62628803828E-01  0.13380520967E+00  0.19210647225E-01 0.  0.
         14    1    1    2    0    0 -0.76603467157E-02  0.20078766728E-01  0.87031647076E-02  0.23185833197E-01  0.00000000000E+00 0. -1.
     999901    1    3    3    0    0  0.52280479928E-02  0.96568145031E-01  0.53925639121E-01  0.88693895713E+00  0.88000000000E+00 0.  1.
        -11    1    4    4    0    0  0.77737924308E-03 -0.71498816347E-01 -0.27643865932E-01  0.76662438665E-01  0.51100000000E-03 0. -1.
         11    1    4    4    0    0  0.16549194799E-02 -0.45148095412E-01 -0.34984937897E-01  0.57142771007E-01  0.51100000000E-03 0.  1.
</event>
<event>
 8    1  0.1115874E+005  0.1043930E+01  0.7957747E-01            NaN
         13   -1    0    0    0    0  0.00000000000E+00  0.00000000000E+00  0.74505805969E-08  0.10566000000E+00  0.10566000000E+00 0.  1.
     999900   -1    0    0    0    0 -0.00000000000E+00 -0.00000000000E+00 -0.74505805969E-08  0.93827000000E+00  0.93827000000E+00 0. -1.
     999902    2    1    2    0    0  0.13919572894E-01 -0.13033736285E-02 -0.23664074436E-01  0.10164447001E+01  0.10160730223E+01 0.  0.
     999903    2    3    3    0    0  0.89178555698E-02 -0.10523608230E+00  0.65499110505E-01  0.12583979405E+00  0.19782798695E-01 0.  0.
         14    1    1    2    0    0 -0.13919572894E-01  0.13033736285E-02  0.23664074436E-01  0.27485299912E-01  0.00000000000E+00 0.  1.
     999901    1    3    3    0    0  0.50017173244E-02  0.10393270867E+00 -0.89163184941E-01  0.89060490604E+00  0.88000000000E+00 0.  1.
        -11    1    4    4    0    0  0.39144729278E-02 -0.77342290857E-01  0.57292810492E-01  0.96332135388E-01  0.51100000000E-03 0.  1.
         11    1    4    4    0    0  0.50033826419E-02 -0.27893791442E-01  0.82063000133E-02  0.29507658663E-01  0.51100000000E-03 0. -1.
</event>
<event>
 8    1  0.1115874E+005  0.1043930E+01  0.7957747E-01            NaN
         13   -1    0    0    0    0  0.00000000000E+00  0.00000000000E+00  0.74505805969E-08  0.10566000000E+00  0.10566000000E+00 0. -1.
     999900   -1    0    0    0    0 -0.00000000000E+00 -0.00000000000E+00 -0.74505805969E-08  0.93827000000E+00  0.93827000000E+00 0. -1.
     999902    2    1    2    0    0  0.15328408358E-01  0.37836643205E-02 -0.18362970922E-01  0.10197127557E+01  0.10194251465E+01 0.  0.
     999903    2    3    3    0    0 -0.34481808804E-01 -0.10174764760E+00  0.66642425029E-01  0.12794830653E+00  0.19697141933E-01 0.  0.
         14    1    1    2    0    0 -0.15328408358E-01 -0.37836643205E-02  0.18362970922E-01  0.24217244261E-01  0.00000000000E+00 0. -1.
     999901    1    3    3    0    0  0.49810217162E-01  0.10553131192E+00 -0.85005395951E-01  0.89176444921E+00  0.88000000000E+00 0. -1.
        -11    1    4    4    0    0 -0.33948087827E-02 -0.23228938099E-01  0.23077677079E-01  0.32923374557E-01  0.51100000000E-03 0. -1.
         11    1    4    4    0    0 -0.31087000021E-01 -0.78518709500E-01  0.43564747950E-01  0.95024931975E-01  0.51100000000E-03 0.  1.
</event>
<event>
 8    1  0.1115874E+005  0.1043930E+01  0.7957747E-01            NaN
         13   -1    0    0    0    0  0.00000000000E+00  0.00000000000E+00  0.74505805969E-08  0.10566000000E+00  0.10566000000E+00 0.  1.
     999900   -1    0    0    0    0 -0.00000000000E+00 -0.00000000000E+00 -0.74505805969E-08  0.93827000000E+00  0.93827000000E+00 0.  1.
     999902    2    1    2    0    0  0.10943145549E-01  0.45983338818E-02 -0.18769588601E-01  0.10217220157E+01  0.10214806326E+01 0.  0.
     999903    2    3    3    0    0  0.94890800666E-01 -0.42608109408E-01 -0.81856275808E-01  0.13422238915E+00  0.22259488326E-01 0.  0.
         14    1    1    2    0    0 -0.10943145549E-01 -0.45983338818E-02  0.18769588601E-01  0.22207984268E-01  0.00000000000E+00 0.  1.
     999901    1    3    3    0    0 -0.83947655117E-01  0.47206443290E-01  0.63086687207E-01  0.88749962659E+00  0.88000000000E+00 0. -1.
        -11    1    4    4    0    0  0.54374041652E-01 -0.31767361551E-01 -0.38077125418E-01  0.73592324781E-01  0.51100000000E-03 0. -1.
         11    1    4    4    0    0  0.40516759014E-01 -0.10840747857E-01 -0.43779150390E-01  0.60630064365E-01  0.51100000000E-03 0.  1.
</event>
<event>
 8    1  0.1115874E+005  0.1043930E+01  0.7957747E-01            NaN
         13   -1    0    0    0    0  0.00000000000E+00  0.00000000000E+00  0.74505805969E-08  0.10566000000E+00  0.10566000000E+00 0. -1.
     999900   -1    0    0    0    0 -0.00000000000E+00 -0.00000000000E+00 -0.74505805969E-08  0.93827000000E+00  0.93827000000E+00 0.  1.
     999902    2    1    2    0    0  0.20371345806E-01  0.34478864212E-02 -0.92496730532E-02  0.10212929485E+01  0.10210420415E+01 0.  0.
     999903    2    3    3    0    0 -0.31384261016E-01 -0.61407655077E-01  0.10814405708E+00  0.12962811683E+00  0.18773376048E-01 0.  0.
         14    1    1    2    0    0 -0.20371345806E-01 -0.34478864212E-02  0.92496730532E-02  0.22637051538E-01  0.00000000000E+00 0. -1.
     999901    1    3    3    0    0  0.51755606822E-01  0.64855541498E-01 -0.11739373014E+00  0.89166483164E+00  0.88000000000E+00 0.  1.
        -11    1    4    4    0    0 -0.25173785987E-01 -0.44148108129E-01  0.63323632796E-01  0.81196788999E-01  0.51100000000E-03 0. -1.
         11    1    4    4    0    0 -0.62104750293E-02 -0.17259546947E-01  0.44820424286E-01  0.48431327827E-01  0.51100000000E-03 0.  1.
</event>
<event>
 8    1  0.1115874E+005  0.1043930E+01  0.7957747E-01            NaN
         13   -1    0    0    0    0  0.00000000000E+00  0.00000000000E+00  0.74505805969E-08  0.10566000000E+00  0.10566000000E+00 0. -1.
     999900   -1    0    0    0    0 -0.00000000000E+00 -0.00000000000E+00 -0.74505805969E-08  0.93827000000E+00  0.93827000000E+00 0.  1.
     999902    2    1    2    0    0 -0.13950938711E-01  0.70600662887E-02 -0.17563958277E-01  0.10204147739E+01  0.10201437864E+01 0.  0.
     999903    2    3    3    0    0  0.12236156147E+00  0.37919068643E-01  0.36153273805E-02  0.12913370834E+00  0.15881956614E-01 0.  0.
         14    1    1    2    0    0  0.13950938711E-01 -0.70600662887E-02  0.17563958277E-01  0.23515226073E-01  0.00000000000E+00 0. -1.
     999901    1    3    3    0    0 -0.13631250018E+00 -0.30859002354E-01 -0.21179285658E-01  0.89128106559E+00  0.88000000000E+00 0. -1.
        -11    1    4    4    0    0  0.87771284471E-01  0.27425150885E-01 -0.45584360864E-02  0.92070504176E-01  0.51100000000E-03 0.  1.
         11    1    4    4    0    0  0.34590276998E-01  0.10493917758E-01  0.81737634668E-02  0.37063204164E-01  0.51100000000E-03 0. -1.
</event>
<event>
 8    1  0.1115874E+005  0.1043930E+01  0.7957747E-01            NaN
         13   -1    0    0    0    0  0.00000000000E+00  0.00000000000E+00  0.74505805969E-08  0.10566000000E+00  0.10566000000E+00 0. -1.
     999900   -1    0    0    0    0 -0.00000000000E+00 -0.00000000000E+00 -0.74505805969E-08  0.93827000000E+00  0.93827000000E+00 0. -1.
     999902    2    1    2    0    0  0.17535415175E-01  0.10245680157E-01  0.15677358332E-01  0.10182737276E+01  0.10179504605E+01 0.  0.
     999903    2    3    3    0    0 -0.17334756849E-01  0.12546471130E+00  0.17433527639E-01  0.13007643077E+00  0.23959598917E-01 0.  0.
         14    1    1    2    0    0 -0.17535415175E-01 -0.10245680157E-01 -0.15677358332E-01  0.25656272362E-01  0.00000000000E+00 0. -1.
     999901    1    3    3    0    0  0.34870172024E-01 -0.11521903114E+00 -0.17561693071E-02  0.88819729687E+00  0.88000000000E+00 0. -1.
        -11    1    4    4    0    0 -0.25854822416E-02  0.45274721184E-01  0.17301645381E-01  0.48539603940E-01  0.51100000000E-03 0.  1.
         11    1    4    4    0    0 -0.14749274607E-01  0.80189990112E-01  0.13188225800E-03  0.81536826830E-01  0.51100000000E-03 0. -1.
</event>
<event>
 8    1  0.1115874E+005  0.1043930E+01  0.7957747E-01            NaN
         13   -1    0    0    0    0  0.00000000000E+00  0.00000000000E+00  0.74505805969E-08  0.10566000000E+00  0.10566000000E+00 0. -1.
     999900   -1    0    0    0    0 -0.00000000000E+00 -0.00000000000E+00 -0.74505805969E-08  0.93827000000E+00  0.93827000000E+00 0.  1.
     999902    2    1    2    0    0  0.30916662847E-02  0.17577318943E-01 -0.15421629537E-01  0.10203429866E+01  0.10200703227E+01 0.  0.
     999903    2    3    3    0    0  0.37138230459E-01  0.11520461347E+00  0.48423055969E-01  0.13199260473E+00  0.20637447255E-01 0.  0.
         14    1    1    2    0    0 -0.30916662847E-02 -0.17577318943E-01  0.15421629537E-01  0.23587013359E-01  0.00000000000E+00 0. -1.
     999901    1    3    3    0    0 -0.34046564175E-01 -0.97627294523E-01 -0.63844685506E-01  0.88835038191E+00  0.88000000000E+00 0.  1.
        -11    1    4    4    0    0  0.37769290146E-01  0.97117685915E-01  0.36967559589E-01  0.11056774294E+00  0.51100000000E-03 0.  1.
         11    1    4    4    0    0 -0.63105968673E-03  0.18086927551E-01  0.11455496381E-01  0.21424861794E-01  0.51100000000E-03 0. -1.
</event>
<event>
 8    1  0.1115874E+005  0.1043930E+01  0.7957747E-01            NaN
         13   -1    0    0    0    0  0.00000000000E+00  0.00000000000E+00  0.74505805969E-08  0.10566000000E+00  0.10566000000E+00 0.  1.
     999900   -1    0    0    0    0 -0.00000000000E+00 -0.00000000000E+00 -0.74505805969E-08  0.93827000000E+00  0.93827000000E+00 0. -1.
     999902    2    1    2    0    0 -0.14387037287E-01  0.23285786375E-03 -0.19297877007E-01  0.10198582505E+01  0.10195741278E+01 0.  0.
     999903    2    3    3    0    0  0.64262379828E-01 -0.84461540177E-01 -0.73537852306E-01  0.13064463910E+00  0.19919858745E-01 0.  0.
         14    1    1    2    0    0  0.14387037287E-01 -0.23285786375E-03  0.19297877007E-01  0.24071749452E-01  0.00000000000E+00 0.  1.
     999901    1    3    3    0    0 -0.78649417116E-01  0.84694398040E-01  0.54239975298E-01  0.88921361145E+00  0.88000000000E+00 0. -1.
        -11    1    4    4    0    0  0.16934431996E-01 -0.10040829981E-01 -0.15545083129E-01  0.25089917980E-01  0.51100000000E-03 0.  1.
         11    1    4    4    0    0  0.47327947832E-01 -0.74420710196E-01 -0.57992769177E-01  0.10555472112E+00  0.51100000000E-03 0. -1.
</event>
<event>
 8    1  0.1115874E+005  0.1043930E+01  0.7957747E-01            NaN
         13   -1    0    0    0    0  0.00000000000E+00  0.00000000000E+00  0.74505805969E-08  0.10566000000E+00  0.10566000000E+00 0.  1.
     999900   -1    0    0    0    0 -0.00000000000E+00 -0.00000000000E+00 -0.74505805969E-08  0.93827000000E+00  0.93827000000E+00 0. -1.
     999902    2    1    2    0    0  0.33299508244E-02 -0.43791660091E-02 -0.22814935426E-01  0.10204611495E+01  0.10201912422E+01 0.  0.
     999903    2    3    3    0    0  0.66763349280E-01 -0.35313619455E-01  0.10247008549E+00  0.12879020515E+00  0.19555101526E-01 0.  0.
         14    1    1    2    0    0 -0.33299508244E-02  0.43791660091E-02  0.22814935426E-01  0.23468850546E-01  0.00000000000E+00 0.  1.
     999901    1    3    3    0    0 -0.63433398456E-01  0.30934453446E-01 -0.12528502092E+00  0.89167094430E+00  0.88000000000E+00 0. -1.
        -11    1    4    4    0    0  0.30618660441E-01 -0.27226254336E-01  0.53804923379E-01  0.67631369890E-01  0.51100000000E-03 0.  1.
         11    1    4    4    0    0  0.36144688840E-01 -0.80873651186E-02  0.48665162113E-01  0.61158835260E-01  0.51100000000E-03 0. -1.
</event>
<event>
 8    1  0.1115874E+005  0.1043930E+01  0.7957747E-01            NaN
         13   -1    0    0    0    0  0.00000000000E+00  0.00000000000E+00  0.74505805969E-08  0.10566000000E+00  0.10566000000E+00 0. -1.
     999900   -1    0    0    0    0 -0.00000000000E+00 -0.00000000000E+00 -0.74505805969E-08  0.93827000000E+00  0.93827000000E+00 0. -1.
     999902    2    1    2    0    0  0.14655232668E-01 -0.17352873403E-01  0.58739011640E-02  0.10204693782E+01  0.10201996624E+01 0.  0.
     999903    2    3    3    0    0  0.49690002699E-01  0.36245469415E-02 -0.11911542532E+00  0.13069984681E+00  0.20291172916E-01 0.  0.
         14    1    1    2    0    0 -0.14655232668E-01  0.17352873403E-01 -0.58739011640E-02  0.23460621790E-01  0.00000000000E+00 0.  1.
     999901    1    3    3    0    0 -0.35034770031E-01 -0.20977420345E-01  0.12498932648E+00  0.88976953140E+00  0.88000000000E+00 0.  1.
        -11    1    4    4    0    0  0.30935392767E-01 -0.39778781065E-02 -0.89885143147E-01  0.95144217478E-01  0.51100000000E-03 0. -1.
         11    1    4    4    0    0  0.18754609932E-01  0.76024250480E-02 -0.29230282171E-01  0.35555629330E-01  0.51100000000E-03 0.  1.
</event>
<event>
 8    1  0.1115874E+005  0.1043930E+01  0.7957747E-01            NaN
         13   -1    0    0    0    0  0.00000000000E+00  0.00000000000E+00  0.74505805969E-08  0.10566000000E+00  0.10566000000E+00 0.  1.
     999900   -1    0    0    0    0 -0.00000000000E+00 -0.00000000000E+00 -0.74505805969E-08  0.93827000000E+00  0.93827000000E+00 0.  1.
     999902    2    1    2    0    0  0.18834168016E-01 -0.68641476230E-02  0.13833022334E-01  0.10195744069E+01  0.10192834622E+01 0.  0.
     999903    2    3    3    0    0  0.61909979985E-01 -0.11170379054E+00  0.27795093264E-01  0.13219522318E+00  0.19809779913E-01 0.  0.
         14    1    1    2    0    0 -0.18834168016E-01  0.68641476230E-02 -0.13833022334E-01  0.24355593081E-01  0.00000000000E+00 0. -1.
     999901    1    3    3    0    0 -0.43075811969E-01  0.10483964292E+00 -0.13962070930E-01  0.88737918374E+00  0.88000000000E+00 0. -1.
        -11    1    4    4    0    0  0.49837503646E-01 -0.90538434268E-01  0.30286837177E-01  0.10769651098E+00  0.51100000000E-03 0. -1.
         11    1    4    4    0    0  0.12072476339E-01 -0.21165356271E-01 -0.24917439121E-02  0.24498712206E-01  0.51100000000E-03 0.  1.
</event>
<event>
 8    1  0.1115874E+005  0.1043930E+01  0.7957747E-01            NaN
         13   -1    0    0    0    0  0.00000000000E+00  0.00000000000E+00  0.74505805969E-08  0.10566000000E+00  0.10566000000E+00 0. -1.
     999900   -1    0    0    0    0 -0.00000000000E+00 -0.00000000000E+00 -0.74505805969E-08  0.93827000000E+00  0.93827000000E+00 0.  1.
     999902    2    1    2    0    0  0.52118038819E-02 -0.10711080038E-01 -0.20925730861E-01  0.10198514546E+01  0.10195671695E+01 0.  0.
     999903    2    3    3    0    0 -0.46641993539E-02  0.58588617465E-02 -0.13100766662E+00  0.13278317597E+00  0.20304730799E-01 0.  0.
         14    1    1    2    0    0 -0.52118038819E-02  0.10711080038E-01  0.20925730861E-01  0.24078545374E-01  0.00000000000E+00 0. -1.
     999901    1    3    3    0    0  0.98760032357E-02 -0.16569941784E-01  0.11008193576E+00  0.88706827865E+00  0.88000000000E+00 0. -1.
        -11    1    4    4    0    0 -0.12411700119E-01  0.25946058749E-02 -0.63804959417E-01  0.65054717329E-01  0.51100000000E-03 0. -1.
         11    1    4    4    0    0  0.77475007656E-02  0.32642558716E-02 -0.67202707199E-01  0.67728458645E-01  0.51100000000E-03 0.  1.
</event>
<event>
 8    1  0.1115874E+005  0.1043930E+01  0.7957747E-01            NaN
         13   -1    0    0    0    0  0.00000000000E+00  0.00000000000E+00  0.74505805969E-08  0.10566000000E+00  0.10566000000E+00 0.  1.
     999900   -1    0    0    0    0 -0.00000000000E+00 -0.00000000000E+00 -0.74505805969E-08  0.93827000000E+00  0.93827000000E+00 0. -1.
     999902    2    1    2    0    0 -0.14932227292E-01  0.89460208440E-02  0.13223745307E-01  0.10220697589E+01  0.10218359565E+01 0.  0.
     999903    2    3    3    0    0  0.30433109935E-01  0.50920509367E-01 -0.11477084260E+00  0.13066497653E+00  0.19542705144E-01 0.  0.
         14    1    1    2    0    0  0.14932227292E-01 -0.89460208440E-02 -0.13223745307E-01  0.21860241096E-01  0.00000000000E+00 0. -1.
     999901    1    3    3    0    0 -0.45365337227E-01 -0.41974488523E-01  0.12799458791E+00  0.89140478238E+00  0.88000000000E+00 0.  1.
        -11    1    4    4    0    0  0.29978111550E-01  0.33346117810E-01 -0.80688053707E-01  0.92311829562E-01  0.51100000000E-03 0.  1.
         11    1    4    4    0    0  0.45499838521E-03  0.17574391557E-01 -0.34082788897E-01  0.38353146965E-01  0.51100000000E-03 0. -1.
</event>
<event>
 8    1  0.1115874E+005  0.1043930E+01  0.7957747E-01            NaN
         13   -1    0    0    0    0  0.00000000000E+00  0.00000000000E+00  0.74505805969E-08  0.10566000000E+00  0.10566000000E+00 0.  1.
     999900   -1    0    0    0    0 -0.00000000000E+00 -0.00000000000E+00 -0.74505805969E-08  0.93827000000E+00  0.93827000000E+00 0.  1.
     999902    2    1    2    0    0  0.44817604575E-02  0.18854305922E-01  0.13732902781E-01  0.10201778707E+01  0.10199013306E+01 0.  0.
     999903    2    3    3    0    0  0.90727001336E-01 -0.54178810157E-01 -0.71066074130E-01  0.12890746047E+00  0.20000355802E-01 0.  0.
         14    1    1    2    0    0 -0.44817604575E-02 -0.18854305922E-01 -0.13732902781E-01  0.23752129323E-01  0.00000000000E+00 0. -1.
     999901    1    3    3    0    0 -0.86245240879E-01  0.73033116079E-01  0.84798976910E-01  0.89127041020E+00  0.88000000000E+00 0. -1.
        -11    1    4    4    0    0  0.42521564395E-01 -0.15513167414E-01 -0.36133093481E-01  0.57918937898E-01  0.51100000000E-03 0.  1.
         11    1    4    4    0    0  0.48205436941E-01 -0.38665642743E-01 -0.34932980649E-01  0.70988522576E-01  0.51100000000E-03 0. -1.
</event>
<event>
 8    1  0.1115874E+005  0.1043930E+01  0.7957747E-01            NaN
         13   -1    0    0    0    0  0.00000000000E+00  0.00000000000E+00  0.74505805969E-08  0.10566000000E+00  0.10566000000E+00 0. -1.
     999900   -1    0    0    0    0 -0.00000000000E+00 -0.00000000000E+00 -0.74505805969E-08  0.93827000000E+00  0.93827000000E+00 0. -1.
     999902    2    1    2    0    0  0.13882880159E-01 -0.19338479164E-01 -0.47339111184E-02  0.10196581840E+01  0.10193692614E+01 0.  0.
     999903    2    3    3    0    0  0.27533885459E-01  0.11618358667E+00 -0.43874375276E-01  0.12831955238E+00  0.16858412001E-01 0.  0.
         14    1    1    2    0    0 -0.13882880159E-01  0.19338479164E-01  0.47339111184E-02  0.24271816009E-01  0.00000000000E+00 0.  1.
     999901    1    3    3    0    0 -0.13651005300E-01 -0.13552206584E+00  0.39140464158E-01  0.89133863162E+00  0.88000000000E+00 0.  1.
        -11    1    4    4    0    0  0.13352608983E-01  0.35159344326E-01 -0.73809627109E-02  0.38330293393E-01  0.51100000000E-03 0. -1.
         11    1    4    4    0    0  0.14181276475E-01  0.81024242349E-01 -0.36493412566E-01  0.89989258983E-01  0.51100000000E-03 0.  1.
</event>
<event>
 7    1  0.1115874E+005  0.1043930E+01  0.7957747E-01            NaN
         13   -1    0    0    0    0  0.00000000000E+00  0.00000000000E+00  0.74505805969E-08  0.10566000000E+00  0.10566000000E+00 0.  1.
     999900   -1    0    0    0    0 -0.00000000000E+00 -0.00000000000E+00 -0.74505805969E-08  0.93827000000E+00  0.93827000000E+00 0. -1.
     999902    2    1    2    0    0  0.16148493966E-01 -0.12061307743E-04  0.19323880921E-01  0.10187469427E+01  0.10184356370E+01 0.  0.
         14    1    1    2    0    0 -0.16148493966E-01  0.12061307743E-04 -0.19323880921E-01  0.25183057335E-01  0.00000000000E+00 0. -1.
     999901    1    3    3    0    0 -0.57789938226E-01  0.97997448093E-01  0.44405736391E-01  0.88843404157E+00  0.88000000000E+00 0.  1.
        -11    1    3    3    0    0  0.73757904799E-01 -0.99374135940E-01 -0.20425964358E-01  0.12543097128E+00  0.51100000000E-03 0.  1.
         11    1    3    3    0    0  0.18052739243E-03  0.13646265392E-02 -0.46558911118E-02  0.48819298209E-02  0.51100000000E-03 0. -1.
</event>
<event>
 8    1  0.1115874E+005  0.1043930E+01  0.7957747E-01            NaN
         13   -1    0    0    0    0  0.00000000000E+00  0.00000000000E+00  0.74505805969E-08  0.10566000000E+00  0.10566000000E+00 0. -1.
     999900   -1    0    0    0    0 -0.00000000000E+00 -0.00000000000E+00 -0.74505805969E-08  0.93827000000E+00  0.93827000000E+00 0. -1.
     999902    2    1    2    0    0  0.12954807188E-01  0.16060482907E-01  0.11510488818E-01  0.10203025267E+01  0.10200289155E+01 0.  0.
     999903    2    3    3    0    0  0.18360865836E-01  0.14717260896E-01  0.12892180382E+00  0.13248697910E+00  0.19448623827E-01 0.  0.
         14    1    1    2    0    0 -0.12954807188E-01 -0.16060482907E-01 -0.11510488818E-01  0.23627473274E-01  0.00000000000E+00 0. -1.
     999901    1    3    3    0    0 -0.54060586477E-02  0.13432220107E-02 -0.11741131500E+00  0.88781554763E+00  0.88000000000E+00 0. -1.
        -11    1    4    4    0    0  0.10550353057E-01 -0.25501647387E-02  0.61398965869E-01  0.62353086697E-01  0.51100000000E-03 0.  1.
         11    1    4    4    0    0  0.78105127791E-02  0.17267425635E-01  0.67522837950E-01  0.70133892404E-01  0.51100000000E-03 0. -1.
</event>
<event>
 8    1  0.1115874E+005  0.1043930E+01  0.7957747E-01            NaN
         13   -1    0    0    0    0  0.00000000000E+00  0.00000000000E+00  0.74505805969E-08  0.10566000000E+00  0.10566000000E+00 0.  1.
     999900   -1    0    0    0    0 -0.00000000000E+00 -0.00000000000E+00 -0.74505805969E-08  0.93827000000E+00  0.93827000000E+00 0. -1.
     999902    2    1    2    0    0  0.13660037800E-01 -0.15001298320E-02 -0.17836364613E-01  0.10214137187E+01  0.10211655114E+01 0.  0.
     999903    2    3    3    0    0 -0.63213149008E-01 -0.47592817730E-01  0.10005196040E+00  0.12903953712E+00  0.19489198383E-01 0.  0.
         14    1    1    2    0    0 -0.13660037800E-01  0.15001298320E-02  0.17836364613E-01  0.22516281328E-01  0.00000000000E+00 0.  1.
     999901    1    3    3    0    0  0.76873186808E-01  0.46092687898E-01 -0.11788832501E+00  0.89237418155E+00  0.88000000000E+00 0. -1.
        -11    1    4    4    0    0 -0.29330590242E-01 -0.31177609913E-01  0.42948638035E-01  0.60639702456E-01  0.51100000000E-03 0. -1.
         11    1    4    4    0    0 -0.33882558766E-01 -0.16415207817E-01  0.57103322362E-01  0.68399834664E-01  0.51100000000E-03 0.  1.
</event>
<event>
 8    1  0.1115874E+005  0.1043930E+01  0.7957747E-01            NaN
         13   -1    0    0    0    0  0.00000000000E+00  0.00000000000E+00  0.74505805969E-08  0.10566000000E+00  0.10566000000E+00 0.  1.
     999900   -1    0    0    0    0 -0.00000000000E+00 -0.00000000000E+00 -0.74505805969E-08  0.93827000000E+00  0.93827000000E+00 0. -1.
     999902    2    1    2    0    0  0.18412958430E-01  0.16869721261E-01 -0.10450541523E-01  0.10168590127E+01  0.10164986047E+01 0.  0.
     999903    2    3    3    0    0 -0.50100094804E-02 -0.11703044430E+00  0.38821132724E-01  0.12505993915E+00  0.20289971574E-01 0.  0.
         14    1    1    2    0    0 -0.18412958430E-01 -0.16869721261E-01  0.10450541523E-01  0.27070987269E-01  0.00000000000E+00 0.  1.
     999901    1    3    3    0    0  0.23422967911E-01  0.13390016556E+00 -0.49271674247E-01  0.89179907358E+00  0.88000000000E+00 0. -1.
        -11    1    4    4    0    0  0.41938325746E-03 -0.83497664248E-01  0.36125197282E-01  0.90979815437E-01  0.51100000000E-03 0.  1.
         11    1    4    4    0    0 -0.54293927379E-02 -0.33532780047E-01  0.26959354418E-02  0.34080123710E-01  0.51100000000E-03 0. -1.
</event>
<event>
 8    1  0.1115874E+005  0.1043930E+01  0.7957747E-01            NaN
         13   -1    0    0    0    0  0.00000000000E+00  0.00000000000E+00  0.74505805969E-08  0.10566000000E+00  0.10566000000E+00 0.  1.
     999900   -1    0    0    0    0 -0.00000000000E+00 -0.00000000000E+00 -0.74505805969E-08  0.93827000000E+00  0.93827000000E+00 0.  1.
     999902    2    1    2    0    0  0.94806602685E-03 -0.27069008912E-02 -0.23609166658E-01  0.10201472564E+01  0.10198699946E+01 0.  0.
     999903    2    3    3    0    0  0.10554054157E+00 -0.72141128160E-01  0.14482415235E-01  0.13042164340E+00  0.21375603591E-01 0.  0.
         14    1    1    2    0    0 -0.94806602685E-03  0.27069008912E-02  0.23609166658E-01  0.23782743574E-01  0.00000000000E+00 0.  1.
     999901    1    3    3    0    0 -0.10459247555E+00  0.69434227269E-01 -0.38091581893E-01  0.88972561302E+00  0.88000000000E+00 0.  1.
        -11    1    4    4    0    0  0.62636919306E-01 -0.52049235796E-01  0.16092078243E-01  0.83016400249E-01  0.51100000000E-03 0. -1.
         11    1    4    4    0    0  0.42903622269E-01 -0.20091892364E-01 -0.16096630076E-02  0.47405243155E-01  0.51100000000E-03 0.  1.
</event>
<event>
 8    1  0.1115874E+005  0.1043930E+01  0.7957747E-01            NaN
         13   -1    0    0    0    0  0.00000000000E+00  0.00000000000E+00  0.74505805969E-08  0.10566000000E+00  0.10566000000E+00 0.  1.
     999900   -1    0    0    0    0 -0.00000000000E+00 -0.00000000000E+00 -0.74505805969E-08  0.93827000000E+00  0.93827000000E+00 0.  1.
     999902    2    1    2    0    0  0.16154342925E-01  0.12156458689E-01 -0.15594392854E-01  0.10183971315E+01  0.10180770060E+01 0.  0.
     999903    2    3    3    0    0 -0.34391710516E-01  0.47132549475E-01  0.11126369908E+00  0.12717818766E+00  0.19758889405E-01 0.  0.
         14    1    1    2    0    0 -0.16154342925E-01 -0.12156458689E-01  0.15594392854E-01  0.25532868458E-01  0.00000000000E+00 0. -1.
     999901    1    3    3    0    0  0.50546053442E-01 -0.34976090786E-01 -0.12685809194E+00  0.89121894388E+00  0.88000000000E+00 0.  1.
        -11    1    4    4    0    0 -0.19798981815E-01  0.33071547700E-01  0.53351976548E-01  0.65821132403E-01  0.51100000000E-03 0. -1.
         11    1    4    4    0    0 -0.14592728701E-01  0.14061001775E-01  0.57911722535E-01  0.61357055257E-01  0.51100000000E-03 0.  1.
</event>
<event>
 8    1  0.1115874E+005  0.1043930E+01  0.7957747E-01            NaN
         13   -1    0    0    0    0  0.00000000000E+00  0.00000000000E+00  0.74505805969E-08  0.10566000000E+00  0.10566000000E+00 0.  1.
     999900   -1    0    0    0    0 -0.00000000000E+00 -0.00000000000E+00 -0.74505805969E-08  0.93827000000E+00  0.93827000000E+00 0. -1.
     999902    2    1    2    0    0 -0.10964621538E-01 -0.16459610778E-01 -0.14982318793E-01  0.10191184787E+01  0.10188164025E+01 0.  0.
     999903    2    3    3    0    0 -0.31363832797E-01  0.51214221920E-02  0.12233261293E+00  0.12797468600E+00  0.20058242617E-01 0.  0.
         14    1    1    2    0    0  0.10964621538E-01  0.16459610778E-01  0.14982318793E-01  0.24811521293E-01  0.00000000000E+00 0.  1.
     999901    1    3    3    0    0  0.20399211260E-01 -0.21581032970E-01 -0.13731493173E+00  0.89114379271E+00  0.88000000000E+00 0. -1.
        -11    1    4    4    0    0 -0.23526888082E-01  0.12086432950E-01  0.76159118286E-01  0.80623003810E-01  0.51100000000E-03 0.  1.
         11    1    4    4    0    0 -0.78369447156E-02 -0.69650107578E-02  0.46173494648E-01  0.47351682191E-01  0.51100000000E-03 0. -1.
</event>
<event>
 8    1  0.1115874E+005  0.1043930E+01  0.7957747E-01            NaN
         13   -1    0    0    0    0  0.00000000000E+00  0.00000000000E+00  0.74505805969E-08  0.10566000000E+00  0.10566000000E+00 0. -1.
     999900   -1    0    0    0    0 -0.00000000000E+00 -0.00000000000E+00 -0.74505805969E-08  0.93827000000E+00  0.93827000000E+00 0. -1.
     999902    2    1    2    0    0  0.22223181017E-01 -0.74826715036E-02  0.51710328960E-03  0.10204752021E+01  0.10202056217E+01 0.  0.
     999903    2    3    3    0    0  0.35489041251E-01  0.73517589047E-01  0.10121114655E+00  0.13093806653E+00  0.15387434275E-01 0.  0.
         14    1    1    2    0    0 -0.22223181017E-01  0.74826715036E-02 -0.51710328960E-03  0.23454797870E-01  0.00000000000E+00 0. -1.
     999901    1    3    3    0    0 -0.13265860234E-01 -0.81000260551E-01 -0.10069404326E+00  0.88953713560E+00  0.88000000000E+00 0. -1.
        -11    1    4    4    0    0  0.91681220919E-02  0.33004731084E-01  0.49158938293E-01  0.59918520273E-01  0.51100000000E-03 0.  1.
         11    1    4    4    0    0  0.26320919159E-01  0.40512857963E-01  0.52052208256E-01  0.71019546260E-01  0.51100000000E-03 0. -1.
</event>
<event>
 8    1  0.1115874E+005  0.1043930E+01  0.7957747E-01            NaN
         13   -1    0    0    0    0  0.00000000000E+00  0.00000000000E+00  0.74505805969E-08  0.10566000000E+00  0.10566000000E+00 0. -1.
     999900   -1    0    0    0    0 -0.00000000000E+00 -0.00000000000E+00 -0.74505805969E-08  0.93827000000E+00  0.93827000000E+00 0.  1.
     999902    2    1    2    0    0 -0.38843932735E-02  0.11871231320E-01 -0.20338128300E-01  0.10200625723E+01  0.10197833090E+01 0.  0.
     999903    2    3    3    0    0  0.10017603317E+00  0.82078990420E-01 -0.25676641775E-02  0.13097681083E+00  0.19394168825E-01 0.  0.
         14    1    1    2    0    0  0.38843932735E-02 -0.11871231320E-01  0.20338128300E-01  0.23867427740E-01  0.00000000000E+00 0. -1.
     999901    1    3    3    0    0 -0.10406042645E+00 -0.70207759100E-01 -0.17770464122E-01  0.88908576143E+00  0.88000000000E+00 0. -1.
        -11    1    4    4    0    0  0.11616135703E-01  0.92298566659E-02  0.59355973259E-02  0.15988036132E-01  0.51100000000E-03 0.  1.
         11    1    4    4    0    0  0.88559897469E-01  0.72849133754E-01 -0.85032615034E-02  0.11498877469E+00  0.51100000000E-03 0. -1.
</event>
<event>
 8    1  0.1115874E+005  0.1043930E+01  0.7957747E-01            NaN
         13   -1    0    0    0    0  0.00000000000E+00  0.00000000000E+00  0.74505805969E-08  0.10566000000E+00  0.10566000000E+00 0. -1.
     999900   -1    0    0    0    0 -0.00000000000E+00 -0.00000000000E+00 -0.74505805969E-08  0.93827000000E+00  0.93827000000E+00 0. -1.
     999902    2    1    2    0    0 -0.11132727772E-01 -0.18303374843E-01 -0.67164030240E-02  0.10214786921E+01  0.10212319311E+01 0.  0.
     999903    2    3    3    0    0  0.74923858801E-01 -0.10460241152E+00  0.25097079633E-01  0.13250998761E+00  0.19333501919E-01 0.  0.
         14    1    1    2    0    0  0.11132727772E-01  0.18303374843E-01  0.67164030240E-02  0.22451307933E-01  0.00000000000E+00 0. -1.
     999901    1    3    3    0    0 -0.86056586574E-01  0.86299036679E-01 -0.31813482657E-01  0.88896870446E+00  0.88000000000E+00 0. -1.
        -11    1    4    4    0    0  0.36765284832E-01 -0.52693185935E-01  0.22329748969E-01  0.68023060963E-01  0.51100000000E-03 0.  1.
         11    1    4    4    0    0  0.38158573970E-01 -0.51909225587E-01  0.27673306646E-02  0.64486926648E-01  0.51100000000E-03 0. -1.
</event>
<event>
 8    1  0.1115874E+005  0.1043930E+01  0.7957747E-01            NaN
         13   -1    0    0    0    0  0.00000000000E+00  0.00000000000E+00  0.74505805969E-08  0.10566000000E+00  0.10566000000E+00 0. -1.
     999900   -1    0    0    0    0 -0.00000000000E+00 -0.00000000000E+00 -0.74505805969E-08  0.93827000000E+00  0.93827000000E+00 0.  1.
     999902    2    1    2    0    0  0.12233410735E-01 -0.88667867950E-02 -0.18628004922E-01  0.10199450294E+01  0.10196629758E+01 0.  0.
     999903    2    3    3    0    0 -0.46483518192E-01 -0.11147362733E+00  0.43044890721E-01  0.12990043081E+00  0.20836800418E-01 0.  0.
         14    1    1    2    0    0 -0.12233410735E-01  0.88667867950E-02  0.18628004922E-01  0.23984970579E-01  0.00000000000E+00 0. -1.
     999901    1    3    3    0    0  0.58716928928E-01  0.10260684054E+00 -0.61672895643E-01  0.89004459862E+00  0.88000000000E+00 0. -1.
        -11    1    4    4    0    0 -0.54930830059E-02 -0.15923645619E-01  0.14103386191E-01  0.21975055717E-01  0.51100000000E-03 0. -1.
         11    1    4    4    0    0 -0.40990435186E-01 -0.95549981715E-01  0.28941504530E-01  0.10792537509E+00  0.51100000000E-03 0.  1.
</event>
<event>
 8    1  0.1115874E+005  0.1043930E+01  0.7957747E-01            NaN
         13   -1    0    0    0    0  0.00000000000E+00  0.00000000000E+00  0.74505805969E-08  0.10566000000E+00  0.10566000000E+00 0. -1.
     999900   -1    0    0    0    0 -0.00000000000E+00 -0.00000000000E+00 -0.74505805969E-08  0.93827000000E+00  0.93827000000E+00 0.  1.
     999902    2    1    2    0    0 -0.11026209700E-02  0.23673933781E-01  0.17172663707E-02  0.10201682678E+01  0.10198915014E+01 0.  0.
     999903    2    3    3    0    0 -0.81458374935E-02 -0.12556242388E+00 -0.83354082257E-02  0.12751931461E+00  0.18958365212E-01 0.  0.
         14    1    1    2    0    0  0.11026209700E-02 -0.23673933781E-01 -0.17172663707E-02  0.23761732206E-01  0.00000000000E+00 0. -1.
     999901    1    3    3    0    0  0.70432165234E-02  0.14923635766E+00  0.10052674596E-01  0.89264895318E+00  0.88000000000E+00 0.  1.
        -11    1    4    4    0    0 -0.36680710555E-02 -0.53316674721E-01  0.58231292487E-02  0.53761440678E-01  0.51100000000E-03 0. -1.
         11    1    4    4    0    0 -0.44777664380E-02 -0.72245749154E-01 -0.14158537474E-01  0.73757873936E-01  0.51100000000E-03 0.  1.
</event>
<event>
 8    1  0.1115874E+005  0.1043930E+01  0.7957747E-01            NaN
         13   -1    0    0    0    0  0.00000000000E+00  0.00000000000E+00  0.74505805969E-08  0.10566000000E+00  0.10566000000E+00 0.  1.
     999900   -1    0    0    0    0 -0.00000000000E+00 -0.00000000000E+00 -0.74505805969E-08  0.93827000000E+00  0.93827000000E+00 0. -1.
     999902    2    1    2    0    0  0.58085943615E-02 -0.19418762500E-01  0.12164969072E-01  0.10202907407E+01  0.10200168533E+01 0.  0.
     999903    2    3    3    0    0  0.25905813228E-01  0.89310849013E-02  0.12756588505E+00  0.13207624894E+00  0.20498904083E-01 0.  0.
         14    1    1    2    0    0 -0.58085943615E-02  0.19418762500E-01 -0.12164969072E-01  0.23639259253E-01  0.00000000000E+00 0. -1.
     999901    1    3    3    0    0 -0.20097218867E-01 -0.28349847402E-01 -0.11540091598E+00  0.88821449181E+00  0.88000000000E+00 0. -1.
        -11    1    4    4    0    0  0.23002582113E-01  0.80905121982E-03  0.65852363983E-01  0.69760793508E-01  0.51100000000E-03 0. -1.
         11    1    4    4    0    0  0.29032311154E-02  0.81220336815E-02  0.61713521065E-01  0.62315455429E-01  0.51100000000E-03 0.  1.
</event>
<event>
 8    1  0.1115874E+005  0.1043930E+01  0.7957747E-01            NaN
         13   -1    0    0    0    0  0.00000000000E+00  0.00000000000E+00  0.74505805969E-08  0.10566000000E+00  0.10566000000E+00 0.  1.
     999900   -1    0    0    0    0 -0.00000000000E+00 -0.00000000000E+00 -0.74505805969E-08  0.93827000000E+00  0.93827000000E+00 0.  1.
     999902    2    1    2    0    0 -0.15439528796E-01 -0.15441534311E-01 -0.11650247965E-01  0.10191802867E+01  0.10188797321E+01 0.  0.
     999903    2    3    3    0    0  0.11274061051E+00  0.33494508969E-01 -0.46796225110E-01  0.12785536044E+00  0.18021629203E-01 0.  0.
         14    1    1    2    0    0  0.15439528796E-01  0.15441534311E-01  0.11650247965E-01  0.24749713311E-01  0.00000000000E+00 0. -1.
     999901    1    3    3    0    0 -0.12818013931E+00 -0.48936043279E-01  0.35145977145E-01  0.89132492625E+00  0.88000000000E+00 0.  1.
        -11    1    4    4    0    0  0.53407783344E-01  0.21201970917E-01 -0.14838104979E-01  0.59349350231E-01  0.51100000000E-03 0. -1.
         11    1    4    4    0    0  0.59332827168E-01  0.12292538052E-01 -0.31958120131E-01  0.68506010209E-01  0.51100000000E-03 0.  1.
</event>
<event>
 8    1  0.1115874E+005  0.1043930E+01  0.7957747E-01            NaN
         13   -1    0    0    0    0  0.00000000000E+00  0.00000000000E+00  0.74505805969E-08  0.10566000000E+00  0.10566000000E+00 0.  1.
     999900   -1    0    0    0    0 -0.00000000000E+00 -0.00000000000E+00 -0.74505805969E-08  0.93827000000E+00  0.93827000000E+00 0.  1.
     999902    2    1    2    0    0  0.96973841369E-02 -0.15820376030E-01 -0.13997712784E-01  0.10206865166E+01  0.10204218273E+01 0.  0.
     999903    2    3    3    0    0 -0.45894756188E-01  0.11752886313E+00 -0.17495188098E-01  0.12889913277E+00  0.19736831221E-01 0.  0.
         14    1    1    2    0    0 -0.96973841369E-02  0.15820376030E-01  0.13997712784E-01  0.23243483388E-01  0.00000000000E+00 0.  1.
     999901    1    3    3    0    0  0.55592140325E-01 -0.13334923916E+00  0.34974753132E-02  0.89178738384E+00  0.88000000000E+00 0. -1.
        -11    1    4    4    0    0 -0.19126782026E-01  0.75184638395E-01 -0.93320930389E-02  0.78140339919E-01  0.51100000000E-03 0.  1.
         11    1    4    4    0    0 -0.26767974163E-01  0.42344224738E-01 -0.81630950587E-02  0.50758792848E-01  0.51100000000E-03 0. -1.
</event>
<event>
 8    1  0.1115874E+005  0.1043930E+01  0.7957747E-01            NaN
         13   -1    0    0    0    0  0.00000000000E+00  0.00000000000E+00  0.74505805969E-08  0.10566000000E+00  0.10566000000E+00 0. -1.
     999900   -1    0    0    0    0 -0.00000000000E+00 -0.00000000000E+00 -0.74505805969E-08  0.93827000000E+00  0.93827000000E+00 0.  1.
     999902    2    1    2    0    0 -0.99812809711E-02  0.77972738770E-02  0.21821310492E-01  0.10186992045E+01  0.10183867027E+01 0.  0.
     999903    2    3    3    0    0 -0.89776097859E-01 -0.89673488027E-01 -0.10073211193E-01  0.12915717473E+00  0.21886616866E-01 0.  0.
         14    1    1    2    0    0  0.99812809711E-02 -0.77972738770E-02 -0.21821310492E-01  0.25230795495E-01  0.00000000000E+00 0.  1.
     999901    1    3    3    0    0  0.79794816888E-01  0.97470761904E-01  0.31894521684E-01  0.88954202978E+00  0.88000000000E+00 0. -1.
        -11    1    4    4    0    0 -0.10517892897E-01 -0.19200087519E-01 -0.72253783270E-02  0.23059415532E-01  0.51100000000E-03 0.  1.
         11    1    4    4    0    0 -0.79258204962E-01 -0.70473400509E-01 -0.28478328658E-02  0.10609775919E+00  0.51100000000E-03 0. -1.
</event>
<event>
 8    1  0.1115874E+005  0.1043930E+01  0.7957747E-01            NaN
         13   -1    0    0    0    0  0.00000000000E+00  0.00000000000E+00  0.74505805969E-08  0.10566000000E+00  0.10566000000E+00 0. -1.
     999900   -1    0    0    0    0 -0.00000000000E+00 -0.00000000000E+00 -0.74505805969E-08  0.93827000000E+00  0.93827000000E+00 0.  1.
     999902    2    1    2    0    0 -0.25366074824E-01  0.70284350410E-02  0.42175048556E-02  0.10172724683E+01  0.10169231292E+01 0.  0.
     999903    2    3    3    0    0  0.46697612521E-01 -0.11369513571E+00 -0.18536629386E-01  0.12582134442E+00  0.19497517385E-01 0.  0.
         14    1    1    2    0    0  0.25366074824E-01 -0.70284350410E-02 -0.42175048556E-02  0.26657531737E-01  0.00000000000E+00 0.  1.
     999901    1    3    3    0    0 -0.72063687345E-01  0.12072357075E+00  0.22754134242E-01  0.89145112384E+00  0.88000000000E+00 0.  1.
        -11    1    4    4    0    0  0.10236742760E-01 -0.19766060637E-01 -0.10854017924E-01  0.24770120741E-01  0.51100000000E-03 0.  1.
         11    1    4    4    0    0  0.36460869761E-01 -0.93929075073E-01 -0.76826114625E-02  0.10105122368E+00  0.51100000000E-03 0. -1.
</event>
<event>
 8    1  0.1115874E+005  0.1043930E+01  0.7957747E-01            NaN
         13   -1    0    0    0    0  0.00000000000E+00  0.00000000000E+00  0.74505805969E-08  0.10566000000E+00  0.10566000000E+00 0.  1.
     999900   -1    0    0    0    0 -0.00000000000E+00 -0.00000000000E+00 -0.74505805969E-08  0.93827000000E+00  0.93827000000E+00 0.  1.
     999902    2    1    2    0    0  0.83493899322E-02 -0.37132063722E-03 -0.22072899870E-01  0.10203278158E+01  0.10200547968E+01 0.  0.
     999903    2    3    3    0    0 -0.22175886652E-01 -0.16403935981E-01  0.12336526948E+00  0.12772426528E+00  0.18265792152E-01 0.  0.
         14    1    1    2    0    0 -0.83493899322E-02  0.37132063722E-03  0.22072899870E-01  0.23602184219E-01  0.00000000000E+00 0.  1.
     999901    1    3    3    0    0  0.30525276584E-01  0.16032615344E-01 -0.14543816935E+00  0.89260355050E+00  0.88000000000E+00 0.  1.
        -11    1    4    4    0    0 -0.18445147738E-01 -0.82327195396E-02  0.51893026913E-01  0.55687956591E-01  0.51100000000E-03 0. -1.
         11    1    4    4    0    0 -0.37307389144E-02 -0.81712164415E-02  0.71472242566E-01  0.72036308688E-01  0.51100000000E-03 0.  1.
</event>
<event>
 8    1  0.1115874E+005  0.1043930E+01  0.7957747E-01            NaN
         13   -1    0    0    0    0  0.00000000000E+00  0.00000000000E+00  0.74505805969E-08  0.10566000000E+00  0.10566000000E+00 0. -1.
     999900   -1    0    0    0    0 -0.00000000000E+00 -0.00000000000E+00 -0.74505805969E-08  0.93827000000E+00  0.93827000000E+00 0.  1.
     999902    2    1    2    0    0 -0.16173950148E-01  0.18446069113E-01 -0.15110193519E-02  0.10193507952E+01  0.10190544178E+01 0.  0.
     999903    2    3    3    0    0  0.84700391480E-01 -0.87260722335E-01  0.29872955487E-01  0.12675093388E+00  0.19616722197E-01 0.  0.
         14    1    1    2    0    0  0.16173950148E-01 -0.18446069113E-01  0.15110193519E-02  0.24579204800E-01  0.00000000000E+00 0.  1.
     999901    1    3    3    0    0 -0.10087434163E+00  0.10570679145E+00 -0.31383974839E-01  0.89259986132E+00  0.88000000000E+00 0. -1.
        -11    1    4    4    0    0  0.32145814051E-01 -0.27362103197E-01  0.19106019932E-01  0.46339391138E-01  0.51100000000E-03 0. -1.
         11    1    4    4    0    0  0.52554577429E-01 -0.59898619139E-01  0.10766935555E-01  0.80411542739E-01  0.51100000000E-03 0.  1.
</event>
<event>
 8    1  0.1115874E+005  0.1043930E+01  0.7957747E-01            NaN
         13   -1    0    0    0    0  0.00000000000E+00  0.00000000000E+00  0.74505805969E-08  0.10566000000E+00  0.10566000000E+00 0. -1.
     999900   -1    0    0    0    0 -0.00000000000E+00 -0.00000000000E+00 -0.74505805969E-08  0.93827000000E+00  0.93827000000E+00 0. -1.
     999902    2    1    2    0    0 -0.16086979754E-02 -0.18269388192E-01 -0.13381202348E-01  0.10212272462E+01  0.10209748642E+01 0.  0.
     999903    2    3    3    0    0 -0.33416719502E-01 -0.85693484495E-01  0.92924118344E-01  0.13170007955E+00  0.15810400232E-01 0.  0.
         14    1    1    2    0    0  0.16086979754E-02  0.18269388192E-01  0.13381202348E-01  0.22702753806E-01  0.00000000000E+00 0. -1.
     999901    1    3    3    0    0  0.31808021527E-01  0.67424096303E-01 -0.10630532069E+00  0.88952716665E+00  0.88000000000E+00 0. -1.
        -11    1    4    4    0    0 -0.24079253203E-01 -0.41245666174E-01  0.43972222824E-01  0.64921744539E-01  0.51100000000E-03 0. -1.
         11    1    4    4    0    0 -0.93374662989E-02 -0.44447818321E-01  0.48951895520E-01  0.66778335008E-01  0.51100000000E-03 0.  1.
</event>
<event>
 8    1  0.1115874E+005  0.1043930E+01  0.7957747E-01            NaN
         13   -1    0    0    0    0  0.00000000000E+00  0.00000000000E+00  0.74505805969E-08  0.10566000000E+00  0.10566000000E+00 0. -1.
     999900   -1    0    0    0    0 -0.00000000000E+00 -0.00000000000E+00 -0.74505805969E-08  0.93827000000E+00  0.93827000000E+00 0.  1.
     999902    2    1    2    0    0 -0.11623307685E-01  0.22052567231E-01  0.85622057857E-02  0.10175722996E+01  0.10172308767E+01 0.  0.
     999903    2    3    3    0    0 -0.26120273483E-01  0.99013735485E-01  0.79072092875E-01  0.13128519734E+00  0.22302884733E-01 0.  0.
         14    1    1    2    0    0  0.11623307685E-01 -0.22052567231E-01 -0.85622057857E-02  0.26357700410E-01  0.00000000000E+00 0.  1.
     999901    1    3    3    0    0  0.14496965798E-01 -0.76961168254E-01 -0.70509887089E-01  0.88628710225E+00  0.88000000000E+00 0.  1.
        -11    1    4    4    0    0 -0.28323500854E-01  0.74624490022E-01  0.65681493410E-01  0.10336999037E+00  0.51100000000E-03 0. -1.
         11    1    4    4    0    0  0.22032273708E-02  0.24389245463E-01  0.13390599465E-01  0.27915206969E-01  0.51100000000E-03 0.  1.
</event>
<event>
 8    1  0.1115874E+005  0.1043930E+01  0.7957747E-01            NaN
         13   -1    0    0    0    0  0.00000000000E+00  0.00000000000E+00  0.74505805969E-08  0.10566000000E+00  0.10566000000E+00 0. -1.
     999900   -1    0    0    0    0 -0.00000000000E+00 -0.00000000000E+00 -0.74505805969E-08  0.93827000000E+00  0.93827000000E+00 0.  1.
     999902    2    1    2    0    0  0.20612322114E-01 -0.79978415586E-02  0.89162566424E-02  0.10200902658E+01  0.10198116579E+01 0.  0.
     999903    2    3    3    0    0  0.81038982813E-01  0.92205268305E-01 -0.41407995888E-01  0.13091954267E+00  0.18872633356E-01 0.  0.
         14    1    1    2    0    0 -0.20612322114E-01  0.79978415586E-02 -0.89162566424E-02  0.23839734165E-01  0.00000000000E+00 0.  1.
     999901    1    3    3    0    0 -0.60426660698E-01 -0.10020310986E+00  0.50324252530E-01  0.88917072317E+00  0.88000000000E+00 0. -1.
        -11    1    4    4    0    0  0.63299695043E-01  0.78747764285E-01 -0.27690722527E-01  0.10476210673E+00  0.51100000000E-03 0. -1.
         11    1    4    4    0    0  0.17739287769E-01  0.13457504020E-01 -0.13717273361E-01  0.26157435931E-01  0.51100000000E-03 0.  1.
</event>
<event>
 8    1  0.1115874E+005  0.1043930E+01  0.7957747E-01            NaN
         13   -1    0    0    0    0  0.00000000000E+00  0.00000000000E+00  0.74505805969E-08  0.10566000000E+00  0.10566000000E+00 0.  1.
     999900   -1    0    0    0    0 -0.00000000000E+00 -0.00000000000E+00 -0.74505805969E-08  0.93827000000E+00  0.93827000000E+00 0.  1.
     999902    2    1    2    0    0 -0.22124998618E-01 -0.72315948375E-02 -0.40688178681E-02  0.10203002136E+01  0.10200265482E+01 0.  0.
     999903    2    3    3    0    0 -0.12932462553E+00 -0.26863382502E-01 -0.31152914536E-02  0.13357698939E+00  0.19662323516E-01 0.  0.
         14    1    1    2    0    0  0.22124998618E-01  0.72315948375E-02  0.40688178681E-02  0.23629786427E-01  0.00000000000E+00 0. -1.
     999901    1    3    3    0    0  0.10719962691E+00  0.19631787665E-01 -0.95352641459E-03  0.88672322418E+00  0.88000000000E+00 0. -1.
        -11    1    4    4    0    0 -0.56923189352E-01 -0.73252384625E-02  0.73258681550E-02  0.57860505267E-01  0.51100000000E-03 0.  1.
         11    1    4    4    0    0 -0.72401436174E-01 -0.19538144040E-01 -0.10441159609E-01  0.75716484121E-01  0.51100000000E-03 0. -1.
</event>
<event>
 8    1  0.1115874E+005  0.1043930E+01  0.7957747E-01            NaN
         13   -1    0    0    0    0  0.00000000000E+00  0.00000000000E+00  0.74505805969E-08  0.10566000000E+00  0.10566000000E+00 0. -1.
     999900   -1    0    0    0    0 -0.00000000000E+00 -0.00000000000E+00 -0.74505805969E-08  0.93827000000E+00  0.93827000000E+00 0.  1.
     999902    2    1    2    0    0  0.18993724674E-01 -0.46503018980E-02  0.93896610054E-02  0.10222377752E+01  0.10220075911E+01 0.  0.
     999903    2    3    3    0    0  0.12487660820E+00 -0.46730695297E-01 -0.15227051504E-02  0.13482523059E+00  0.19939884978E-01 0.  0.
         14    1    1    2    0    0 -0.18993724674E-01  0.46503018980E-02 -0.93896610054E-02  0.21692224841E-01  0.00000000000E+00 0. -1.
     999901    1    3    3    0    0 -0.10588288353E+00  0.42080393399E-01  0.10912366156E-01  0.88741254457E+00  0.88000000000E+00 0.  1.
        -11    1    4    4    0    0  0.95864472034E-01 -0.35062521895E-01 -0.95917776809E-02  0.10252629302E+00  0.51100000000E-03 0. -1.
         11    1    4    4    0    0  0.29012136166E-01 -0.11668173402E-01  0.80690725305E-02  0.32298937567E-01  0.51100000000E-03 0.  1.
</event>
<event>
 8    1  0.1115874E+005  0.1043930E+01  0.7957747E-01            NaN
         13   -1    0    0    0    0  0.00000000000E+00  0.00000000000E+00  0.74505805969E-08  0.10566000000E+00  0.10566000000E+00 0.  1.
     999900   -1    0    0    0    0 -0.00000000000E+00 -0.00000000000E+00 -0.74505805969E-08  0.93827000000E+00  0.93827000000E+00 0.  1.
     999902    2    1    2    0    0 -0.54360317716E-02  0.15049133985E-01 -0.16973770182E-01  0.10206032825E+01  0.10203366721E+01 0.  0.
     999903    2    3    3    0    0 -0.11725530764E-01  0.24641881872E-01 -0.12917586615E+00  0.13340494563E+00  0.19124976012E-01 0.  0.
         14    1    1    2    0    0  0.54360317716E-02 -0.15049133985E-01  0.16973770182E-01  0.23326717500E-01  0.00000000000E+00 0.  1.
     999901    1    3    3    0    0  0.62894989928E-02 -0.95927478871E-02  0.11220209597E+00  0.88719833687E+00  0.88000000000E+00 0. -1.
        -11    1    4    4    0    0  0.38281171422E-02  0.13559942784E-01 -0.60512054330E-01  0.62132892813E-01  0.51100000000E-03 0.  1.
         11    1    4    4    0    0 -0.15553647907E-01  0.11081939088E-01 -0.68663811824E-01  0.71272052814E-01  0.51100000000E-03 0. -1.
</event>
<event>
 8    1  0.1115874E+005  0.1043930E+01  0.7957747E-01            NaN
         13   -1    0    0    0    0  0.00000000000E+00  0.00000000000E+00  0.74505805969E-08  0.10566000000E+00  0.10566000000E+00 0. -1.
     999900   -1    0    0    0    0 -0.00000000000E+00 -0.00000000000E+00 -0.74505805969E-08  0.93827000000E+00  0.93827000000E+00 0.  1.
     999902    2    1    2    0    0 -0.69847863312E-03  0.10407448302E-01  0.24227664383E-01  0.10175523092E+01  0.10172103614E+01 0.  0.
     999903    2    3    3    0    0  0.11798926062E+00  0.93986245400E-02 -0.41463921917E-01  0.12715735091E+00  0.20974634803E-01 0.  0.
         14    1    1    2    0    0  0.69847863312E-03 -0.10407448302E-01 -0.24227664383E-01  0.26377690839E-01  0.00000000000E+00 0.  1.
     999901    1    3    3    0    0 -0.11868773925E+00  0.10088237624E-02  0.65691586300E-01  0.89039495825E+00  0.88000000000E+00 0. -1.
        -11    1    4    4    0    0  0.26572784712E-01  0.61535921061E-02 -0.14678449789E-02  0.27320235596E-01  0.51100000000E-03 0. -1.
         11    1    4    4    0    0  0.91416475903E-01  0.32450324339E-02 -0.39996076938E-01  0.99837115310E-01  0.51100000000E-03 0.  1.
</event>
<event>
 8    1  0.1115874E+005  0.1043930E+01  0.7957747E-01            NaN
         13   -1    0    0    0    0  0.00000000000E+00  0.00000000000E+00  0.74505805969E-08  0.10566000000E+00  0.10566000000E+00 0. -1.
     999900   -1    0    0    0    0 -0.00000000000E+00 -0.00000000000E+00 -0.74505805969E-08  0.93827000000E+00  0.93827000000E+00 0. -1.
     999902    2    1    2    0    0  0.23829900383E-01 -0.35976208475E-02 -0.20943805759E-03  0.10198291516E+01  0.10195443333E+01 0.  0.
     999903    2    3    3    0    0  0.11071894687E+00  0.68531076585E-01  0.13343967171E-01  0.13250962057E+00  0.20628728311E-01 0.  0.
         14    1    1    2    0    0 -0.23829900383E-01  0.35976208475E-02  0.20943805759E-03  0.24100848374E-01  0.00000000000E+00 0. -1.
     999901    1    3    3    0    0 -0.86889046483E-01 -0.72128697433E-01 -0.13553405228E-01  0.88731953105E+00  0.88000000000E+00 0.  1.
        -11    1    4    4    0    0  0.49483342901E-01  0.21393176753E-01 -0.94592268973E-03  0.53920544573E-01  0.51100000000E-03 0.  1.
         11    1    4    4    0    0  0.61235603965E-01  0.47137899832E-01  0.14289889861E-01  0.78589076002E-01  0.51100000000E-03 0. -1.
</event>
<event>
 8    1  0.1115874E+005  0.1043930E+01  0.7957747E-01            NaN
         13   -1    0    0    0    0  0.00000000000E+00  0.00000000000E+00  0.74505805969E-08  0.10566000000E+00  0.10566000000E+00 0.  1.
     999900   -1    0    0    0    0 -0.00000000000E+00 -0.00000000000E+00 -0.74505805969E-08  0.93827000000E+00  0.93827000000E+00 0.  1.
     999902    2    1    2    0    0 -0.20002305125E-01  0.13183083121E-01  0.94689088726E-02  0.10181706109E+01  0.10178447066E+01 0.  0.
     999903    2    3    3    0    0 -0.25717221143E-01 -0.90696906611E-01  0.85405201652E-01  0.12879440643E+00  0.20165473644E-01 0.  0.
         14    1    1    2    0    0  0.20002305125E-01 -0.13183083121E-01 -0.94689088726E-02  0.25759389087E-01  0.00000000000E+00 0. -1.
     999901    1    3    3    0    0  0.57149160172E-02  0.10387998973E+00 -0.75936292779E-01  0.88937620448E+00  0.88000000000E+00 0.  1.
        -11    1    4    4    0    0 -0.27506203611E-02 -0.31594584351E-01  0.18984276877E-01  0.36965491505E-01  0.51100000000E-03 0. -1.
         11    1    4    4    0    0 -0.22966600781E-01 -0.59102322261E-01  0.66420924775E-01  0.91828914929E-01  0.51100000000E-03 0.  1.
</event>
<event>
 8    1  0.1115874E+005  0.1043930E+01  0.7957747E-01            NaN
         13   -1    0    0    0    0  0.00000000000E+00  0.00000000000E+00  0.74505805969E-08  0.10566000000E+00  0.10566000000E+00 0.  1.
     999900   -1    0    0    0    0 -0.00000000000E+00 -0.00000000000E+00 -0.74505805969E-08  0.93827000000E+00  0.93827000000E+00 0.  1.
     999902    2    1    2    0    0 -0.19913620550E-02  0.10051449425E-01  0.21704842017E-01  0.10199279725E+01  0.10196455128E+01 0.  0.
     999903    2    3    3    0    0 -0.53594296794E-01 -0.43084281505E-01  0.11097105349E+00  0.13231616245E+00  0.21549667574E-01 0.  0.
         14    1    1    2    0    0  0.19913620550E-02 -0.10051449425E-01 -0.21704842017E-01  0.24002027526E-01  0.00000000000E+00 0. -1.
     999901    1    3    3    0    0  0.51602934739E-01  0.53135730930E-01 -0.89266211472E-01  0.88761181002E+00  0.88000000000E+00 0. -1.
        -11    1    4    4    0    0 -0.20310165013E-02 -0.10984209425E-01  0.14413747110E-01  0.18242672816E-01  0.51100000000E-03 0.  1.
         11    1    4    4    0    0 -0.51563280292E-01 -0.32100072080E-01  0.96557306380E-01  0.11407348964E+00  0.51100000000E-03 0. -1.
</event>
<event>
 8    1  0.1115874E+005  0.1043930E+01  0.7957747E-01            NaN
         13   -1    0    0    0    0  0.00000000000E+00  0.00000000000E+00  0.74505805969E-08  0.10566000000E+00  0.10566000000E+00 0.  1.
     999900   -1    0    0    0    0 -0.00000000000E+00 -0.00000000000E+00 -0.74505805969E-08  0.93827000000E+00  0.93827000000E+00 0.  1.
     999902    2    1    2    0    0  0.14915476743E-01 -0.13557081870E-01  0.12935096783E-01  0.10199804145E+01  0.10196992024E+01 0.  0.
     999903    2    3    3    0    0  0.11758300549E+00  0.49206171419E-01  0.28662323494E-01  0.13165210074E+00  0.16239961691E-01 0.  0.
         14    1    1    2    0    0 -0.14915476743E-01  0.13557081870E-01 -0.12935096783E-01  0.23949585468E-01  0.00000000000E+00 0.  1.
     999901    1    3    3    0    0 -0.10266752875E+00 -0.62763253289E-01 -0.15727226711E-01  0.88832831379E+00  0.88000000000E+00 0.  1.
        -11    1    4    4    0    0  0.67037393388E-01  0.19883370084E-01  0.18568374039E-01  0.72349195943E-01  0.51100000000E-03 0. -1.
         11    1    4    4    0    0  0.50545612102E-01  0.29322801335E-01  0.10093949456E-01  0.59302904799E-01  0.51100000000E-03 0.  1.
</event>
<event>
 8    1  0.1115874E+005  0.1043930E+01  0.7957747E-01            NaN
         13   -1    0    0    0    0  0.00000000000E+00  0.00000000000E+00  0.74505805969E-08  0.10566000000E+00  0.10566000000E+00 0. -1.
     999900   -1    0    0    0    0 -0.00000000000E+00 -0.00000000000E+00 -0.74505805969E-08  0.93827000000E+00  0.93827000000E+00 0.  1.
     999902    2    1    2    0    0 -0.35159258886E-02 -0.21702428079E-01 -0.18856149688E-02  0.10218639024E+01  0.10216256273E+01 0.  0.
     999903    2    3    3    0    0  0.48502777667E-01  0.55278172288E-01 -0.10581848307E+00  0.13089027798E+00  0.22945974309E-01 0.  0.
         14    1    1    2    0    0  0.35159258886E-02  0.21702428079E-01  0.18856149688E-02  0.22066097598E-01  0.00000000000E+00 0.  1.
     999901    1    3    3    0    0 -0.52018703556E-01 -0.76980600368E-01  0.10393286810E+00  0.89097362443E+00  0.88000000000E+00 0. -1.
        -11    1    4    4    0    0  0.23630234357E-01  0.11276282421E-01 -0.30756419551E-01  0.40395061401E-01  0.51100000000E-03 0. -1.
         11    1    4    4    0    0  0.24872543310E-01  0.44001889867E-01 -0.75062063516E-01  0.90495216574E-01  0.51100000000E-03 0.  1.
</event>
<event>
 8    1  0.1115874E+005  0.1043930E+01  0.7957747E-01            NaN
         13   -1    0    0    0    0  0.00000000000E+00  0.00000000000E+00  0.74505805969E-08  0.10566000000E+00  0.10566000000E+00 0.  1.
     999900   -1    0    0    0    0 -0.00000000000E+00 -0.00000000000E+00 -0.74505805969E-08  0.93827000000E+00  0.93827000000E+00 0. -1.
     999902    2    1    2    0    0 -0.18398945823E-01 -0.36140591008E-02 -0.12159577102E-01  0.10215818917E+01  0.10213374190E+01 0.  0.
     999903    2    3    3    0    0 -0.55453530077E-01  0.27049495280E-01 -0.11730910560E+00  0.13401796771E+00  0.19814646582E-01 0.  0.
         14    1    1    2    0    0  0.18398945823E-01  0.36140591008E-02  0.12159577102E-01  0.22348108329E-01  0.00000000000E+00 0.  1.
     999901    1    3    3    0    0  0.37054584253E-01 -0.30663554381E-01  0.10514952849E+00  0.88756392396E+00  0.88000000000E+00 0.  1.
        -11    1    4    4    0    0 -0.37496139923E-02  0.86800991023E-02 -0.12158056409E-01  0.15410489355E-01  0.51100000000E-03 0. -1.
         11    1    4    4    0    0 -0.51703916084E-01  0.18369396177E-01 -0.10515104919E+00  0.11860747835E+00  0.51100000000E-03 0.  1.
</event>
<event>
 8    1  0.1115874E+005  0.1043930E+01  0.7957747E-01            NaN
         13   -1    0    0    0    0  0.00000000000E+00  0.00000000000E+00  0.74505805969E-08  0.10566000000E+00  0.10566000000E+00 0. -1.
     999900   -1    0    0    0    0 -0.00000000000E+00 -0.00000000000E+00 -0.74505805969E-08  0.93827000000E+00  0.93827000000E+00 0.  1.
     999902    2    1    2    0    0  0.40202523365E-03  0.91320615274E-02  0.20921430453E-01  0.10210988278E+01  0.10208435501E+01 0.  0.
     999903    2    3    3    0    0 -0.42217086285E-01 -0.40987176329E-01  0.11800004914E+00  0.13331924655E+00  0.19692102628E-01 0.  0.
         14    1    1    2    0    0 -0.40202523365E-03 -0.91320615274E-02 -0.20921430453E-01  0.22831172204E-01  0.00000000000E+00 0.  1.
     999901    1    3    3    0    0  0.42619111519E-01  0.50119237857E-01 -0.97078618687E-01  0.88777958125E+00  0.88000000000E+00 0.  1.
        -11    1    4    4    0    0 -0.61347672129E-02 -0.83410005181E-02  0.40522363857E-01  0.41827392364E-01  0.51100000000E-03 0.  1.
         11    1    4    4    0    0 -0.36082319072E-01 -0.32646175811E-01  0.77477685283E-01  0.91491854187E-01  0.51100000000E-03 0. -1.
</event>
<event>
 8    1  0.1115874E+005  0.1043930E+01  0.7957747E-01            NaN
         13   -1    0    0    0    0  0.00000000000E+00  0.00000000000E+00  0.74505805969E-08  0.10566000000E+00  0.10566000000E+00 0. -1.
     999900   -1    0    0    0    0 -0.00000000000E+00 -0.00000000000E+00 -0.74505805969E-08  0.93827000000E+00  0.93827000000E+00 0.  1.
     999902    2    1    2    0    0  0.32031719700E-02 -0.18804840684E-01  0.13673714074E-01  0.10204597465E+01  0.10201898065E+01 0.  0.
     999903    2    3    3    0    0  0.12958807253E+00 -0.35573241484E-02 -0.25566042325E-02  0.13115155857E+00  0.19709692898E-01 0.  0.
         14    1    1    2    0    0 -0.32031719700E-02  0.18804840684E-01 -0.13673714074E-01  0.23470253522E-01  0.00000000000E+00 0.  1.
     999901    1    3    3    0    0 -0.12638490056E+00 -0.15247516535E-01  0.16230318306E-01  0.88930818791E+00  0.88000000000E+00 0. -1.
        -11    1    4    4    0    0  0.43417663128E-01 -0.61479545289E-02 -0.87513226781E-02  0.44718425576E-01  0.51100000000E-03 0.  1.
         11    1    4    4    0    0  0.86170409397E-01  0.25906303805E-02  0.61947184456E-02  0.86433132993E-01  0.51100000000E-03 0. -1.
</event>
<event>
 8    1  0.1115874E+005  0.1043930E+01  0.7957747E-01            NaN
         13   -1    0    0    0    0  0.00000000000E+00  0.00000000000E+00  0.74505805969E-08  0.10566000000E+00  0.10566000000E+00 0. -1.
     999900   -1    0    0    0    0 -0.00000000000E+00 -0.00000000000E+00 -0.74505805969E-08  0.93827000000E+00  0.93827000000E+00 0.  1.
     999902    2    1    2    0    0  0.15658144364E-01  0.23037891877E-02 -0.18005679647E-01  0.10199573191E+01  0.10196755579E+01 0.  0.
     999903    2    3    3    0    0 -0.88202940753E-01  0.95632346610E-02 -0.93711528781E-01  0.13059170242E+00  0.20028177668E-01 0.  0.
         14    1    1    2    0    0 -0.15658144364E-01 -0.23037891877E-02  0.18005679647E-01  0.23972680891E-01  0.00000000000E+00 0. -1.
     999901    1    3    3    0    0  0.10386108512E+00 -0.72594454733E-02  0.75705849134E-01  0.88936561669E+00  0.88000000000E+00 0. -1.
        -11    1    4    4    0    0 -0.57820060470E-01 -0.33933970111E-03 -0.70013295166E-01  0.90804169316E-01  0.51100000000E-03 0.  1.
         11    1    4    4    0    0 -0.30382880283E-01  0.99025743621E-02 -0.23698233615E-01  0.39787533107E-01  0.51100000000E-03 0. -1.
</event>
<event>
 8    1  0.1115874E+005  0.1043930E+01  0.7957747E-01            NaN
         13   -1    0    0    0    0  0.00000000000E+00  0.00000000000E+00  0.74505805969E-08  0.10566000000E+00  0.10566000000E+00 0.  1.
     999900   -1    0    0    0    0 -0.00000000000E+00 -0.00000000000E+00 -0.74505805969E-08  0.93827000000E+00  0.93827000000E+00 0. -1.
     999902    2    1    2    0    0 -0.20869003274E-02 -0.15091858620E-01  0.18360697847E-01  0.10200713627E+01  0.10197923075E+01 0.  0.
     999903    2    3    3    0    0 -0.77224566708E-01  0.61212231415E-01 -0.78292709169E-01  0.12832595946E+00  0.25044611883E-01 0.  0.
         14    1    1    2    0    0  0.20869003274E-02  0.15091858620E-01 -0.18360697847E-01  0.23858637325E-01  0.00000000000E+00 0. -1.
     999901    1    3    3    0    0  0.75137666381E-01 -0.76304090036E-01  0.96653407016E-01  0.89174540321E+00  0.88000000000E+00 0. -1.
        -11    1    4    4    0    0 -0.38246755261E-01  0.44329247603E-01 -0.52415843269E-01  0.78584847316E-01  0.51100000000E-03 0.  1.
         11    1    4    4    0    0 -0.38977811447E-01  0.16882983813E-01 -0.25876865900E-01  0.49741112145E-01  0.51100000000E-03 0. -1.
</event>
<event>
 8    1  0.1115874E+005  0.1043930E+01  0.7957747E-01            NaN
         13   -1    0    0    0    0  0.00000000000E+00  0.00000000000E+00  0.74505805969E-08  0.10566000000E+00  0.10566000000E+00 0. -1.
     999900   -1    0    0    0    0 -0.00000000000E+00 -0.00000000000E+00 -0.74505805969E-08  0.93827000000E+00  0.93827000000E+00 0.  1.
     999902    2    1    2    0    0  0.63029462608E-02 -0.74653597904E-02 -0.91366483526E-02  0.10305532638E+01  0.10304664441E+01 0.  0.
     999903    2    3    3    0    0 -0.62407992416E-03 -0.89270374531E-01 -0.10768474404E+00  0.14125479236E+00  0.19680523923E-01 0.  0.
         14    1    1    2    0    0 -0.63029462608E-02  0.74653597904E-02  0.91366483526E-02  0.13376736205E-01  0.00000000000E+00 0. -1.
     999901    1    3    3    0    0  0.69270261850E-02  0.81805014741E-01  0.98548095687E-01  0.88929847143E+00  0.88000000000E+00 0. -1.
        -11    1    4    4    0    0  0.61372248239E-02 -0.41696695549E-01 -0.38968590957E-01  0.57402893223E-01  0.51100000000E-03 0. -1.
         11    1    4    4    0    0 -0.67613047480E-02 -0.47573678983E-01 -0.68716153083E-01  0.83851899140E-01  0.51100000000E-03 0.  1.
</event>
<event>
 8    1  0.1115874E+005  0.1043930E+01  0.7957747E-01            NaN
         13   -1    0    0    0    0  0.00000000000E+00  0.00000000000E+00  0.74505805969E-08  0.10566000000E+00  0.10566000000E+00 0. -1.
     999900   -1    0    0    0    0 -0.00000000000E+00 -0.00000000000E+00 -0.74505805969E-08  0.93827000000E+00  0.93827000000E+00 0.  1.
     999902    2    1    2    0    0  0.24823698293E-01  0.11618493108E-01  0.10348761919E-01  0.10146332041E+01  0.10142101540E+01 0.  0.
     999903    2    3    3    0    0 -0.10856755070E+00 -0.47520263022E-01 -0.21226528585E-01  0.12205961227E+00  0.20072243765E-01 0.  0.
         14    1    1    2    0    0 -0.24823698293E-01 -0.11618493108E-01 -0.10348761919E-01  0.29296795940E-01  0.00000000000E+00 0.  1.
     999901    1    3    3    0    0  0.13339124899E+00  0.59138756131E-01  0.31575290504E-01  0.89257359179E+00  0.88000000000E+00 0.  1.
        -11    1    4    4    0    0 -0.23531114575E-01 -0.31225960223E-02 -0.88302264554E-02  0.25331758315E-01  0.51100000000E-03 0. -1.
         11    1    4    4    0    0 -0.85036436126E-01 -0.44397667000E-01 -0.12396302129E-01  0.96727853959E-01  0.51100000000E-03 0.  1.
</event>
<event>
 8    1  0.1115874E+005  0.1043930E+01  0.7957747E-01            NaN
         13   -1    0    0    0    0  0.00000000000E+00  0.00000000000E+00  0.74505805969E-08  0.10566000000E+00  0.10566000000E+00 0. -1.
     999900   -1    0    0    0    0 -0.00000000000E+00 -0.00000000000E+00 -0.74505805969E-08  0.93827000000E+00  0.93827000000E+00 0.  1.
     999902    2    1    2    0    0  0.13336206503E-01  0.14048297541E-01 -0.12214493180E-01  0.10210301548E+01  0.10207733216E+01 0.  0.
     999903    2    3    3    0    0  0.92105675859E-01 -0.33275982714E-01  0.85121518155E-01  0.13090740149E+00  0.17329984480E-01 0.  0.
         14    1    1    2    0    0 -0.13336206503E-01 -0.14048297541E-01  0.12214493180E-01  0.22899845225E-01  0.00000000000E+00 0. -1.
     999901    1    3    3    0    0 -0.78769469356E-01  0.47324280255E-01 -0.97336011335E-01  0.89012275328E+00  0.88000000000E+00 0.  1.
        -11    1    4    4    0    0  0.69879285971E-01 -0.22547884225E-01  0.53805914787E-01  0.91032188141E-01  0.51100000000E-03 0.  1.
         11    1    4    4    0    0  0.22226389889E-01 -0.10728098489E-01  0.31315603368E-01  0.39875213353E-01  0.51100000000E-03 0. -1.
</event>
<event>
 8    1  0.1115874E+005  0.1043930E+01  0.7957747E-01            NaN
         13   -1    0    0    0    0  0.00000000000E+00  0.00000000000E+00  0.74505805969E-08  0.10566000000E+00  0.10566000000E+00 0.  1.
     999900   -1    0    0    0    0 -0.00000000000E+00 -0.00000000000E+00 -0.74505805969E-08  0.93827000000E+00  0.93827000000E+00 0.  1.
     999902    2    1    2    0    0 -0.16753192016E-01 -0.14699328852E-01 -0.90638327417E-02  0.10198698093E+01  0.10195859626E+01 0.  0.
     999903    2    3    3    0    0 -0.58873003104E-01  0.10659917440E+00 -0.41026706989E-01  0.12997710191E+00  0.19530536525E-01 0.  0.
         14    1    1    2    0    0  0.16753192016E-01  0.14699328852E-01  0.90638327417E-02  0.24060190677E-01  0.00000000000E+00 0. -1.
     999901    1    3    3    0    0  0.42119811088E-01 -0.12129850325E+00  0.31962874247E-01  0.88989270741E+00  0.88000000000E+00 0. -1.
        -11    1    4    4    0    0 -0.44809946793E-01  0.89703745866E-01 -0.26822175464E-01  0.10379972819E+00  0.51100000000E-03 0. -1.
         11    1    4    4    0    0 -0.14063056311E-01  0.16895428536E-01 -0.14204531525E-01  0.26177373723E-01  0.51100000000E-03 0.  1.
</event>
<event>
 8    1  0.1115874E+005  0.1043930E+01  0.7957747E-01            NaN
         13   -1    0    0    0    0  0.00000000000E+00  0.00000000000E+00  0.74505805969E-08  0.10566000000E+00  0.10566000000E+00 0. -1.
     999900   -1    0    0    0    0 -0.00000000000E+00 -0.00000000000E+00 -0.74505805969E-08  0.93827000000E+00  0.93827000000E+00 0. -1.
     999902    2    1    2    0    0 -0.67220679294E-02 -0.16319973712E-01  0.13861894182E-01  0.10214871871E+01  0.10212406149E+01 0.  0.
     999903    2    3    3    0    0 -0.10934358507E+00 -0.93183331129E-02  0.73150456956E-01  0.13351459047E+00  0.20791959656E-01 0.  0.
         14    1    1    2    0    0  0.67220679294E-02  0.16319973712E-01 -0.13861894182E-01  0.22442812870E-01  0.00000000000E+00 0. -1.
     999901    1    3    3    0    0  0.10262151714E+00 -0.70016405991E-02 -0.59288562774E-01  0.88797259666E+00  0.88000000000E+00 0. -1.
        -11    1    4    4    0    0 -0.82714318737E-01 -0.10480444642E-01  0.64737931441E-01  0.10555926834E+00  0.51100000000E-03 0. -1.
         11    1    4    4    0    0 -0.26629266334E-01  0.11621115292E-02  0.84125255144E-02  0.27955322127E-01  0.51100000000E-03 0.  1.
</event>
<event>
 8    1  0.1115874E+005  0.1043930E+01  0.7957747E-01            NaN
         13   -1    0    0    0    0  0.00000000000E+00  0.00000000000E+00  0.74505805969E-08  0.10566000000E+00  0.10566000000E+00 0.  1.
     999900   -1    0    0    0    0 -0.00000000000E+00 -0.00000000000E+00 -0.74505805969E-08  0.93827000000E+00  0.93827000000E+00 0.  1.
     999902    2    1    2    0    0  0.98611782836E-02 -0.15998912753E-01 -0.14453905291E-01  0.10202208578E+01  0.10199453295E+01 0.  0.
     999903    2    3    3    0    0 -0.10932422527E+00  0.39632302112E-01 -0.53774936078E-01  0.12957719394E+00  0.19390715236E-01 0.  0.
         14    1    1    2    0    0 -0.98611782836E-02  0.15998912753E-01  0.14453905291E-01  0.23709142215E-01  0.00000000000E+00 0.  1.
     999901    1    3    3    0    0  0.11918540355E+00 -0.55631214865E-01  0.39321030787E-01  0.89064366385E+00  0.88000000000E+00 0.  1.
        -11    1    4    4    0    0 -0.38219000348E-01  0.11330594856E-01 -0.28399935613E-01  0.48947848076E-01  0.51100000000E-03 0.  1.
         11    1    4    4    0    0 -0.71105224921E-01  0.28301707256E-01 -0.25375000465E-01  0.80629345863E-01  0.51100000000E-03 0. -1.
</event>
<event>
 8    1  0.1115874E+005  0.1043930E+01  0.7957747E-01            NaN
         13   -1    0    0    0    0  0.00000000000E+00  0.00000000000E+00  0.74505805969E-08  0.10566000000E+00  0.10566000000E+00 0.  1.
     999900   -1    0    0    0    0 -0.00000000000E+00 -0.00000000000E+00 -0.74505805969E-08  0.93827000000E+00  0.93827000000E+00 0.  1.
     999902    2    1    2    0    0 -0.91729697575E-02 -0.20889221269E-01 -0.30717995208E-02  0.10209095984E+01  0.10206500228E+01 0.  0.
     999903    2    3    3    0    0  0.12673343491E+00  0.18280843272E-01  0.28778625493E-02  0.12959582462E+00  0.19779861197E-01 0.  0.
         14    1    1    2    0    0  0.91729697575E-02  0.20889221269E-01  0.30717995208E-02  0.23020401641E-01  0.00000000000E+00 0. -1.
     999901    1    3    3    0    0 -0.13590640467E+00 -0.39170064541E-01 -0.59496620701E-02  0.89131377374E+00  0.88000000000E+00 0.  1.
        -11    1    4    4    0    0  0.11895019514E-01  0.10437563242E-02  0.61141216469E-02  0.13424772662E-01  0.51100000000E-03 0. -1.
         11    1    4    4    0    0  0.11483841540E+00  0.17237086948E-01 -0.32362590975E-02  0.11617105195E+00  0.51100000000E-03 0.  1.
</event>
<event>
 8    1  0.1115874E+005  0.1043930E+01  0.7957747E-01            NaN
         13   -1    0    0    0    0  0.00000000000E+00  0.00000000000E+00  0.74505805969E-08  0.10566000000E+00  0.10566000000E+00 0.  1.
     999900   -1    0    0    0    0 -0.00000000000E+00 -0.00000000000E+00 -0.74505805969E-08  0.93827000000E+00  0.93827000000E+00 0.  1.
     999902    2    1    2    0    0  0.12010545957E-02 -0.20188364825E-02  0.22759008261E-01  0.10210500811E+01  0.10207936997E+01 0.  0.
     999903    2    3    3    0    0 -0.59480198351E-01  0.42519425244E-02  0.11808728671E+00  0.13380207866E+00  0.20060308027E-01 0.  0.
         14    1    1    2    0    0 -0.12010545957E-02  0.20188364825E-02 -0.22759008261E-01  0.22879918923E-01  0.00000000000E+00 0. -1.
     999901    1    3    3    0    0  0.60681252946E-01 -0.62707790068E-02 -0.95328278452E-01  0.88724800242E+00  0.88000000000E+00 0.  1.
        -11    1    4    4    0    0 -0.42342628206E-01 -0.10624683857E-02  0.98566478069E-01  0.10728298431E+00  0.51100000000E-03 0. -1.
         11    1    4    4    0    0 -0.17137570145E-01  0.53144109101E-02  0.19520808644E-01  0.26519094345E-01  0.51100000000E-03 0.  1.
</event>
<event>
 8    1  0.1115874E+005  0.1043930E+01  0.7957747E-01            NaN
         13   -1    0    0    0    0  0.00000000000E+00  0.00000000000E+00  0.74505805969E-08  0.10566000000E+00  0.10566000000E+00 0.  1.
     999900   -1    0    0    0    0 -0.00000000000E+00 -0.00000000000E+00 -0.74505805969E-08  0.93827000000E+00  0.93827000000E+00 0.  1.
     999902    2    1    2    0    0  0.64152815166E-02  0.30050609608E-02 -0.22192644731E-01  0.10206340839E+01  0.10203681852E+01 0.  0.
     999903    2    3    3    0    0  0.11545588030E+00  0.46167835076E-01 -0.36789053188E-01  0.13273435282E+00  0.28345099968E-01 0.  0.
         14    1    1    2    0    0 -0.64152815166E-02 -0.30050609608E-02  0.22192644731E-01  0.23295916133E-01  0.00000000000E+00 0.  1.
     999901    1    3    3    0    0 -0.10904059879E+00 -0.43162774115E-01  0.14596408457E-01  0.88789973105E+00  0.88000000000E+00 0.  1.
        -11    1    4    4    0    0  0.70899323894E-01  0.37044081816E-01 -0.34715245678E-01  0.87203139449E-01  0.51100000000E-03 0. -1.
         11    1    4    4    0    0  0.44556556408E-01  0.91237532597E-02 -0.20738075099E-02  0.45531213372E-01  0.51100000000E-03 0.  1.
</event>
<event>
 8    1  0.1115874E+005  0.1043930E+01  0.7957747E-01            NaN
         13   -1    0    0    0    0  0.00000000000E+00  0.00000000000E+00  0.74505805969E-08  0.10566000000E+00  0.10566000000E+00 0.  1.
     999900   -1    0    0    0    0 -0.00000000000E+00 -0.00000000000E+00 -0.74505805969E-08  0.93827000000E+00  0.93827000000E+00 0. -1.
     999902    2    1    2    0    0  0.12612597781E-01 -0.77480666876E-02 -0.17106578233E-01  0.10213082145E+01  0.10210576496E+01 0.  0.
     999903    2    3    3    0    0  0.56494809607E-01 -0.79937481946E-01  0.84882606930E-01  0.13139880671E+00  0.21884353162E-01 0.  0.
         14    1    1    2    0    0 -0.12612597781E-01  0.77480666876E-02  0.17106578233E-01  0.22621785496E-01  0.00000000000E+00 0. -1.
     999901    1    3    3    0    0 -0.43882211825E-01  0.72189415259E-01 -0.10198918516E+00  0.88990940779E+00  0.88000000000E+00 0. -1.
        -11    1    4    4    0    0  0.16334776194E-01 -0.39989089736E-01  0.30581912812E-01  0.52928883640E-01  0.51100000000E-03 0.  1.
         11    1    4    4    0    0  0.40160033413E-01 -0.39948392210E-01  0.54300694118E-01  0.78469923070E-01  0.51100000000E-03 0. -1.
</event>
<event>
 8    1  0.1115874E+005  0.1043930E+01  0.7957747E-01            NaN
         13   -1    0    0    0    0  0.00000000000E+00  0.00000000000E+00  0.74505805969E-08  0.10566000000E+00  0.10566000000E+00 0. -1.
     999900   -1    0    0    0    0 -0.00000000000E+00 -0.00000000000E+00 -0.74505805969E-08  0.93827000000E+00  0.93827000000E+00 0. -1.
     999902    2    1    2    0    0 -0.14959397773E-01 -0.14654805508E-01  0.11922767158E-01  0.10198322971E+01  0.10195475541E+01 0.  0.
     999903    2    3    3    0    0 -0.64067128021E-01  0.26351954559E-01 -0.10723965459E+00  0.12949932219E+00  0.21695818241E-01 0.  0.
         14    1    1    2    0    0  0.14959397773E-01  0.14654805508E-01 -0.11922767158E-01  0.24097702855E-01  0.00000000000E+00 0. -1.
     999901    1    3    3    0    0  0.49107730248E-01 -0.41006760067E-01  0.11916242174E+00  0.89033297496E+00  0.88000000000E+00 0.  1.
        -11    1    4    4    0    0 -0.87660777753E-02  0.37183954699E-04 -0.28033902377E-01  0.29376968967E-01  0.51100000000E-03 0. -1.
         11    1    4    4    0    0 -0.55301050246E-01  0.26314770604E-01 -0.79205752209E-01  0.10012235322E+00  0.51100000000E-03 0.  1.
</event>
<event>
 8    1  0.1115874E+005  0.1043930E+01  0.7957747E-01            NaN
         13   -1    0    0    0    0  0.00000000000E+00  0.00000000000E+00  0.74505805969E-08  0.10566000000E+00  0.10566000000E+00 0.  1.
     999900   -1    0    0    0    0 -0.00000000000E+00 -0.00000000000E+00 -0.74505805969E-08  0.93827000000E+00  0.93827000000E+00 0.  1.
     999902    2    1    2    0    0 -0.23587672361E-01  0.23739418125E-02 -0.16593090276E-01  0.10149930939E+01  0.10145805223E+01 0.  0.
     999903    2    3    3    0    0 -0.84213137564E-01  0.30315945552E-02 -0.96561989594E-01  0.12928947286E+00  0.17044261648E-01 0.  0.
         14    1    1    2    0    0  0.23587672361E-01 -0.23739418125E-02  0.16593090276E-01  0.28936906055E-01  0.00000000000E+00 0.  1.
     999901    1    3    3    0    0  0.60625465203E-01 -0.65765274269E-03  0.79968899318E-01  0.88570362108E+00  0.88000000000E+00 0. -1.
        -11    1    4    4    0    0 -0.50078493232E-01 -0.25312314749E-02 -0.46130331790E-01  0.68136122939E-01  0.51100000000E-03 0.  1.
         11    1    4    4    0    0 -0.34134644332E-01  0.55628260301E-02 -0.50431657804E-01  0.61153349925E-01  0.51100000000E-03 0. -1.
</event>
<event>
 8    1  0.1115874E+005  0.1043930E+01  0.7957747E-01            NaN
         13   -1    0    0    0    0  0.00000000000E+00  0.00000000000E+00  0.74505805969E-08  0.10566000000E+00  0.10566000000E+00 0. -1.
     999900   -1    0    0    0    0 -0.00000000000E+00 -0.00000000000E+00 -0.74505805969E-08  0.93827000000E+00  0.93827000000E+00 0.  1.
     999902    2    1    2    0    0 -0.10670751033E-03  0.55362552167E-02 -0.21693298843E-01  0.10215411473E+01  0.10212957725E+01 0.  0.
     999903    2    3    3    0    0  0.12527349471E+00 -0.21358414755E-01  0.24970196406E-01  0.13102388184E+00  0.19852368754E-01 0.  0.
         14    1    1    2    0    0  0.10670751033E-03 -0.55362552167E-02  0.21693298843E-01  0.22388852650E-01  0.00000000000E+00 0. -1.
     999901    1    3    3    0    0 -0.12538020222E+00  0.26894669972E-01 -0.46663495249E-01  0.89051726551E+00  0.88000000000E+00 0.  1.
        -11    1    4    4    0    0  0.86979696641E-01 -0.62237452101E-02  0.13211827842E-01  0.88198730990E-01  0.51100000000E-03 0. -1.
         11    1    4    4    0    0  0.38293798072E-01 -0.15134669545E-01  0.11758368564E-01  0.42825150850E-01  0.51100000000E-03 0.  1.
</event>
<event>
 8    1  0.1115874E+005  0.1043930E+01  0.7957747E-01            NaN
         13   -1    0    0    0    0  0.00000000000E+00  0.00000000000E+00  0.74505805969E-08  0.10566000000E+00  0.10566000000E+00 0.  1.
     999900   -1    0    0    0    0 -0.00000000000E+00 -0.00000000000E+00 -0.74505805969E-08  0.93827000000E+00  0.93827000000E+00 0.  1.
     999902    2    1    2    0    0  0.63190094089E-02 -0.21800183274E-01  0.60209468253E-02  0.10204474603E+01  0.10201772344E+01 0.  0.
     999903    2    3    3    0    0 -0.31177212167E-01 -0.11351427111E+00  0.59371389165E-01  0.13328134831E+00  0.19530684916E-01 0.  0.
         14    1    1    2    0    0 -0.63190094089E-02  0.21800183274E-01 -0.60209468253E-02  0.23482539712E-01  0.00000000000E+00 0. -1.
     999901    1    3    3    0    0  0.37496221576E-01  0.91714087833E-01 -0.53350442340E-01  0.88716611198E+00  0.88000000000E+00 0.  1.
        -11    1    4    4    0    0 -0.14315357388E-01 -0.77042970437E-01  0.31914680501E-01  0.84612981884E-01  0.51100000000E-03 0. -1.
         11    1    4    4    0    0 -0.16861854779E-01 -0.36471300669E-01  0.27456708664E-01  0.48668366428E-01  0.51100000000E-03 0.  1.
</event>
<event>
 8    1  0.1115874E+005  0.1043930E+01  0.7957747E-01            NaN
         13   -1    0    0    0    0  0.00000000000E+00  0.00000000000E+00  0.74505805969E-08  0.10566000000E+00  0.10566000000E+00 0.  1.
     999900   -1    0    0    0    0 -0.00000000000E+00 -0.00000000000E+00 -0.74505805969E-08  0.93827000000E+00  0.93827000000E+00 0. -1.
     999902    2    1    2    0    0 -0.12734962873E-01 -0.58647583572E-02 -0.18647821660E-01  0.10205994209E+01  0.10203327212E+01 0.  0.
     999903    2    3    3    0    0 -0.87974941273E-01 -0.80947013176E-01 -0.55801905877E-01  0.13342479019E+00  0.19907604190E-01 0.  0.
         14    1    1    2    0    0  0.12734962873E-01  0.58647583572E-02  0.18647821660E-01  0.23330579132E-01  0.00000000000E+00 0.  1.
     999901    1    3    3    0    0  0.75239978400E-01  0.75082254819E-01  0.37154084216E-01  0.88717463067E+00  0.88000000000E+00 0. -1.
        -11    1    4    4    0    0 -0.11501587982E-01 -0.20820464330E-01 -0.13384979575E-01  0.27298297754E-01  0.51100000000E-03 0. -1.
         11    1    4    4    0    0 -0.76473353291E-01 -0.60126548846E-01 -0.42416926302E-01  0.10612649244E+00  0.51100000000E-03 0.  1.
</event>
<event>
 8    1  0.1115874E+005  0.1043930E+01  0.7957747E-01            NaN
         13   -1    0    0    0    0  0.00000000000E+00  0.00000000000E+00  0.74505805969E-08  0.10566000000E+00  0.10566000000E+00 0.  1.
     999900   -1    0    0    0    0 -0.00000000000E+00 -0.00000000000E+00 -0.74505805969E-08  0.93827000000E+00  0.93827000000E+00 0. -1.
     999902    2    1    2    0    0 -0.26891703566E-01  0.90049079418E-02 -0.12654010521E-01  0.10128755950E+01  0.10123994246E+01 0.  0.
     999903    2    3    3    0    0  0.97649140741E-01  0.61767762703E-01  0.31637671252E-01  0.12144074386E+00  0.19907305977E-01 0.  0.
         14    1    1    2    0    0  0.26891703566E-01 -0.90049079418E-02  0.12654010521E-01  0.31054405001E-01  0.00000000000E+00 0.  1.
     999901    1    3    3    0    0 -0.12454084431E+00 -0.52762854762E-01 -0.44291681772E-01  0.89143485113E+00  0.88000000000E+00 0. -1.
        -11    1    4    4    0    0  0.25052926136E-01  0.26481226764E-01  0.11795669909E-01  0.38318447627E-01  0.51100000000E-03 0.  1.
         11    1    4    4    0    0  0.72596214605E-01  0.35286535939E-01  0.19842001342E-01  0.83122296238E-01  0.51100000000E-03 0. -1.
</event>
<event>
 8    1  0.1115874E+005  0.1043930E+01  0.7957747E-01            NaN
         13   -1    0    0    0    0  0.00000000000E+00  0.00000000000E+00  0.74505805969E-08  0.10566000000E+00  0.10566000000E+00 0.  1.
     999900   -1    0    0    0    0 -0.00000000000E+00 -0.00000000000E+00 -0.74505805969E-08  0.93827000000E+00  0.93827000000E+00 0.  1.
     999902    2    1    2    0    0 -0.46427064202E-02  0.22410667726E-01  0.11174217427E-02  0.10210162185E+01  0.10207590691E+01 0.  0.
     999903    2    3    3    0    0 -0.29939136788E-01 -0.45709450997E-02 -0.12611604620E+00  0.13109696814E+00  0.19076490652E-01 0.  0.
         14    1    1    2    0    0  0.46427064202E-02 -0.22410667726E-01 -0.11174217427E-02  0.22913781491E-01  0.00000000000E+00 0.  1.
     999901    1    3    3    0    0  0.25296430368E-01  0.26981612826E-01  0.12723346794E+00  0.88991925037E+00  0.88000000000E+00 0. -1.
        -11    1    4    4    0    0 -0.80019469239E-02  0.60680687900E-02 -0.55113862818E-01  0.56023670079E-01  0.51100000000E-03 0. -1.
         11    1    4    4    0    0 -0.21937189864E-01 -0.10639013890E-01 -0.71002183379E-01  0.75073298058E-01  0.51100000000E-03 0.  1.
</event>
<event>
 8    1  0.1115874E+005  0.1043930E+01  0.7957747E-01            NaN
         13   -1    0    0    0    0  0.00000000000E+00  0.00000000000E+00  0.74505805969E-08  0.10566000000E+00  0.10566000000E+00 0.  1.
     999900   -1    0    0    0    0 -0.00000000000E+00 -0.00000000000E+00 -0.74505805969E-08  0.93827000000E+00  0.93827000000E+00 0. -1.
     999902    2    1    2    0    0 -0.11929615498E-01 -0.12448323761E-01  0.15565724432E-01  0.10207013912E+01  0.10204370445E+01 0.  0.
     999903    2    3    3    0    0 -0.10728819126E-01 -0.34954541935E-01 -0.12277234490E+00  0.12960914389E+00  0.19711771715E-01 0.  0.
         14    1    1    2    0    0  0.11929615498E-01  0.12448323761E-01 -0.15565724432E-01  0.23228608815E-01  0.00000000000E+00 0. -1.
     999901    1    3    3    0    0 -0.12007963720E-02  0.22506218174E-01  0.13833806934E+00  0.89109224730E+00  0.88000000000E+00 0.  1.
        -11    1    4    4    0    0 -0.45665676134E-02 -0.75983842161E-02 -0.62539623221E-01  0.63166878790E-01  0.51100000000E-03 0.  1.
         11    1    4    4    0    0 -0.61622515125E-02 -0.27356157719E-01 -0.60232721683E-01  0.66442265097E-01  0.51100000000E-03 0. -1.
</event>
<event>
 8    1  0.1115874E+005  0.1043930E+01  0.7957747E-01            NaN
         13   -1    0    0    0    0  0.00000000000E+00  0.00000000000E+00  0.74505805969E-08  0.10566000000E+00  0.10566000000E+00 0. -1.
     999900   -1    0    0    0    0 -0.00000000000E+00 -0.00000000000E+00 -0.74505805969E-08  0.93827000000E+00  0.93827000000E+00 0.  1.
     999902    2    1    2    0    0 -0.37636399568E-02  0.84183888829E-02  0.22902299627E-01  0.10192409420E+01  0.10189418768E+01 0.  0.
     999903    2    3    3    0    0 -0.24436864307E-01 -0.77888251054E-01  0.10116915688E+00  0.13132094602E+00  0.18607863153E-01 0.  0.
         14    1    1    2    0    0  0.37636399568E-02 -0.84183888829E-02 -0.22902299627E-01  0.24689058008E-01  0.00000000000E+00 0.  1.
     999901    1    3    3    0    0  0.20673224350E-01  0.86306639937E-01 -0.78266857250E-01  0.88791999597E+00  0.88000000000E+00 0.  1.
        -11    1    4    4    0    0 -0.29653339910E-02 -0.28164523400E-01  0.24508121382E-01  0.37455876958E-01  0.51100000000E-03 0.  1.
         11    1    4    4    0    0 -0.21471530316E-01 -0.49723727654E-01  0.76661035495E-01  0.93865069062E-01  0.51100000000E-03 0. -1.
</event>
<event>
 8    1  0.1421308E+005  0.1043930E+01  0.7957747E-01            NaN
         13   -1    0    0    0    0  0.00000000000E+00  0.00000000000E+00  0.74505805969E-08  0.10566000000E+00  0.10566000000E+00 0.  1.
     999900   -1    0    0    0    0 -0.00000000000E+00 -0.00000000000E+00 -0.74505805969E-08  0.93827000000E+00  0.93827000000E+00 0. -1.
     999902    2    1    2    0    0  0.68382893392E-02  0.20619211513E-01  0.17982627578E-02  0.10221321140E+01  0.10218996578E+01 0.  0.
     999903    2    3    3    0    0 -0.58790752092E-01 -0.31628225184E-01 -0.11040194845E+00  0.13105083090E+00  0.23000715166E-01 0.  0.
         14    1    1    2    0    0 -0.68382893392E-02 -0.20619211513E-01 -0.17982627578E-02  0.21797885986E-01  0.00000000000E+00 0. -1.
     999901    1    3    3    0    0  0.65629041431E-01  0.52247436697E-01  0.11220021121E+00  0.89108128311E+00  0.88000000000E+00 0.  1.
        -11    1    4    4    0    0 -0.14057713217E-01 -0.19205152303E-01 -0.43997462130E-01  0.50024943486E-01  0.51100000000E-03 0. -1.
         11    1    4    4    0    0 -0.44733038875E-01 -0.12423072881E-01 -0.66404486321E-01  0.81025887415E-01  0.51100000000E-03 0.  1.
</event>
<event>
 8    1  0.1115874E+005  0.1043930E+01  0.7957747E-01            NaN
         13   -1    0    0    0    0  0.00000000000E+00  0.00000000000E+00  0.74505805969E-08  0.10566000000E+00  0.10566000000E+00 0.  1.
     999900   -1    0    0    0    0 -0.00000000000E+00 -0.00000000000E+00 -0.74505805969E-08  0.93827000000E+00  0.93827000000E+00 0. -1.
     999902    2    1    2    0    0  0.72812381661E-02  0.22784288599E-02 -0.22457687459E-01  0.10202117498E+01  0.10199360073E+01 0.  0.
     999903    2    3    3    0    0 -0.84773361197E-01 -0.86170755071E-01  0.39586403831E-01  0.12883821604E+00  0.20500749864E-01 0.  0.
         14    1    1    2    0    0 -0.72812381661E-02 -0.22784288599E-02  0.22457687459E-01  0.23718250216E-01  0.00000000000E+00 0.  1.
     999901    1    3    3    0    0  0.92054599363E-01  0.88449183931E-01 -0.62044091290E-01  0.89137353375E+00  0.88000000000E+00 0. -1.
        -11    1    4    4    0    0 -0.26622259886E-01 -0.24897541590E-01  0.23803778249E-02  0.36531624906E-01  0.51100000000E-03 0.  1.
         11    1    4    4    0    0 -0.58151101311E-01 -0.61273213481E-01  0.37206026006E-01  0.92306591130E-01  0.51100000000E-03 0. -1.
</event>
<event>
 8    1  0.1115874E+005  0.1043930E+01  0.7957747E-01            NaN
         13   -1    0    0    0    0  0.00000000000E+00  0.00000000000E+00  0.74505805969E-08  0.10566000000E+00  0.10566000000E+00 0. -1.
     999900   -1    0    0    0    0 -0.00000000000E+00 -0.00000000000E+00 -0.74505805969E-08  0.93827000000E+00  0.93827000000E+00 0. -1.
     999902    2    1    2    0    0 -0.17928833507E-01 -0.80483606950E-02 -0.15315408097E-01  0.10190145248E+01  0.10187098806E+01 0.  0.
     999903    2    3    3    0    0  0.87594090715E-01 -0.91711998445E-01 -0.71054184727E-02  0.12873249319E+00  0.20922534382E-01 0.  0.
         14    1    1    2    0    0  0.17928833507E-01  0.80483606950E-02  0.15315408097E-01  0.24915475231E-01  0.00000000000E+00 0.  1.
     999901    1    3    3    0    0 -0.10552292422E+00  0.83663637750E-01 -0.82099896239E-02  0.89028203158E+00  0.88000000000E+00 0. -1.
        -11    1    4    4    0    0  0.24415565418E-01 -0.18078366310E-01  0.55478374505E-02  0.30886676488E-01  0.51100000000E-03 0. -1.
         11    1    4    4    0    0  0.63178525298E-01 -0.73633632135E-01 -0.12653255923E-01  0.97845816705E-01  0.51100000000E-03 0.  1.
</event>
<event>
 8    1  0.1115874E+005  0.1043930E+01  0.7957747E-01            NaN
         13   -1    0    0    0    0  0.00000000000E+00  0.00000000000E+00  0.74505805969E-08  0.10566000000E+00  0.10566000000E+00 0.  1.
     999900   -1    0    0    0    0 -0.00000000000E+00 -0.00000000000E+00 -0.74505805969E-08  0.93827000000E+00  0.93827000000E+00 0.  1.
     999902    2    1    2    0    0  0.50152674343E-02 -0.37087417990E-02  0.22686356233E-01  0.10204017525E+01  0.10201304613E+01 0.  0.
     999903    2    3    3    0    0  0.50953427881E-01  0.55357122125E-01 -0.10180423836E+00  0.12849536779E+00  0.22052070487E-01 0.  0.
         14    1    1    2    0    0 -0.50152674343E-02  0.37087417990E-02 -0.22686356233E-01  0.23528247539E-01  0.00000000000E+00 0. -1.
     999901    1    3    3    0    0 -0.45938160447E-01 -0.59065863924E-01  0.12449059460E+00  0.89190638467E+00  0.88000000000E+00 0. -1.
        -11    1    4    4    0    0  0.15644746346E-01  0.30141899508E-01 -0.55255344713E-01  0.64859127611E-01  0.51100000000E-03 0. -1.
         11    1    4    4    0    0  0.35308681536E-01  0.25215222617E-01 -0.46548893651E-01  0.63636240183E-01  0.51100000000E-03 0.  1.
</event>
<event>
 8    1  0.1115874E+005  0.1043930E+01  0.7957747E-01            NaN
         13   -1    0    0    0    0  0.00000000000E+00  0.00000000000E+00  0.74505805969E-08  0.10566000000E+00  0.10566000000E+00 0. -1.
     999900   -1    0    0    0    0 -0.00000000000E+00 -0.00000000000E+00 -0.74505805969E-08  0.93827000000E+00  0.93827000000E+00 0. -1.
     999902    2    1    2    0    0  0.95135363322E-03 -0.13429929818E-01 -0.18807650599E-01  0.10208000236E+01  0.10205379426E+01 0.  0.
     999903    2    3    3    0    0 -0.43645763156E-01  0.82905588430E-01  0.85399563194E-01  0.12831552605E+00  0.19836824286E-01 0.  0.
         14    1    1    2    0    0 -0.95135363322E-03  0.13429929818E-01  0.18807650599E-01  0.23129976431E-01  0.00000000000E+00 0. -1.
     999901    1    3    3    0    0  0.44597116789E-01 -0.96335518248E-01 -0.10420721379E+00  0.89248449752E+00  0.88000000000E+00 0. -1.
        -11    1    4    4    0    0 -0.26357399534E-01  0.39421391624E-01  0.31486146140E-01  0.56924486362E-01  0.51100000000E-03 0.  1.
         11    1    4    4    0    0 -0.17288363622E-01  0.43484196806E-01  0.53913417054E-01  0.71391039690E-01  0.51100000000E-03 0. -1.
</event>
<event>
 8    1  0.1115874E+005  0.1043930E+01  0.7957747E-01            NaN
         13   -1    0    0    0    0  0.00000000000E+00  0.00000000000E+00  0.74505805969E-08  0.10566000000E+00  0.10566000000E+00 0. -1.
     999900   -1    0    0    0    0 -0.00000000000E+00 -0.00000000000E+00 -0.74505805969E-08  0.93827000000E+00  0.93827000000E+00 0. -1.
     999902    2    1    2    0    0 -0.22800581742E-01 -0.13981088848E-01 -0.49770528999E-02  0.10167250661E+01  0.10163610341E+01 0.  0.
     999903    2    3    3    0    0  0.81460406875E-01 -0.94859529401E-01 -0.91693355886E-02  0.12687718520E+00  0.19483716371E-01 0.  0.
         14    1    1    2    0    0  0.22800581742E-01  0.13981088848E-01  0.49770528999E-02  0.27204933904E-01  0.00000000000E+00 0. -1.
     999901    1    3    3    0    0 -0.10426098862E+00  0.80878440553E-01  0.41922826887E-02  0.88984788089E+00  0.88000000000E+00 0.  1.
        -11    1    4    4    0    0  0.40203426700E-01 -0.37402990186E-01  0.34561667913E-02  0.55022771679E-01  0.51100000000E-03 0.  1.
         11    1    4    4    0    0  0.41256980175E-01 -0.57456539215E-01 -0.12625502380E-01  0.71854413525E-01  0.51100000000E-03 0. -1.
</event>
<event>
 8    1  0.1115874E+005  0.1043930E+01  0.7957747E-01            NaN
         13   -1    0    0    0    0  0.00000000000E+00  0.00000000000E+00  0.74505805969E-08  0.10566000000E+00  0.10566000000E+00 0.  1.
     999900   -1    0    0    0    0 -0.00000000000E+00 -0.00000000000E+00 -0.74505805969E-08  0.93827000000E+00  0.93827000000E+00 0. -1.
     999902    2    1    2    0    0 -0.74145292743E-02 -0.98423539383E-02  0.19834746263E-01  0.10205791042E+01  0.10203119345E+01 0.  0.
     999903    2    3    3    0    0 -0.78399205533E-01  0.65923776841E-01  0.81268144516E-01  0.13234861989E+00  0.20475988182E-01 0.  0.
         14    1    1    2    0    0  0.74145292743E-02  0.98423539383E-02 -0.19834746263E-01  0.23350895802E-01  0.00000000000E+00 0. -1.
     999901    1    3    3    0    0  0.70984676259E-01 -0.75766130780E-01 -0.61433398253E-01  0.88823048431E+00  0.88000000000E+00 0. -1.
        -11    1    4    4    0    0 -0.68438894430E-01  0.56367342290E-01  0.60251450291E-01  0.10719915079E+00  0.51100000000E-03 0. -1.
         11    1    4    4    0    0 -0.99603111034E-02  0.95564345509E-02  0.21016694226E-01  0.25149469095E-01  0.51100000000E-03 0.  1.
</event>
<event>
 8    1  0.1115874E+005  0.1043930E+01  0.7957747E-01            NaN
         13   -1    0    0    0    0  0.00000000000E+00  0.00000000000E+00  0.74505805969E-08  0.10566000000E+00  0.10566000000E+00 0. -1.
     999900   -1    0    0    0    0 -0.00000000000E+00 -0.00000000000E+00 -0.74505805969E-08  0.93827000000E+00  0.93827000000E+00 0. -1.
     999902    2    1    2    0    0 -0.31278391482E-02 -0.12334883288E-01 -0.18246035663E-01  0.10216847636E+01  0.10214425611E+01 0.  0.
     999903    2    3    3    0    0 -0.91179464630E-01  0.41046656174E-01 -0.85546827579E-01  0.13312858978E+00  0.20160331218E-01 0.  0.
         14    1    1    2    0    0  0.31278391482E-02  0.12334883288E-01  0.18246035663E-01  0.22245236364E-01  0.00000000000E+00 0. -1.
     999901    1    3    3    0    0  0.88051625481E-01 -0.53381539462E-01  0.67300791915E-01  0.88855617386E+00  0.88000000000E+00 0. -1.
        -11    1    4    4    0    0 -0.23022410949E-01  0.13266788390E-01 -0.12281429682E-01  0.29276846075E-01  0.51100000000E-03 0. -1.
         11    1    4    4    0    0 -0.68157053681E-01  0.27779867785E-01 -0.73265397897E-01  0.10385174371E+00  0.51100000000E-03 0.  1.
</event>
<event>
 8    1  0.1115874E+005  0.1043930E+01  0.7957747E-01            NaN
         13   -1    0    0    0    0  0.00000000000E+00  0.00000000000E+00  0.74505805969E-08  0.10566000000E+00  0.10566000000E+00 0. -1.
     999900   -1    0    0    0    0 -0.00000000000E+00 -0.00000000000E+00 -0.74505805969E-08  0.93827000000E+00  0.93827000000E+00 0. -1.
     999902    2    1    2    0    0  0.20006654157E-01 -0.60918632500E-02 -0.42894131505E-02  0.10225810873E+01  0.10223582073E+01 0.  0.
     999903    2    3    3    0    0 -0.24205106237E-01 -0.11523365074E+00  0.57507776960E-01  0.13258923214E+00  0.20200956404E-01 0.  0.
         14    1    1    2    0    0 -0.20006654157E-01  0.60918632500E-02  0.42894131505E-02  0.21348912703E-01  0.00000000000E+00 0. -1.
     999901    1    3    3    0    0  0.44211760394E-01  0.10914178749E+00 -0.61797190110E-01  0.88999185515E+00  0.88000000000E+00 0.  1.
        -11    1    4    4    0    0 -0.38427677923E-02 -0.49549714791E-01  0.15761826256E-01  0.52140554160E-01  0.51100000000E-03 0. -1.
         11    1    4    4    0    0 -0.20362338445E-01 -0.65683935947E-01  0.41745950703E-01  0.80448677985E-01  0.51100000000E-03 0.  1.
</event>
<event>
 8    1  0.1115874E+005  0.1043930E+01  0.7957747E-01            NaN
         13   -1    0    0    0    0  0.00000000000E+00  0.00000000000E+00  0.74505805969E-08  0.10566000000E+00  0.10566000000E+00 0.  1.
     999900   -1    0    0    0    0 -0.00000000000E+00 -0.00000000000E+00 -0.74505805969E-08  0.93827000000E+00  0.93827000000E+00 0.  1.
     999902    2    1    2    0    0 -0.17668585652E-01 -0.43002737174E-02  0.10255134558E-01  0.10230532412E+01  0.10228402100E+01 0.  0.
     999903    2    3    3    0    0 -0.10898047678E+00  0.24375883700E-01 -0.68363716005E-01  0.13437945003E+00  0.30221034046E-01 0.  0.
         14    1    1    2    0    0  0.17668585652E-01  0.43002737174E-02 -0.10255134558E-01  0.20876758795E-01  0.00000000000E+00 0. -1.
     999901    1    3    3    0    0  0.91311891124E-01 -0.28676157417E-01  0.78618850563E-01  0.88867379118E+00  0.88000000000E+00 0. -1.
        -11    1    4    4    0    0 -0.62747423570E-01  0.10160995615E-01 -0.21700775656E-01  0.67168964423E-01  0.51100000000E-03 0.  1.
         11    1    4    4    0    0 -0.46233053206E-01  0.14214888085E-01 -0.46662940348E-01  0.67210485603E-01  0.51100000000E-03 0. -1.
</event>
<event>
 8    1  0.1115874E+005  0.1043930E+01  0.7957747E-01            NaN
         13   -1    0    0    0    0  0.00000000000E+00  0.00000000000E+00  0.74505805969E-08  0.10566000000E+00  0.10566000000E+00 0.  1.
     999900   -1    0    0    0    0 -0.00000000000E+00 -0.00000000000E+00 -0.74505805969E-08  0.93827000000E+00  0.93827000000E+00 0. -1.
     999902    2    1    2    0    0  0.31550629105E-02 -0.16410037281E-03 -0.22896113055E-01  0.10208169443E+01  0.10205552510E+01 0.  0.
     999903    2    3    3    0    0  0.19987905028E-01 -0.67631046589E-01  0.10590097661E+00  0.12872736151E+00  0.19551008776E-01 0.  0.
         14    1    1    2    0    0 -0.31550629105E-02  0.16410037281E-03  0.22896113055E-01  0.23113055703E-01  0.00000000000E+00 0.  1.
     999901    1    3    3    0    0 -0.16832842117E-01  0.67466946217E-01 -0.12879708967E+00  0.89208958278E+00  0.88000000000E+00 0.  1.
        -11    1    4    4    0    0 -0.16105190242E-02 -0.66978068777E-02  0.38122700005E-02  0.78897979730E-02  0.51100000000E-03 0. -1.
         11    1    4    4    0    0  0.21598424052E-01 -0.60933239712E-01  0.10208870661E+00  0.12083756354E+00  0.51100000000E-03 0.  1.
</event>
<event>
 8    1  0.1115874E+005  0.1043930E+01  0.7957747E-01            NaN
         13   -1    0    0    0    0  0.00000000000E+00  0.00000000000E+00  0.74505805969E-08  0.10566000000E+00  0.10566000000E+00 0.  1.
     999900   -1    0    0    0    0 -0.00000000000E+00 -0.00000000000E+00 -0.74505805969E-08  0.93827000000E+00  0.93827000000E+00 0.  1.
     999902    2    1    2    0    0  0.13272132203E-01 -0.14111412583E-01 -0.13174554428E-01  0.10205024448E+01  0.10202334975E+01 0.  0.
     999903    2    3    3    0    0 -0.93143744672E-01  0.84954875560E-01 -0.15378257846E-01  0.12857009052E+00  0.20017225324E-01 0.  0.
         14    1    1    2    0    0 -0.13272132203E-01  0.14111412583E-01  0.13174554428E-01  0.23427555201E-01  0.00000000000E+00 0. -1.
     999901    1    3    3    0    0  0.10641587687E+00 -0.99066288143E-01  0.22037034175E-02  0.89193235428E+00  0.88000000000E+00 0.  1.
        -11    1    4    4    0    0 -0.50712270422E-01  0.50196475476E-01 -0.18214058609E-01  0.73643964950E-01  0.51100000000E-03 0.  1.
         11    1    4    4    0    0 -0.42431474251E-01  0.34758400084E-01  0.28358007631E-02  0.54926125573E-01  0.51100000000E-03 0. -1.
</event>
<event>
 8    1  0.1115874E+005  0.1043930E+01  0.7957747E-01            NaN
         13   -1    0    0    0    0  0.00000000000E+00  0.00000000000E+00  0.74505805969E-08  0.10566000000E+00  0.10566000000E+00 0.  1.
     999900   -1    0    0    0    0 -0.00000000000E+00 -0.00000000000E+00 -0.74505805969E-08  0.93827000000E+00  0.93827000000E+00 0.  1.
     999902    2    1    2    0    0  0.90667633364E-02 -0.21400315439E-01  0.51862427485E-02  0.10201166254E+01  0.10198386404E+01 0.  0.
     999903    2    3    3    0    0 -0.11286984102E+00 -0.51428000969E-01 -0.34838192797E-01  0.13030082822E+00  0.19497842535E-01 0.  0.
         14    1    1    2    0    0 -0.90667633364E-02  0.21400315439E-01 -0.51862427485E-02  0.23813374648E-01  0.00000000000E+00 0.  1.
     999901    1    3    3    0    0  0.12193660435E+00  0.30027685529E-01  0.40024435546E-01  0.88981579713E+00  0.88000000000E+00 0. -1.
        -11    1    4    4    0    0 -0.20013050574E-01 -0.10916152487E-01  0.10367453627E-02  0.22825874361E-01  0.51100000000E-03 0. -1.
         11    1    4    4    0    0 -0.92856790442E-01 -0.40511848482E-01 -0.35874938160E-01  0.10747495386E+00  0.51100000000E-03 0.  1.
</event>
<event>
 7    1  0.1115874E+005  0.1043930E+01  0.7957747E-01            NaN
         13   -1    0    0    0    0  0.00000000000E+00  0.00000000000E+00  0.74505805969E-08  0.10566000000E+00  0.10566000000E+00 0.  1.
     999900   -1    0    0    0    0 -0.00000000000E+00 -0.00000000000E+00 -0.74505805969E-08  0.93827000000E+00  0.93827000000E+00 0.  1.
     999903    2    1    2    0    0 -0.94207523182E-01  0.17030069468E-01  0.55054180609E-01  0.11224209020E+00  0.20056004570E-01 0.  0.
         14    1    1    2    0    0  0.35205067910E-01 -0.13862182731E-01 -0.31759904092E-01  0.49398870681E-01  0.00000000000E+00 0. -1.
     999901    1    1    2    0    0  0.59002455272E-01 -0.31678867372E-02 -0.23294276517E-01  0.88228903912E+00  0.88000000000E+00 0.  1.
        -11    1    3    3    0    0 -0.77227363271E-01  0.57999708030E-02  0.43305371670E-01  0.88731739730E-01  0.51100000000E-03 0.  1.
         11    1    3    3    0    0 -0.16980159912E-01  0.11230098665E-01  0.11748808940E-01  0.23510350468E-01  0.51100000000E-03 0. -1.
</event>
<event>
 8    1  0.1115874E+005  0.1043930E+01  0.7957747E-01            NaN
         13   -1    0    0    0    0  0.00000000000E+00  0.00000000000E+00  0.74505805969E-08  0.10566000000E+00  0.10566000000E+00 0. -1.
     999900   -1    0    0    0    0 -0.00000000000E+00 -0.00000000000E+00 -0.74505805969E-08  0.93827000000E+00  0.93827000000E+00 0. -1.
     999902    2    1    2    0    0 -0.19742191780E-01  0.11730399276E-02  0.11787181786E-01  0.10209067984E+01  0.10206471590E+01 0.  0.
     999903    2    3    3    0    0 -0.98362494227E-01 -0.70265624687E-01  0.53225977796E-01  0.13355015723E+00  0.19753518681E-01 0.  0.
         14    1    1    2    0    0  0.19742191780E-01 -0.11730399276E-02 -0.11787181786E-01  0.23023201632E-01  0.00000000000E+00 0. -1.
     999901    1    3    3    0    0  0.78620302447E-01  0.71438664614E-01 -0.41438796010E-01  0.88735664114E+00  0.88000000000E+00 0.  1.
        -11    1    4    4    0    0 -0.59533191848E-01 -0.48730478894E-01  0.42397759268E-01  0.87844701700E-01  0.51100000000E-03 0.  1.
         11    1    4    4    0    0 -0.38829302379E-01 -0.21535145793E-01  0.10828218527E-01  0.45705455528E-01  0.51100000000E-03 0. -1.
</event>
<event>
 8    1  0.1115874E+005  0.1043930E+01  0.7957747E-01            NaN
         13   -1    0    0    0    0  0.00000000000E+00  0.00000000000E+00  0.74505805969E-08  0.10566000000E+00  0.10566000000E+00 0. -1.
     999900   -1    0    0    0    0 -0.00000000000E+00 -0.00000000000E+00 -0.74505805969E-08  0.93827000000E+00  0.93827000000E+00 0.  1.
     999902    2    1    2    0    0 -0.22975801086E-01  0.50002297535E-02  0.19297497087E-02  0.10203373387E+01  0.10200645426E+01 0.  0.
     999903    2    3    3    0    0 -0.93765347014E-01  0.60267008765E-01  0.69976084232E-01  0.13315309610E+00  0.20224786561E-01 0.  0.
         14    1    1    2    0    0  0.22975801086E-01 -0.50002297535E-02 -0.19297497087E-02  0.23592661297E-01  0.00000000000E+00 0.  1.
     999901    1    3    3    0    0  0.70789545928E-01 -0.55266779011E-01 -0.68046334523E-01  0.88718424260E+00  0.88000000000E+00 0.  1.
        -11    1    4    4    0    0 -0.64998088597E-01  0.51477406268E-01  0.55428719866E-01  0.99736046564E-01  0.51100000000E-03 0.  1.
         11    1    4    4    0    0 -0.28767258418E-01  0.87896024966E-02  0.14547364365E-01  0.33417049539E-01  0.51100000000E-03 0. -1.
</event>
<event>
 8    1  0.1115874E+005  0.1043930E+01  0.7957747E-01            NaN
         13   -1    0    0    0    0  0.00000000000E+00  0.00000000000E+00  0.74505805969E-08  0.10566000000E+00  0.10566000000E+00 0.  1.
     999900   -1    0    0    0    0 -0.00000000000E+00 -0.00000000000E+00 -0.74505805969E-08  0.93827000000E+00  0.93827000000E+00 0. -1.
     999902    2    1    2    0    0 -0.20924588064E-01 -0.38721253142E-02  0.74600076679E-02  0.10213804223E+01  0.10211314722E+01 0.  0.
     999903    2    3    3    0    0 -0.32788905756E-01 -0.40581588618E-01  0.12100044725E+00  0.13324767425E+00  0.19795372766E-01 0.  0.
         14    1    1    2    0    0  0.20924588064E-01  0.38721253142E-02 -0.74600076679E-02  0.22549577702E-01  0.00000000000E+00 0. -1.
     999901    1    3    3    0    0  0.11864317692E-01  0.36709463304E-01 -0.11354043958E+00  0.88813274805E+00  0.88000000000E+00 0. -1.
        -11    1    4    4    0    0 -0.12188823040E-01 -0.58695203477E-02  0.17301600431E-01  0.21968731750E-01  0.51100000000E-03 0. -1.
         11    1    4    4    0    0 -0.20600082717E-01 -0.34712068270E-01  0.10369884682E+00  0.11127894250E+00  0.51100000000E-03 0.  1.
</event>
<event>
 8    1  0.1115874E+005  0.1043930E+01  0.7957747E-01            NaN
         13   -1    0    0    0    0  0.00000000000E+00  0.00000000000E+00  0.74505805969E-08  0.10566000000E+00  0.10566000000E+00 0. -1.
     999900   -1    0    0    0    0 -0.00000000000E+00 -0.00000000000E+00 -0.74505805969E-08  0.93827000000E+00  0.93827000000E+00 0.  1.
     999902    2    1    2    0    0  0.40529436674E-03  0.20162447704E-01  0.16125306482E-01  0.10181091931E+01  0.10177817128E+01 0.  0.
     999903    2    3    3    0    0  0.14322178282E-01  0.16857857637E-01 -0.12329927593E+00  0.12701783179E+00  0.21012044021E-01 0.  0.
         14    1    1    2    0    0 -0.40529436674E-03 -0.20162447704E-01 -0.16125306482E-01  0.25820806921E-01  0.00000000000E+00 0. -1.
     999901    1    3    3    0    0 -0.13916883916E-01  0.33045900665E-02  0.13942458241E+00  0.89109136128E+00  0.88000000000E+00 0. -1.
        -11    1    4    4    0    0  0.19765083579E-01  0.13442859604E-01 -0.91520056062E-01  0.94591494257E-01  0.51100000000E-03 0. -1.
         11    1    4    4    0    0 -0.54429052968E-02  0.34149980336E-02 -0.31779219869E-01  0.32426337538E-01  0.51100000000E-03 0.  1.
</event>
<event>
 8    1  0.1115874E+005  0.1043930E+01  0.7957747E-01            NaN
         13   -1    0    0    0    0  0.00000000000E+00  0.00000000000E+00  0.74505805969E-08  0.10566000000E+00  0.10566000000E+00 0. -1.
     999900   -1    0    0    0    0 -0.00000000000E+00 -0.00000000000E+00 -0.74505805969E-08  0.93827000000E+00  0.93827000000E+00 0. -1.
     999902    2    1    2    0    0  0.18658776624E-01  0.29581065014E-02  0.13857620001E-01  0.10205006600E+01  0.10202316713E+01 0.  0.
     999903    2    3    3    0    0  0.53744490771E-01 -0.12691213688E-01  0.11949707025E+00  0.13335038978E+00  0.21289421369E-01 0.  0.
         14    1    1    2    0    0 -0.18658776624E-01 -0.29581065014E-02 -0.13857620001E-01  0.23429339966E-01  0.00000000000E+00 0. -1.
     999901    1    3    3    0    0 -0.35085714147E-01  0.15649320189E-01 -0.10563945025E+00  0.88715027025E+00  0.88000000000E+00 0. -1.
        -11    1    4    4    0    0  0.19645735045E-01 -0.12244877052E-01  0.32482609177E-01  0.39890762582E-01  0.51100000000E-03 0.  1.
         11    1    4    4    0    0  0.34098755726E-01 -0.44633663582E-03  0.87014461078E-01  0.93459627199E-01  0.51100000000E-03 0. -1.
</event>
<event>
 8    1  0.1370580E+005  0.1043930E+01  0.7957747E-01            NaN
         13   -1    0    0    0    0  0.00000000000E+00  0.00000000000E+00  0.74505805969E-08  0.10566000000E+00  0.10566000000E+00 0.  1.
     999900   -1    0    0    0    0 -0.00000000000E+00 -0.00000000000E+00 -0.74505805969E-08  0.93827000000E+00  0.93827000000E+00 0.  1.
     999902    2    1    2    0    0  0.22157296101E-01 -0.14270770618E-02  0.84955130073E-02  0.10201569888E+01  0.10198799565E+01 0.  0.
     999903    2    3    3    0    0  0.11570504409E+00 -0.55301985333E-01 -0.30686605490E-01  0.13269491903E+00  0.14842741399E-01 0.  0.
         14    1    1    2    0    0 -0.22157296101E-01  0.14270770618E-02 -0.84955130073E-02  0.23773011183E-01  0.00000000000E+00 0. -1.
     999901    1    3    3    0    0 -0.93547747984E-01  0.53874908272E-01  0.39182118497E-01  0.88746206978E+00  0.88000000000E+00 0.  1.
        -11    1    4    4    0    0  0.64192168386E-01 -0.30587139261E-01 -0.94282479585E-02  0.71731168615E-01  0.51100000000E-03 0.  1.
         11    1    4    4    0    0  0.51512875699E-01 -0.24714846072E-01 -0.21258357531E-01  0.60963750418E-01  0.51100000000E-03 0. -1.
</event>
<event>
 8    1  0.1115874E+005  0.1043930E+01  0.7957747E-01            NaN
         13   -1    0    0    0    0  0.00000000000E+00  0.00000000000E+00  0.74505805969E-08  0.10566000000E+00  0.10566000000E+00 0. -1.
     999900   -1    0    0    0    0 -0.00000000000E+00 -0.00000000000E+00 -0.74505805969E-08  0.93827000000E+00  0.93827000000E+00 0. -1.
     999902    2    1    2    0    0  0.10460897204E-01 -0.28146564386E-02 -0.20736867766E-01  0.10205340528E+01  0.10202658392E+01 0.  0.
     999903    2    3    3    0    0  0.10206227220E+00  0.10443916616E-01 -0.83076748737E-01  0.13348678098E+00  0.19778567061E-01 0.  0.
         14    1    1    2    0    0 -0.10460897204E-01  0.28146564386E-02  0.20736867766E-01  0.23395947211E-01  0.00000000000E+00 0. -1.
     999901    1    3    3    0    0 -0.91601374997E-01 -0.13258573054E-01  0.62339880971E-01  0.88704727181E+00  0.88000000000E+00 0.  1.
        -11    1    4    4    0    0  0.56528495449E-01  0.33521132753E-02 -0.57825535647E-01  0.80936772576E-01  0.51100000000E-03 0. -1.
         11    1    4    4    0    0  0.45533776752E-01  0.70918033404E-02 -0.25251213090E-01  0.52550008406E-01  0.51100000000E-03 0.  1.
</event>
<event>
 8    1  0.1115874E+005  0.1043930E+01  0.7957747E-01            NaN
         13   -1    0    0    0    0  0.00000000000E+00  0.00000000000E+00  0.74505805969E-08  0.10566000000E+00  0.10566000000E+00 0. -1.
     999900   -1    0    0    0    0 -0.00000000000E+00 -0.00000000000E+00 -0.74505805969E-08  0.93827000000E+00  0.93827000000E+00 0. -1.
     999902    2    1    2    0    0 -0.16002414283E-01 -0.60270922429E-02  0.16239427513E-01  0.10203477586E+01  0.10200752062E+01 0.  0.
     999903    2    3    3    0    0  0.41233297844E-01  0.72104363285E-01  0.99530714975E-01  0.13112456408E+00  0.19699340779E-01 0.  0.
         14    1    1    2    0    0  0.16002414283E-01  0.60270922429E-02 -0.16239427513E-01  0.23582241406E-01  0.00000000000E+00 0.  1.
     999901    1    3    3    0    0 -0.57235712127E-01 -0.78131455528E-01 -0.83291287462E-01  0.88922319451E+00  0.88000000000E+00 0. -1.
        -11    1    4    4    0    0  0.65310444027E-02  0.30361601871E-01  0.34885501275E-01  0.46709107564E-01  0.51100000000E-03 0. -1.
         11    1    4    4    0    0  0.34702253442E-01  0.41742761414E-01  0.64645213700E-01  0.84415456521E-01  0.51100000000E-03 0.  1.
</event>
<event>
 8    1  0.1115874E+005  0.1043930E+01  0.7957747E-01            NaN
         13   -1    0    0    0    0  0.00000000000E+00  0.00000000000E+00  0.74505805969E-08  0.10566000000E+00  0.10566000000E+00 0. -1.
     999900   -1    0    0    0    0 -0.00000000000E+00 -0.00000000000E+00 -0.74505805969E-08  0.93827000000E+00  0.93827000000E+00 0. -1.
     999902    2    1    2    0    0 -0.65439544852E-02 -0.14557376008E-01  0.15284818110E-01  0.10218309909E+01  0.10215919968E+01 0.  0.
     999903    2    3    3    0    0  0.24337073862E-01  0.11451745868E+00  0.55325950992E-01  0.13097901492E+00  0.19697715382E-01 0.  0.
         14    1    1    2    0    0  0.65439544852E-02  0.14557376008E-01 -0.15284818110E-01  0.22099009054E-01  0.00000000000E+00 0.  1.
     999901    1    3    3    0    0 -0.30881028347E-01 -0.12907483468E+00 -0.40041132882E-01  0.89085197602E+00  0.88000000000E+00 0.  1.
        -11    1    4    4    0    0  0.75918714325E-03  0.25239999601E-01  0.19597575408E-01  0.31968109545E-01  0.51100000000E-03 0.  1.
         11    1    4    4    0    0  0.23577886719E-01  0.89277459075E-01  0.35728375583E-01  0.99010905378E-01  0.51100000000E-03 0. -1.
</event>
<event>
 8    1  0.1115874E+005  0.1043930E+01  0.7957747E-01            NaN
         13   -1    0    0    0    0  0.00000000000E+00  0.00000000000E+00  0.74505805969E-08  0.10566000000E+00  0.10566000000E+00 0.  1.
     999900   -1    0    0    0    0 -0.00000000000E+00 -0.00000000000E+00 -0.74505805969E-08  0.93827000000E+00  0.93827000000E+00 0.  1.
     999902    2    1    2    0    0 -0.73957032698E-03 -0.23425528652E-01  0.24986921683E-02  0.10203599805E+01  0.10200877139E+01 0.  0.
     999903    2    3    3    0    0 -0.38365545986E-01 -0.12633206989E+00  0.29481067200E-02  0.13356481122E+00  0.19979000520E-01 0.  0.
         14    1    1    2    0    0  0.73957032698E-03  0.23425528652E-01 -0.24986921683E-02  0.23570019504E-01  0.00000000000E+00 0.  1.
     999901    1    3    3    0    0  0.37625975659E-01  0.10290654124E+00 -0.44941455164E-03  0.88679516927E+00  0.88000000000E+00 0.  1.
        -11    1    4    4    0    0 -0.15861128728E-01 -0.39761747341E-01 -0.76513590293E-02  0.43489957141E-01  0.51100000000E-03 0. -1.
         11    1    4    4    0    0 -0.22504417258E-01 -0.86570322549E-01  0.10599465749E-01  0.90074854080E-01  0.51100000000E-03 0.  1.
</event>
<event>
 8    1  0.1115874E+005  0.1043930E+01  0.7957747E-01            NaN
         13   -1    0    0    0    0  0.00000000000E+00  0.00000000000E+00  0.74505805969E-08  0.10566000000E+00  0.10566000000E+00 0. -1.
     999900   -1    0    0    0    0 -0.00000000000E+00 -0.00000000000E+00 -0.74505805969E-08  0.93827000000E+00  0.93827000000E+00 0. -1.
     999902    2    1    2    0    0  0.13366217029E-01 -0.16410520678E-01 -0.10919826138E-01  0.10201139644E+01  0.10198359167E+01 0.  0.
     999903    2    3    3    0    0  0.58541625381E-01 -0.11219235317E+00  0.30924899666E-01  0.13277752429E+00  0.25676361205E-01 0.  0.
         14    1    1    2    0    0 -0.13366217029E-01  0.16410520678E-01  0.10919826138E-01  0.23816035554E-01  0.00000000000E+00 0. -1.
     999901    1    3    3    0    0 -0.45175408352E-01  0.95781832492E-01 -0.41844725804E-01  0.88733644016E+00  0.88000000000E+00 0. -1.
        -11    1    4    4    0    0  0.36083458986E-01 -0.47628679578E-01  0.61712274462E-02  0.60073723873E-01  0.51100000000E-03 0. -1.
         11    1    4    4    0    0  0.22458166395E-01 -0.64563673592E-01  0.24753672220E-01  0.72703800415E-01  0.51100000000E-03 0.  1.
</event>
<event>
 8    1  0.1115874E+005  0.1043930E+01  0.7957747E-01            NaN
         13   -1    0    0    0    0  0.00000000000E+00  0.00000000000E+00  0.74505805969E-08  0.10566000000E+00  0.10566000000E+00 0.  1.
     999900   -1    0    0    0    0 -0.00000000000E+00 -0.00000000000E+00 -0.74505805969E-08  0.93827000000E+00  0.93827000000E+00 0.  1.
     999902    2    1    2    0    0  0.20296940124E-01 -0.23377455914E-02  0.13478342385E-02  0.10234544661E+01  0.10232496258E+01 0.  0.
     999903    2    3    3    0    0  0.32326514228E-01  0.12783844473E+00  0.10450539526E-01  0.13375035209E+00  0.19805843436E-01 0.  0.
         14    1    1    2    0    0 -0.20296940124E-01  0.23377455914E-02 -0.13478342385E-02  0.20475533936E-01  0.00000000000E+00 0. -1.
     999901    1    3    3    0    0 -0.12029574104E-01 -0.13017619032E+00 -0.91027052876E-02  0.88970411397E+00  0.88000000000E+00 0. -1.
        -11    1    4    4    0    0  0.83539526935E-03  0.30276909053E-01  0.74105553592E-02  0.31185999403E-01  0.51100000000E-03 0. -1.
         11    1    4    4    0    0  0.31491118959E-01  0.97561535678E-01  0.30399841669E-02  0.10256435269E+00  0.51100000000E-03 0.  1.
</event>
<event>
 8    1  0.1115874E+005  0.1043930E+01  0.7957747E-01            NaN
         13   -1    0    0    0    0  0.00000000000E+00  0.00000000000E+00  0.74505805969E-08  0.10566000000E+00  0.10566000000E+00 0. -1.
     999900   -1    0    0    0    0 -0.00000000000E+00 -0.00000000000E+00 -0.74505805969E-08  0.93827000000E+00  0.93827000000E+00 0. -1.
     999902    2    1    2    0    0 -0.84838478057E-02  0.16942413783E-01  0.13868348460E-01  0.10204491110E+01  0.10201789235E+01 0.  0.
     999903    2    3    3    0    0  0.12381045937E+00  0.48187776014E-02  0.35151932804E-01  0.13022343332E+00  0.19241458842E-01 0.  0.
         14    1    1    2    0    0  0.84838478057E-02 -0.16942413783E-01 -0.13868348460E-01  0.23480888982E-01  0.00000000000E+00 0. -1.
     999901    1    3    3    0    0 -0.13229430718E+00  0.12123636181E-01 -0.21283584344E-01  0.89022567770E+00  0.88000000000E+00 0. -1.
        -11    1    4    4    0    0  0.41629376784E-01  0.65669970275E-02  0.40748481647E-02  0.42343783132E-01  0.51100000000E-03 0. -1.
         11    1    4    4    0    0  0.82181082590E-01 -0.17482194262E-02  0.31077084639E-01  0.87879650190E-01  0.51100000000E-03 0.  1.
</event>
<event>
 8    1  0.1115874E+005  0.1043930E+01  0.7957747E-01            NaN
         13   -1    0    0    0    0  0.00000000000E+00  0.00000000000E+00  0.74505805969E-08  0.10566000000E+00  0.10566000000E+00 0. -1.
     999900   -1    0    0    0    0 -0.00000000000E+00 -0.00000000000E+00 -0.74505805969E-08  0.93827000000E+00  0.93827000000E+00 0. -1.
     999902    2    1    2    0    0 -0.43357253337E-02 -0.13849819584E-01  0.17856380675E-01  0.10209198642E+01  0.10206605228E+01 0.  0.
     999903    2    3    3    0    0 -0.87374187839E-01  0.79788046213E-01  0.53517573245E-01  0.13134965520E+00  0.19703305710E-01 0.  0.
         14    1    1    2    0    0  0.43357253337E-02  0.13849819584E-01 -0.17856380675E-01  0.23010135755E-01  0.00000000000E+00 0. -1.
     999901    1    3    3    0    0  0.83038462505E-01 -0.93637865797E-01 -0.35661192571E-01  0.88957020905E+00  0.88000000000E+00 0. -1.
        -11    1    4    4    0    0 -0.37966806337E-01  0.39342259289E-01  0.14680838706E-01  0.56613425046E-01  0.51100000000E-03 0. -1.
         11    1    4    4    0    0 -0.49407381502E-01  0.40445786924E-01  0.38836734539E-01  0.74736230153E-01  0.51100000000E-03 0.  1.
</event>
<event>
 8    1  0.1115874E+005  0.1043930E+01  0.7957747E-01            NaN
         13   -1    0    0    0    0  0.00000000000E+00  0.00000000000E+00  0.74505805969E-08  0.10566000000E+00  0.10566000000E+00 0. -1.
     999900   -1    0    0    0    0 -0.00000000000E+00 -0.00000000000E+00 -0.74505805969E-08  0.93827000000E+00  0.93827000000E+00 0.  1.
     999902    2    1    2    0    0  0.12661810643E-02  0.16219802522E-01  0.19331068604E-01  0.10186639077E+01  0.10183505199E+01 0.  0.
     999903    2    3    3    0    0  0.13961390882E-01  0.71980041154E-01  0.10830633686E+00  0.13233046538E+00  0.20125672742E-01 0.  0.
         14    1    1    2    0    0 -0.12661810643E-02 -0.16219802522E-01 -0.19331068604E-01  0.25266092332E-01  0.00000000000E+00 0.  1.
     999901    1    3    3    0    0 -0.12695209818E-01 -0.55760238631E-01 -0.88975268253E-01  0.88633344229E+00  0.88000000000E+00 0.  1.
        -11    1    4    4    0    0  0.15396216823E-02  0.26708718774E-01  0.55878762943E-01  0.61955010794E-01  0.51100000000E-03 0. -1.
         11    1    4    4    0    0  0.12421769200E-01  0.45271322379E-01  0.52427573914E-01  0.70375454582E-01  0.51100000000E-03 0.  1.
</event>
<event>
 7    1  0.1115874E+005  0.1043930E+01  0.7957747E-01            NaN
         13   -1    0    0    0    0  0.00000000000E+00  0.00000000000E+00  0.74505805969E-08  0.10566000000E+00  0.10566000000E+00 0. -1.
     999900   -1    0    0    0    0 -0.00000000000E+00 -0.00000000000E+00 -0.74505805969E-08  0.93827000000E+00  0.93827000000E+00 0. -1.
     999903    2    1    2    0    0 -0.72715160839E-01 -0.49595826395E-01  0.77013432108E-01  0.11867774059E+00  0.20151842949E-01 0.  0.
         14    1    1    2    0    0  0.34690086125E-01  0.21151726000E-01 -0.19738263610E-03  0.40630487913E-01  0.00000000000E+00 0.  1.
     999901    1    1    2    0    0  0.38025074714E-01  0.28444100395E-01 -0.76816049472E-01  0.88462177150E+00  0.88000000000E+00 0.  1.
        -11    1    3    3    0    0 -0.57026547130E-02 -0.10527043557E-01  0.55513584254E-02  0.13206726248E-01  0.51100000000E-03 0.  1.
         11    1    3    3    0    0 -0.67012506126E-01 -0.39068782838E-01  0.71462073682E-01  0.10547101434E+00  0.51100000000E-03 0. -1.
</event>
<event>
 8    1  0.1115874E+005  0.1043930E+01  0.7957747E-01            NaN
         13   -1    0    0    0    0  0.00000000000E+00  0.00000000000E+00  0.74505805969E-08  0.10566000000E+00  0.10566000000E+00 0. -1.
     999900   -1    0    0    0    0 -0.00000000000E+00 -0.00000000000E+00 -0.74505805969E-08  0.93827000000E+00  0.93827000000E+00 0. -1.
     999902    2    1    2    0    0  0.17074025502E-01 -0.15432034922E-01  0.15101652201E-01  0.10164031050E+01  0.10160302859E+01 0.  0.
     999903    2    3    3    0    0  0.94695295006E-01  0.22010606970E-01 -0.79560627823E-01  0.12714051152E+00  0.19574229372E-01 0.  0.
         14    1    1    2    0    0 -0.17074025502E-01  0.15432034922E-01 -0.15101652201E-01  0.27526894992E-01  0.00000000000E+00 0.  1.
     999901    1    3    3    0    0 -0.77621269504E-01 -0.37442641892E-01  0.94662280024E-01  0.88926259348E+00  0.88000000000E+00 0.  1.
        -11    1    4    4    0    0  0.25593587779E-01  0.70162317270E-02 -0.11270566327E-01  0.28836539831E-01  0.51100000000E-03 0. -1.
         11    1    4    4    0    0  0.69101707227E-01  0.14994375243E-01 -0.68290061496E-01  0.98303971693E-01  0.51100000000E-03 0.  1.
</event>
<event>
 8    1  0.1115874E+005  0.1043930E+01  0.7957747E-01            NaN
         13   -1    0    0    0    0  0.00000000000E+00  0.00000000000E+00  0.74505805969E-08  0.10566000000E+00  0.10566000000E+00 0.  1.
     999900   -1    0    0    0    0 -0.00000000000E+00 -0.00000000000E+00 -0.74505805969E-08  0.93827000000E+00  0.93827000000E+00 0. -1.
     999902    2    1    2    0    0 -0.13776865869E-01 -0.95127970685E-02  0.16488795605E-01  0.10204315804E+01  0.10201609847E+01 0.  0.
     999903    2    3    3    0    0  0.18539360829E-01 -0.29329070350E-02 -0.12552451683E+00  0.12843639303E+00  0.19677217405E-01 0.  0.
         14    1    1    2    0    0  0.13776865869E-01  0.95127970685E-02 -0.16488795605E-01  0.23498419558E-01  0.00000000000E+00 0.  1.
     999901    1    3    3    0    0 -0.32316226697E-01 -0.65798900335E-02  0.14201331244E+00  0.89199518741E+00  0.88000000000E+00 0.  1.
        -11    1    4    4    0    0  0.20730083509E-01  0.27828872740E-02 -0.10195561431E+00  0.10408020578E+00  0.51100000000E-03 0. -1.
         11    1    4    4    0    0 -0.21907226807E-02 -0.57157943090E-02 -0.23568902517E-01  0.24356187249E-01  0.51100000000E-03 0.  1.
</event>
<event>
 8    1  0.1115874E+005  0.1043930E+01  0.7957747E-01            NaN
         13   -1    0    0    0    0  0.00000000000E+00  0.00000000000E+00  0.74505805969E-08  0.10566000000E+00  0.10566000000E+00 0.  1.
     999900   -1    0    0    0    0 -0.00000000000E+00 -0.00000000000E+00 -0.74505805969E-08  0.93827000000E+00  0.93827000000E+00 0. -1.
     999902    2    1    2    0    0  0.18472091928E-01  0.69772830638E-02 -0.11933143547E-01  0.10208583600E+01  0.10205976144E+01 0.  0.
     999903    2    3    3    0    0  0.88284085692E-01 -0.78841166412E-01  0.53415211647E-01  0.13152775312E+00  0.20889128689E-01 0.  0.
         14    1    1    2    0    0 -0.18472091928E-01 -0.69772830638E-02  0.11933143547E-01  0.23071640038E-01  0.00000000000E+00 0.  1.
     999901    1    3    3    0    0 -0.69811993764E-01  0.85818449475E-01 -0.65348355193E-01  0.88933060684E+00  0.88000000000E+00 0.  1.
        -11    1    4    4    0    0  0.78565331117E-02 -0.16848948984E-01  0.69395434903E-02  0.19850203506E-01  0.51100000000E-03 0. -1.
         11    1    4    4    0    0  0.80427552580E-01 -0.61992217428E-01  0.46475668157E-01  0.11167754961E+00  0.51100000000E-03 0.  1.
</event>
<event>
 7    1  0.1115874E+005  0.1043930E+01  0.7957747E-01            NaN
         13   -1    0    0    0    0  0.00000000000E+00  0.00000000000E+00  0.74505805969E-08  0.10566000000E+00  0.10566000000E+00 0.  1.
     999900   -1    0    0    0    0 -0.00000000000E+00 -0.00000000000E+00 -0.74505805969E-08  0.93827000000E+00  0.93827000000E+00 0.  1.
     999903    2    1    2    0    0 -0.29472523912E-01  0.92334033445E-01 -0.19296819700E-01  0.10080073262E+00  0.19854899837E-01 0.  0.
         14    1    1    2    0    0 -0.26163499793E-01  0.13955862831E-01  0.45837356917E-01  0.54592656264E-01  0.00000000000E+00 0.  1.
     999901    1    1    2    0    0  0.55636023705E-01 -0.10628989628E+00 -0.26540537218E-01  0.88853661112E+00  0.88000000000E+00 0.  1.
        -11    1    3    3    0    0 -0.78047323654E-02  0.27316110812E-01  0.33732794640E-02  0.28613351648E-01  0.51100000000E-03 0. -1.
         11    1    3    3    0    0 -0.21667791546E-01  0.65017922633E-01 -0.22670099163E-01  0.72187380968E-01  0.51100000000E-03 0.  1.
</event>
<event>
 8    1  0.1115874E+005  0.1043930E+01  0.7957747E-01            NaN
         13   -1    0    0    0    0  0.00000000000E+00  0.00000000000E+00  0.74505805969E-08  0.10566000000E+00  0.10566000000E+00 0. -1.
     999900   -1    0    0    0    0 -0.00000000000E+00 -0.00000000000E+00 -0.74505805969E-08  0.93827000000E+00  0.93827000000E+00 0. -1.
     999902    2    1    2    0    0  0.72030650115E-03 -0.49863479940E-02  0.22795894858E-01  0.10205840083E+01  0.10203169520E+01 0.  0.
     999903    2    3    3    0    0  0.24124353479E-01  0.23937107446E-01  0.12765319946E+00  0.13357816273E+00  0.19819603494E-01 0.  0.
         14    1    1    2    0    0 -0.72030650115E-03  0.49863479940E-02 -0.22795894858E-01  0.23345991736E-01  0.00000000000E+00 0.  1.
     999901    1    3    3    0    0 -0.23404046978E-01 -0.28923455440E-01 -0.10485730460E+00  0.88700584554E+00  0.88000000000E+00 0. -1.
        -11    1    4    4    0    0  0.10585867265E-01  0.15194293578E-01  0.98831447535E-01  0.10055268910E+00  0.51100000000E-03 0. -1.
         11    1    4    4    0    0  0.13538486214E-01  0.87428138685E-02  0.28821751920E-01  0.33025473623E-01  0.51100000000E-03 0.  1.
</event>
<event>
 8    1  0.1115874E+005  0.1043930E+01  0.7957747E-01            NaN
         13   -1    0    0    0    0  0.00000000000E+00  0.00000000000E+00  0.74505805969E-08  0.10566000000E+00  0.10566000000E+00 0. -1.
     999900   -1    0    0    0    0 -0.00000000000E+00 -0.00000000000E+00 -0.74505805969E-08  0.93827000000E+00  0.93827000000E+00 0. -1.
     999902    2    1    2    0    0 -0.23044084642E-01 -0.15689967393E-02 -0.11345332451E-02  0.10208047161E+01  0.10205427427E+01 0.  0.
     999903    2    3    3    0    0  0.83553008360E-01  0.74255236405E-01  0.61298241485E-01  0.12894704480E+00  0.19362866902E-01 0.  0.
         14    1    1    2    0    0  0.23044084642E-01  0.15689967393E-02  0.11345332451E-02  0.23125283857E-01  0.00000000000E+00 0. -1.
     999901    1    3    3    0    0 -0.10659709300E+00 -0.75824233144E-01 -0.62432774730E-01  0.89185767134E+00  0.88000000000E+00 0. -1.
        -11    1    4    4    0    0  0.55323677614E-01  0.55739023415E-01  0.34223397457E-01  0.85668256026E-01  0.51100000000E-03 0. -1.
         11    1    4    4    0    0  0.28229330746E-01  0.18516212989E-01  0.27074844028E-01  0.43278788777E-01  0.51100000000E-03 0.  1.
</event>
<event>
 8    1  0.1115874E+005  0.1043930E+01  0.7957747E-01            NaN
         13   -1    0    0    0    0  0.00000000000E+00  0.00000000000E+00  0.74505805969E-08  0.10566000000E+00  0.10566000000E+00 0. -1.
     999900   -1    0    0    0    0 -0.00000000000E+00 -0.00000000000E+00 -0.74505805969E-08  0.93827000000E+00  0.93827000000E+00 0.  1.
     999902    2    1    2    0    0 -0.19710808478E-01  0.96279389849E-02  0.11242906869E-01  0.10192801291E+01  0.10189820241E+01 0.  0.
     999903    2    3    3    0    0 -0.38773610202E-01 -0.42204131277E-01  0.11644051930E+00  0.13129561822E+00  0.19888772816E-01 0.  0.
         14    1    1    2    0    0  0.19710808478E-01 -0.96279389849E-02 -0.11242906869E-01  0.24649870888E-01  0.00000000000E+00 0.  1.
     999901    1    3    3    0    0  0.19062801724E-01  0.51832070262E-01 -0.10519761243E+00  0.88798451089E+00  0.88000000000E+00 0.  1.
        -11    1    4    4    0    0 -0.29776911361E-01 -0.22089711325E-01  0.86543694774E-01  0.94152493450E-01  0.51100000000E-03 0.  1.
         11    1    4    4    0    0 -0.89966988406E-02 -0.20114419952E-01  0.29896824528E-01  0.37143124773E-01  0.51100000000E-03 0. -1.
</event>
<event>
 8    1  0.1115874E+005  0.1043930E+01  0.7957747E-01            NaN
         13   -1    0    0    0    0  0.00000000000E+00  0.00000000000E+00  0.74505805969E-08  0.10566000000E+00  0.10566000000E+00 0. -1.
     999900   -1    0    0    0    0 -0.00000000000E+00 -0.00000000000E+00 -0.74505805969E-08  0.93827000000E+00  0.93827000000E+00 0. -1.
     999902    2    1    2    0    0 -0.13914462419E-01 -0.19331683500E-01 -0.12608545099E-02  0.10200780398E+01  0.10197991426E+01 0.  0.
     999903    2    3    3    0    0 -0.11712885513E+00  0.20779617110E-01  0.52301730798E-01  0.13152242655E+00  0.20290797156E-01 0.  0.
         14    1    1    2    0    0  0.13914462419E-01  0.19331683500E-01  0.12608545099E-02  0.23851960202E-01  0.00000000000E+00 0.  1.
     999901    1    3    3    0    0  0.10321439271E+00 -0.40111300610E-01 -0.53562585307E-01  0.88855561325E+00  0.88000000000E+00 0. -1.
        -11    1    4    4    0    0 -0.68658660374E-01  0.57134979892E-02  0.38474034838E-01  0.78912408285E-01  0.51100000000E-03 0. -1.
         11    1    4    4    0    0 -0.48470194754E-01  0.15066119120E-01  0.13827695960E-01  0.52610018260E-01  0.51100000000E-03 0.  1.
</event>
<event>
 8    1  0.1115874E+005  0.1043930E+01  0.7957747E-01            NaN
         13   -1    0    0    0    0  0.00000000000E+00  0.00000000000E+00  0.74505805969E-08  0.10566000000E+00  0.10566000000E+00 0.  1.
     999900   -1    0    0    0    0 -0.00000000000E+00 -0.00000000000E+00 -0.74505805969E-08  0.93827000000E+00  0.93827000000E+00 0. -1.
     999902    2    1    2    0    0 -0.11353329546E-01 -0.19864004646E-01 -0.29270669122E-02  0.10208639103E+01  0.10206032916E+01 0.  0.
     999903    2    3    3    0    0 -0.60463468608E-01 -0.36718470676E-01  0.10983866852E+00  0.13215023884E+00  0.19876503667E-01 0.  0.
         14    1    1    2    0    0  0.11353329546E-01  0.19864004646E-01  0.29270669122E-02  0.23066089679E-01  0.00000000000E+00 0.  1.
     999901    1    3    3    0    0  0.49110139062E-01  0.16854466030E-01 -0.11276573544E+00  0.88871367148E+00  0.88000000000E+00 0. -1.
        -11    1    4    4    0    0 -0.10011731813E-01 -0.14976617442E-01  0.34288527272E-01  0.38736262951E-01  0.51100000000E-03 0. -1.
         11    1    4    4    0    0 -0.50451736795E-01 -0.21741853234E-01  0.75550141253E-01  0.93413975892E-01  0.51100000000E-03 0.  1.
</event>
<event>
 8    1  0.1115874E+005  0.1043930E+01  0.7957747E-01            NaN
         13   -1    0    0    0    0  0.00000000000E+00  0.00000000000E+00  0.74505805969E-08  0.10566000000E+00  0.10566000000E+00 0. -1.
     999900   -1    0    0    0    0 -0.00000000000E+00 -0.00000000000E+00 -0.74505805969E-08  0.93827000000E+00  0.93827000000E+00 0.  1.
     999902    2    1    2    0    0  0.24444815998E-02  0.15035217698E-01 -0.18428225241E-01  0.10200211576E+01  0.10197409127E+01 0.  0.
     999903    2    3    3    0    0 -0.69408487833E-01  0.10979845771E+00  0.70775117353E-02  0.13165554392E+00  0.20244791234E-01 0.  0.
         14    1    1    2    0    0 -0.24444815998E-02 -0.15035217698E-01  0.18428225241E-01  0.23908842445E-01  0.00000000000E+00 0.  1.
     999901    1    3    3    0    0  0.71852969433E-01 -0.94763240016E-01 -0.25505736977E-01  0.88836561364E+00  0.88000000000E+00 0. -1.
        -11    1    4    4    0    0 -0.24708121695E-01  0.47192650911E-01  0.11871297794E-01  0.54578625945E-01  0.51100000000E-03 0.  1.
         11    1    4    4    0    0 -0.44700366138E-01  0.62605806803E-01 -0.47937860590E-02  0.77076917972E-01  0.51100000000E-03 0. -1.
</event>
<event>
 8    1  0.1115874E+005  0.1043930E+01  0.7957747E-01            NaN
         13   -1    0    0    0    0  0.00000000000E+00  0.00000000000E+00  0.74505805969E-08  0.10566000000E+00  0.10566000000E+00 0. -1.
     999900   -1    0    0    0    0 -0.00000000000E+00 -0.00000000000E+00 -0.74505805969E-08  0.93827000000E+00  0.93827000000E+00 0. -1.
     999902    2    1    2    0    0 -0.11128820502E-01  0.99884084674E-02 -0.19045080313E-01  0.10197156647E+01  0.10194281254E+01 0.  0.
     999903    2    3    3    0    0  0.11225888588E+00  0.23019894768E-01  0.53664626477E-01  0.12804249186E+00  0.19570758054E-01 0.  0.
         14    1    1    2    0    0  0.11128820502E-01 -0.99884084674E-02  0.19045080313E-01  0.24214335291E-01  0.00000000000E+00 0. -1.
     999901    1    3    3    0    0 -0.12338770639E+00 -0.13031486301E-01 -0.72709706790E-01  0.89167317285E+00  0.88000000000E+00 0.  1.
        -11    1    4    4    0    0  0.90714059808E-01  0.19137084574E-01  0.51454252734E-01  0.10603334333E+00  0.51100000000E-03 0. -1.
         11    1    4    4    0    0  0.21544826077E-01  0.38828101943E-02  0.22103737422E-02  0.22009148524E-01  0.51100000000E-03 0.  1.
</event>
<event>
 8    1  0.1115874E+005  0.1043930E+01  0.7957747E-01            NaN
         13   -1    0    0    0    0  0.00000000000E+00  0.00000000000E+00  0.74505805969E-08  0.10566000000E+00  0.10566000000E+00 0.  1.
     999900   -1    0    0    0    0 -0.00000000000E+00 -0.00000000000E+00 -0.74505805969E-08  0.93827000000E+00  0.93827000000E+00 0.  1.
     999902    2    1    2    0    0 -0.46493935555E-02 -0.21679152018E-01  0.73431033890E-02  0.10205735521E+01  0.10203062538E+01 0.  0.
     999903    2    3    3    0    0 -0.77819112915E-01  0.99231088155E-01 -0.17429068084E-01  0.12895325481E+00  0.20555931491E-01 0.  0.
         14    1    1    2    0    0  0.46493935555E-02  0.21679152018E-01 -0.73431033890E-02  0.23356447932E-01  0.00000000000E+00 0. -1.
     999901    1    3    3    0    0  0.73169719359E-01 -0.12091024017E+00  0.24772171473E-01  0.89162029726E+00  0.88000000000E+00 0.  1.
        -11    1    4    4    0    0 -0.44604255720E-01  0.42642083465E-01 -0.13799803690E-01  0.63234346786E-01  0.51100000000E-03 0.  1.
         11    1    4    4    0    0 -0.33214857195E-01  0.56589004690E-01 -0.36292643945E-02  0.65718908020E-01  0.51100000000E-03 0. -1.
</event>
<event>
 8    1  0.1115874E+005  0.1043930E+01  0.7957747E-01            NaN
         13   -1    0    0    0    0  0.00000000000E+00  0.00000000000E+00  0.74505805969E-08  0.10566000000E+00  0.10566000000E+00 0.  1.
     999900   -1    0    0    0    0 -0.00000000000E+00 -0.00000000000E+00 -0.74505805969E-08  0.93827000000E+00  0.93827000000E+00 0. -1.
     999902    2    1    2    0    0  0.12217910597E-01  0.33221278288E-02  0.19351381805E-01  0.10208044762E+01  0.10205424973E+01 0.  0.
     999903    2    3    3    0    0  0.11342583655E+00 -0.54015206323E-01  0.37429700300E-01  0.13296584236E+00  0.22268135480E-01 0.  0.
         14    1    1    2    0    0 -0.12217910597E-01 -0.33221278288E-02 -0.19351381805E-01  0.23125523787E-01  0.00000000000E+00 0. -1.
     999901    1    3    3    0    0 -0.10120792596E+00  0.57337334152E-01 -0.18078318495E-01  0.88783863385E+00  0.88000000000E+00 0.  1.
        -11    1    4    4    0    0  0.63548584003E-01 -0.31449163601E-01  0.96060180025E-02  0.71554239028E-01  0.51100000000E-03 0. -1.
         11    1    4    4    0    0  0.49877252550E-01 -0.22566042722E-01  0.27823682298E-01  0.61411603331E-01  0.51100000000E-03 0.  1.
</event>
<event>
 8    1  0.1115874E+005  0.1043930E+01  0.7957747E-01            NaN
         13   -1    0    0    0    0  0.00000000000E+00  0.00000000000E+00  0.74505805969E-08  0.10566000000E+00  0.10566000000E+00 0. -1.
     999900   -1    0    0    0    0 -0.00000000000E+00 -0.00000000000E+00 -0.74505805969E-08  0.93827000000E+00  0.93827000000E+00 0. -1.
     999902    2    1    2    0    0  0.13758764212E-01 -0.16242515259E-01 -0.10139995602E-01  0.10203515691E+01  0.10200791058E+01 0.  0.
     999903    2    3    3    0    0 -0.86009302310E-01 -0.68780867591E-01  0.65879024000E-01  0.12990626647E+00  0.20178811547E-01 0.  0.
         14    1    1    2    0    0 -0.13758764212E-01  0.16242515259E-01  0.10139995602E-01  0.23578430936E-01  0.00000000000E+00 0. -1.
     999901    1    3    3    0    0  0.99768066523E-01  0.52538352332E-01 -0.76019019602E-01  0.89044530259E+00  0.88000000000E+00 0. -1.
        -11    1    4    4    0    0 -0.72785535219E-02 -0.14665529770E-01  0.83530881580E-02  0.18387232189E-01  0.51100000000E-03 0. -1.
         11    1    4    4    0    0 -0.78730748788E-01 -0.54115337822E-01  0.57525935842E-01  0.11151903428E+00  0.51100000000E-03 0.  1.
</event>
<event>
 8    1  0.1115874E+005  0.1043930E+01  0.7957747E-01            NaN
         13   -1    0    0    0    0  0.00000000000E+00  0.00000000000E+00  0.74505805969E-08  0.10566000000E+00  0.10566000000E+00 0. -1.
     999900   -1    0    0    0    0 -0.00000000000E+00 -0.00000000000E+00 -0.74505805969E-08  0.93827000000E+00  0.93827000000E+00 0.  1.
     999902    2    1    2    0    0 -0.19501912232E-01 -0.19897124534E-02  0.13589469556E-01  0.10200771759E+01  0.10197982582E+01 0.  0.
     999903    2    3    3    0    0  0.83517443582E-01  0.85889087984E-01  0.44056862935E-01  0.12919899491E+00  0.19981849202E-01 0.  0.
         14    1    1    2    0    0  0.19501912232E-01  0.19897124534E-02 -0.13589469556E-01  0.23852824134E-01  0.00000000000E+00 0. -1.
     999901    1    3    3    0    0 -0.10301935581E+00 -0.87878800438E-01 -0.30467393379E-01  0.89087818095E+00  0.88000000000E+00 0. -1.
        -11    1    4    4    0    0  0.21944222449E-01  0.35979925916E-01  0.13599463435E-01  0.44286685296E-01  0.51100000000E-03 0. -1.
         11    1    4    4    0    0  0.61573221134E-01  0.49909162068E-01  0.30457399501E-01  0.84912309617E-01  0.51100000000E-03 0.  1.
</event>
<event>
 8    1  0.1115874E+005  0.1043930E+01  0.7957747E-01            NaN
         13   -1    0    0    0    0  0.00000000000E+00  0.00000000000E+00  0.74505805969E-08  0.10566000000E+00  0.10566000000E+00 0. -1.
     999900   -1    0    0    0    0 -0.00000000000E+00 -0.00000000000E+00 -0.74505805969E-08  0.93827000000E+00  0.93827000000E+00 0. -1.
     999902    2    1    2    0    0  0.15384280001E-01 -0.11867633124E-01  0.15302170300E-01  0.10191979721E+01  0.10188978522E+01 0.  0.
     999903    2    3    3    0    0  0.70656201513E-01 -0.10607203426E+00 -0.25033160929E-01  0.13152889333E+00  0.20727165005E-01 0.  0.
         14    1    1    2    0    0 -0.15384280001E-01  0.11867633124E-01 -0.15302170300E-01  0.24732027879E-01  0.00000000000E+00 0. -1.
     999901    1    3    3    0    0 -0.55271921512E-01  0.94204401137E-01  0.40335331230E-01  0.88766907879E+00  0.88000000000E+00 0.  1.
        -11    1    4    4    0    0  0.12427110168E-01 -0.32374754072E-01 -0.12018389243E-01  0.36705048282E-01  0.51100000000E-03 0.  1.
         11    1    4    4    0    0  0.58229091345E-01 -0.73697280189E-01 -0.13014771686E-01  0.94823845046E-01  0.51100000000E-03 0. -1.
</event>
<event>
 8    1  0.1115874E+005  0.1043930E+01  0.7957747E-01            NaN
         13   -1    0    0    0    0  0.00000000000E+00  0.00000000000E+00  0.74505805969E-08  0.10566000000E+00  0.10566000000E+00 0. -1.
     999900   -1    0    0    0    0 -0.00000000000E+00 -0.00000000000E+00 -0.74505805969E-08  0.93827000000E+00  0.93827000000E+00 0. -1.
     999902    2    1    2    0    0  0.10361079828E-01 -0.28233638789E-01  0.11142025273E-02  0.10138346219E+01  0.10133878373E+01 0.  0.
     999903    2    3    3    0    0 -0.78889826480E-01 -0.32988363303E-01 -0.88708964804E-01  0.12475839736E+00  0.19584188539E-01 0.  0.
         14    1    1    2    0    0 -0.10361079828E-01  0.28233638789E-01 -0.11142025273E-02  0.30095378080E-01  0.00000000000E+00 0.  1.
     999901    1    3    3    0    0  0.89250906308E-01  0.47547245139E-02  0.89823167332E-01  0.88907622456E+00  0.88000000000E+00 0. -1.
        -11    1    4    4    0    0 -0.38134541338E-01 -0.79454452396E-02 -0.30903126978E-01  0.49725624391E-01  0.51100000000E-03 0.  1.
         11    1    4    4    0    0 -0.40755285142E-01 -0.25042918063E-01 -0.57805837827E-01  0.75032772973E-01  0.51100000000E-03 0. -1.
</event>
<event>
 8    1  0.1115874E+005  0.1043930E+01  0.7957747E-01            NaN
         13   -1    0    0    0    0  0.00000000000E+00  0.00000000000E+00  0.74505805969E-08  0.10566000000E+00  0.10566000000E+00 0.  1.
     999900   -1    0    0    0    0 -0.00000000000E+00 -0.00000000000E+00 -0.74505805969E-08  0.93827000000E+00  0.93827000000E+00 0.  1.
     999902    2    1    2    0    0 -0.82853735895E-02  0.64795022948E-02  0.21148899299E-01  0.10203099385E+01  0.10200365009E+01 0.  0.
     999903    2    3    3    0    0 -0.38179081444E-03  0.83710789322E-01  0.10182605110E+00  0.13321583909E+00  0.19242481374E-01 0.  0.
         14    1    1    2    0    0  0.82853735895E-02 -0.64795022948E-02 -0.21148899299E-01  0.23620061538E-01  0.00000000000E+00 0. -1.
     999901    1    3    3    0    0 -0.79035827751E-02 -0.77231287027E-01 -0.80677151798E-01  0.88709409937E+00  0.88000000000E+00 0.  1.
        -11    1    4    4    0    0  0.74305823313E-02  0.25630443533E-01  0.24840671974E-01  0.36461668839E-01  0.51100000000E-03 0. -1.
         11    1    4    4    0    0 -0.78123731458E-02  0.58080345789E-01  0.76985379124E-01  0.96754170251E-01  0.51100000000E-03 0.  1.
</event>
<event>
 8    1  0.1115874E+005  0.1043930E+01  0.7957747E-01            NaN
         13   -1    0    0    0    0  0.00000000000E+00  0.00000000000E+00  0.74505805969E-08  0.10566000000E+00  0.10566000000E+00 0.  1.
     999900   -1    0    0    0    0 -0.00000000000E+00 -0.00000000000E+00 -0.74505805969E-08  0.93827000000E+00  0.93827000000E+00 0. -1.
     999902    2    1    2    0    0  0.46817736591E-02  0.17368279142E-01 -0.15378782691E-01  0.10202639255E+01  0.10199894091E+01 0.  0.
     999903    2    3    3    0    0 -0.10209237047E+00  0.72683573430E-01  0.31711212096E-01  0.13083828654E+00  0.20181731810E-01 0.  0.
         14    1    1    2    0    0 -0.46817736591E-02 -0.17368279142E-01  0.15378782691E-01  0.23666074495E-01  0.00000000000E+00 0.  1.
     999901    1    3    3    0    0  0.10677414412E+00 -0.55315294289E-01 -0.47089994787E-01  0.88942563896E+00  0.88000000000E+00 0. -1.
        -11    1    4    4    0    0 -0.58232780327E-01  0.53016604075E-01  0.16994501972E-01  0.80566067488E-01  0.51100000000E-03 0.  1.
         11    1    4    4    0    0 -0.43859590139E-01  0.19666969356E-01  0.14716710124E-01  0.50272219054E-01  0.51100000000E-03 0. -1.
</event>
<event>
 8    1  0.1115874E+005  0.1043930E+01  0.7957747E-01            NaN
         13   -1    0    0    0    0  0.00000000000E+00  0.00000000000E+00  0.74505805969E-08  0.10566000000E+00  0.10566000000E+00 0.  1.
     999900   -1    0    0    0    0 -0.00000000000E+00 -0.00000000000E+00 -0.74505805969E-08  0.93827000000E+00  0.93827000000E+00 0. -1.
     999902    2    1    2    0    0  0.99837565891E-02 -0.88024842235E-02 -0.18833436261E-01  0.10208679653E+01  0.10206074393E+01 0.  0.
     999903    2    3    3    0    0  0.68699023877E-01 -0.85126499103E-01 -0.74334776735E-01  0.13387685109E+00  0.20767173456E-01 0.  0.
         14    1    1    2    0    0 -0.99837565891E-02  0.88024842235E-02  0.18833436261E-01  0.23062034722E-01  0.00000000000E+00 0.  1.
     999901    1    3    3    0    0 -0.58715267288E-01  0.76324014879E-01  0.55501340475E-01  0.88699111419E+00  0.88000000000E+00 0. -1.
        -11    1    4    4    0    0  0.35948468676E-01 -0.56602964985E-01 -0.36903368588E-01  0.76539583089E-01  0.51100000000E-03 0. -1.
         11    1    4    4    0    0  0.32750555201E-01 -0.28523534118E-01 -0.37431408147E-01  0.57337267998E-01  0.51100000000E-03 0.  1.
</event>
<event>
 8    1  0.1115874E+005  0.1043930E+01  0.7957747E-01            NaN
         13   -1    0    0    0    0  0.00000000000E+00  0.00000000000E+00  0.74505805969E-08  0.10566000000E+00  0.10566000000E+00 0. -1.
     999900   -1    0    0    0    0 -0.00000000000E+00 -0.00000000000E+00 -0.74505805969E-08  0.93827000000E+00  0.93827000000E+00 0.  1.
     999902    2    1    2    0    0  0.24119647516E-01 -0.96663572727E-02 -0.25252406376E-03  0.10179442418E+01  0.10176125097E+01 0.  0.
     999903    2    3    3    0    0 -0.92572007213E-01 -0.59328949161E-01  0.60195077433E-01  0.12680046676E+00  0.19115708091E-01 0.  0.
         14    1    1    2    0    0 -0.24119647516E-01  0.96663572727E-02  0.25252406376E-03  0.25985758169E-01  0.00000000000E+00 0. -1.
     999901    1    3    3    0    0  0.11669165473E+00  0.49662591888E-01 -0.60447601497E-01  0.89114377507E+00  0.88000000000E+00 0.  1.
        -11    1    4    4    0    0 -0.32291059342E-01 -0.30598051424E-01  0.19304194944E-01  0.48496044455E-01  0.51100000000E-03 0.  1.
         11    1    4    4    0    0 -0.60280947872E-01 -0.28730897737E-01  0.40890882489E-01  0.78304422307E-01  0.51100000000E-03 0. -1.
</event>
<event>
 7    1  0.1115874E+005  0.1043930E+01  0.7957747E-01            NaN
         13   -1    0    0    0    0  0.00000000000E+00  0.00000000000E+00  0.74505805969E-08  0.10566000000E+00  0.10566000000E+00 0.  1.
     999900   -1    0    0    0    0 -0.00000000000E+00 -0.00000000000E+00 -0.74505805969E-08  0.93827000000E+00  0.93827000000E+00 0.  1.
     999903    2    1    2    0    0  0.71445447306E-01  0.51981179667E-01  0.29435086030E-01  0.95260082973E-01  0.20039065299E-01 0.  0.
         14    1    1    2    0    0 -0.57660389067E-01  0.27921631825E-02 -0.33708323913E-01  0.66848842500E-01  0.00000000000E+00 0. -1.
     999901    1    1    2    0    0 -0.13785058239E-01 -0.54773342849E-01  0.42732378829E-02  0.88182107453E+00  0.88000000000E+00 0.  1.
        -11    1    3    3    0    0  0.56436820461E-01  0.49773009432E-01  0.26631147962E-01  0.79824472028E-01  0.51100000000E-03 0. -1.
         11    1    3    3    0    0  0.15008626845E-01  0.22081702347E-02  0.28039380672E-02  0.15435610945E-01  0.51100000000E-03 0.  1.
</event>
<event>
 8    1  0.1115874E+005  0.1043930E+01  0.7957747E-01            NaN
         13   -1    0    0    0    0  0.00000000000E+00  0.00000000000E+00  0.74505805969E-08  0.10566000000E+00  0.10566000000E+00 0. -1.
     999900   -1    0    0    0    0 -0.00000000000E+00 -0.00000000000E+00 -0.74505805969E-08  0.93827000000E+00  0.93827000000E+00 0. -1.
     999902    2    1    2    0    0  0.13188494190E-01 -0.16118142936E-01  0.12157862728E-01  0.10198147655E+01  0.10195296030E+01 0.  0.
     999903    2    3    3    0    0 -0.10831037847E+00  0.63835465232E-01 -0.71284482462E-02  0.12766762664E+00  0.21026255317E-01 0.  0.
         14    1    1    2    0    0 -0.13188494190E-01  0.16118142936E-01 -0.12157862728E-01  0.24115234538E-01  0.00000000000E+00 0.  1.
     999901    1    3    3    0    0  0.12149887266E+00 -0.79953608168E-01  0.19286310974E-01  0.89214713882E+00  0.88000000000E+00 0. -1.
        -11    1    4    4    0    0 -0.84781773441E-01  0.50730531293E-01  0.31096126613E-02  0.98850729511E-01  0.51100000000E-03 0. -1.
         11    1    4    4    0    0 -0.23528605026E-01  0.13104933939E-01 -0.10238060908E-01  0.28816897129E-01  0.51100000000E-03 0.  1.
</event>
<event>
 8    1  0.1115874E+005  0.1043930E+01  0.7957747E-01            NaN
         13   -1    0    0    0    0  0.00000000000E+00  0.00000000000E+00  0.74505805969E-08  0.10566000000E+00  0.10566000000E+00 0. -1.
     999900   -1    0    0    0    0 -0.00000000000E+00 -0.00000000000E+00 -0.74505805969E-08  0.93827000000E+00  0.93827000000E+00 0. -1.
     999902    2    1    2    0    0  0.48596133309E-02  0.14308901558E-03 -0.23214784664E-01  0.10202115991E+01  0.10199358530E+01 0.  0.
     999903    2    3    3    0    0 -0.83034855151E-02  0.12870505103E+00 -0.60064865722E-02  0.13060630975E+00  0.19697518408E-01 0.  0.
         14    1    1    2    0    0 -0.48596133309E-02 -0.14308901558E-03  0.23214784664E-01  0.23718400941E-01  0.00000000000E+00 0. -1.
     999901    1    3    3    0    0  0.13163098846E-01 -0.12856196202E+00 -0.17208298092E-01  0.88960528931E+00  0.88000000000E+00 0.  1.
        -11    1    4    4    0    0 -0.14491457252E-01  0.84015378187E-01 -0.15980363629E-02  0.85272509910E-01  0.51100000000E-03 0.  1.
         11    1    4    4    0    0  0.61879717368E-02  0.44689672846E-01 -0.44084502093E-02  0.45333799836E-01  0.51100000000E-03 0. -1.
</event>
<event>
 8    1  0.1115874E+005  0.1043930E+01  0.7957747E-01            NaN
         13   -1    0    0    0    0  0.00000000000E+00  0.00000000000E+00  0.74505805969E-08  0.10566000000E+00  0.10566000000E+00 0.  1.
     999900   -1    0    0    0    0 -0.00000000000E+00 -0.00000000000E+00 -0.74505805969E-08  0.93827000000E+00  0.93827000000E+00 0. -1.
     999902    2    1    2    0    0 -0.13943165546E-01 -0.31047478018E-02  0.19117935486E-01  0.10200648207E+01  0.10197856107E+01 0.  0.
     999903    2    3    3    0    0  0.11075709077E+00  0.62395461787E-01  0.12354139556E-02  0.12868374848E+00  0.19941265461E-01 0.  0.
         14    1    1    2    0    0  0.13943165546E-01  0.31047478018E-02 -0.19117935486E-01  0.23865179271E-01  0.00000000000E+00 0. -1.
     999901    1    3    3    0    0 -0.12470025632E+00 -0.65500209588E-01  0.17882521531E-01  0.89138107225E+00  0.88000000000E+00 0. -1.
        -11    1    4    4    0    0  0.26720458515E-01  0.66595519601E-02 -0.33075229889E-02  0.27740464396E-01  0.51100000000E-03 0. -1.
         11    1    4    4    0    0  0.84036632257E-01  0.55735909826E-01  0.45429369445E-02  0.10094328409E+00  0.51100000000E-03 0.  1.
</event>
<event>
 8    1  0.1115874E+005  0.1043930E+01  0.7957747E-01            NaN
         13   -1    0    0    0    0  0.00000000000E+00  0.00000000000E+00  0.74505805969E-08  0.10566000000E+00  0.10566000000E+00 0.  1.
     999900   -1    0    0    0    0 -0.00000000000E+00 -0.00000000000E+00 -0.74505805969E-08  0.93827000000E+00  0.93827000000E+00 0. -1.
     999902    2    1    2    0    0  0.28672176366E-02  0.22427971245E-01  0.67528453158E-02  0.10203326325E+01  0.10200597263E+01 0.  0.
     999903    2    3    3    0    0 -0.64429435645E-01  0.11404773992E+00 -0.73057935687E-02  0.13290902068E+00  0.21293050552E-01 0.  0.
         14    1    1    2    0    0 -0.28672176366E-02 -0.22427971245E-01 -0.67528453158E-02  0.23597367459E-01  0.00000000000E+00 0. -1.
     999901    1    3    3    0    0  0.67296653281E-01 -0.91619768671E-01  0.14058638884E-01  0.88742361186E+00  0.88000000000E+00 0.  1.
        -11    1    4    4    0    0 -0.30352293754E-01  0.37716617322E-01 -0.92555691047E-02  0.49292308110E-01  0.51100000000E-03 0.  1.
         11    1    4    4    0    0 -0.34077141890E-01  0.76331122594E-01  0.19497755360E-02  0.83616712573E-01  0.51100000000E-03 0. -1.
</event>
<event>
 8    1  0.1115874E+005  0.1043930E+01  0.7957747E-01            NaN
         13   -1    0    0    0    0  0.00000000000E+00  0.00000000000E+00  0.74505805969E-08  0.10566000000E+00  0.10566000000E+00 0. -1.
     999900   -1    0    0    0    0 -0.00000000000E+00 -0.00000000000E+00 -0.74505805969E-08  0.93827000000E+00  0.93827000000E+00 0.  1.
     999902    2    1    2    0    0 -0.13628292314E-01  0.82394468319E-02 -0.17135529251E-01  0.10205367275E+01  0.10202685759E+01 0.  0.
     999903    2    3    3    0    0 -0.12079087468E+00  0.20797888359E-01  0.44060890048E-01  0.13183737719E+00  0.20414319108E-01 0.  0.
         14    1    1    2    0    0  0.13628292314E-01 -0.82394468319E-02  0.17135529251E-01  0.23393272499E-01  0.00000000000E+00 0. -1.
     999901    1    3    3    0    0  0.10716258237E+00 -0.12558441527E-01 -0.61196419299E-01  0.88869935031E+00  0.88000000000E+00 0. -1.
        -11    1    4    4    0    0 -0.38069997805E-01  0.10544858817E-01  0.23558146036E-01  0.45997458039E-01  0.51100000000E-03 0. -1.
         11    1    4    4    0    0 -0.82720876879E-01  0.10253029542E-01  0.20502744012E-01  0.85839919148E-01  0.51100000000E-03 0.  1.
</event>
<event>
 8    1  0.1115874E+005  0.1043930E+01  0.7957747E-01            NaN
         13   -1    0    0    0    0  0.00000000000E+00  0.00000000000E+00  0.74505805969E-08  0.10566000000E+00  0.10566000000E+00 0. -1.
     999900   -1    0    0    0    0 -0.00000000000E+00 -0.00000000000E+00 -0.74505805969E-08  0.93827000000E+00  0.93827000000E+00 0.  1.
     999902    2    1    2    0    0 -0.16113725757E-01  0.42332822330E-02 -0.18274554411E-01  0.10192008234E+01  0.10189007735E+01 0.  0.
     999903    2    3    3    0    0  0.14488003104E-01 -0.80922370512E-01  0.95601445620E-01  0.12726153489E+00  0.17249045647E-01 0.  0.
         14    1    1    2    0    0  0.16113725757E-01 -0.42332822330E-02  0.18274554411E-01  0.24729176597E-01  0.00000000000E+00 0. -1.
     999901    1    3    3    0    0 -0.30601728860E-01  0.85155652745E-01 -0.11387600003E+00  0.89193928851E+00  0.88000000000E+00 0. -1.
        -11    1    4    4    0    0  0.10123612938E-01 -0.76784101792E-01  0.91887904527E-01  0.12017459776E+00  0.51100000000E-03 0.  1.
         11    1    4    4    0    0  0.43643901661E-02 -0.41382687200E-02  0.37135410930E-02  0.70869371361E-02  0.51100000000E-03 0. -1.
</event>
<event>
 8    1  0.1115874E+005  0.1043930E+01  0.7957747E-01            NaN
         13   -1    0    0    0    0  0.00000000000E+00  0.00000000000E+00  0.74505805969E-08  0.10566000000E+00  0.10566000000E+00 0. -1.
     999900   -1    0    0    0    0 -0.00000000000E+00 -0.00000000000E+00 -0.74505805969E-08  0.93827000000E+00  0.93827000000E+00 0.  1.
     999902    2    1    2    0    0  0.22077511527E-01 -0.11915807689E-01  0.91516014158E-02  0.10172250417E+01  0.10168744420E+01 0.  0.
     999903    2    3    3    0    0 -0.40983835442E-01 -0.17434479747E-01 -0.11645855024E+00  0.12605440743E+00  0.18533317531E-01 0.  0.
         14    1    1    2    0    0 -0.22077511527E-01  0.11915807689E-01 -0.91516014158E-02  0.26704958278E-01  0.00000000000E+00 0. -1.
     999901    1    3    3    0    0  0.63061346969E-01  0.55186720582E-02  0.12561015165E+00  0.89117063429E+00  0.88000000000E+00 0.  1.
        -11    1    4    4    0    0 -0.36400382708E-01 -0.74698915437E-02 -0.86402001776E-01  0.94055059262E-01  0.51100000000E-03 0. -1.
         11    1    4    4    0    0 -0.45834527339E-02 -0.99645882037E-02 -0.30056548459E-01  0.31999348170E-01  0.51100000000E-03 0.  1.
</event>
<event>
 8    1  0.1115874E+005  0.1043930E+01  0.7957747E-01            NaN
         13   -1    0    0    0    0  0.00000000000E+00  0.00000000000E+00  0.74505805969E-08  0.10566000000E+00  0.10566000000E+00 0. -1.
     999900   -1    0    0    0    0 -0.00000000000E+00 -0.00000000000E+00 -0.74505805969E-08  0.93827000000E+00  0.93827000000E+00 0. -1.
     999902    2    1    2    0    0  0.11682278367E-01  0.22638766555E-02  0.21116520851E-01  0.10196914312E+01  0.10194033091E+01 0.  0.
     999903    2    3    3    0    0  0.26496261352E-01 -0.11444212702E+00  0.54943699842E-01  0.13121857092E+00  0.20011269318E-01 0.  0.
         14    1    1    2    0    0 -0.11682278367E-01 -0.22638766555E-02 -0.21116520851E-01  0.24238568815E-01  0.00000000000E+00 0.  1.
     999901    1    3    3    0    0 -0.14813982985E-01  0.11670600368E+00 -0.33827178991E-01  0.88847286026E+00  0.88000000000E+00 0.  1.
        -11    1    4    4    0    0  0.26837989085E-01 -0.83155830835E-01  0.35114147759E-01  0.94172365128E-01  0.51100000000E-03 0.  1.
         11    1    4    4    0    0 -0.34172773353E-03 -0.31286296186E-01  0.19829552084E-01  0.37046205794E-01  0.51100000000E-03 0. -1.
</event>
<event>
 8    1  0.1115874E+005  0.1043930E+01  0.7957747E-01            NaN
         13   -1    0    0    0    0  0.00000000000E+00  0.00000000000E+00  0.74505805969E-08  0.10566000000E+00  0.10566000000E+00 0.  1.
     999900   -1    0    0    0    0 -0.00000000000E+00 -0.00000000000E+00 -0.74505805969E-08  0.93827000000E+00  0.93827000000E+00 0. -1.
     999902    2    1    2    0    0 -0.18894086129E-01  0.14113735692E-01  0.13612618428E-02  0.10203071920E+01  0.10200336901E+01 0.  0.
     999903    2    3    3    0    0  0.12514351977E+00 -0.12676316136E-02 -0.17793164322E-01  0.12825881300E+00  0.21707578973E-01 0.  0.
         14    1    1    2    0    0  0.18894086129E-01 -0.14113735692E-01 -0.13612618428E-02  0.23622808039E-01  0.00000000000E+00 0.  1.
     999901    1    3    3    0    0 -0.14403760590E+00  0.15381367305E-01  0.19154426165E-01  0.89204837897E+00  0.88000000000E+00 0. -1.
        -11    1    4    4    0    0  0.49900353471E-01 -0.16046385681E-02  0.35207106254E-02  0.50052738844E-01  0.51100000000E-03 0. -1.
         11    1    4    4    0    0  0.75243166296E-01  0.33700695450E-03 -0.21313874948E-01  0.78206074152E-01  0.51100000000E-03 0.  1.
</event>
<event>
 8    1  0.1115874E+005  0.1043930E+01  0.7957747E-01            NaN
         13   -1    0    0    0    0  0.00000000000E+00  0.00000000000E+00  0.74505805969E-08  0.10566000000E+00  0.10566000000E+00 0. -1.
     999900   -1    0    0    0    0 -0.00000000000E+00 -0.00000000000E+00 -0.74505805969E-08  0.93827000000E+00  0.93827000000E+00 0.  1.
     999902    2    1    2    0    0 -0.19211127191E-01  0.12243744505E-01 -0.58929855584E-02  0.10203990849E+01  0.10201277314E+01 0.  0.
     999903    2    3    3    0    0 -0.80525598848E-01  0.23223658617E-01 -0.10137621562E+00  0.13304511370E+00  0.20003869563E-01 0.  0.
         14    1    1    2    0    0  0.19211127191E-01 -0.12243744505E-01  0.58929855584E-02  0.23530915117E-01  0.00000000000E+00 0. -1.
     999901    1    3    3    0    0  0.61314471657E-01 -0.10979914112E-01  0.95483230059E-01  0.88735397118E+00  0.88000000000E+00 0. -1.
        -11    1    4    4    0    0 -0.51822970472E-01  0.96546285483E-02 -0.50053931078E-01  0.72694492627E-01  0.51100000000E-03 0. -1.
         11    1    4    4    0    0 -0.28702628376E-01  0.13569030069E-01 -0.51322284540E-01  0.60350621075E-01  0.51100000000E-03 0.  1.
</event>
<event>
 8    1  0.1115874E+005  0.1043930E+01  0.7957747E-01            NaN
         13   -1    0    0    0    0  0.00000000000E+00  0.00000000000E+00  0.74505805969E-08  0.10566000000E+00  0.10566000000E+00 0.  1.
     999900   -1    0    0    0    0 -0.00000000000E+00 -0.00000000000E+00 -0.74505805969E-08  0.93827000000E+00  0.93827000000E+00 0.  1.
     999902    2    1    2    0    0  0.15700257624E-01 -0.71335084179E-02 -0.24495512963E-01  0.10139731112E+01  0.10135304904E+01 0.  0.
     999903    2    3    3    0    0  0.60913299878E-01  0.89355858030E-01 -0.63120980051E-01  0.12670407435E+00  0.19358844698E-01 0.  0.
         14    1    1    2    0    0 -0.15700257624E-01  0.71335084179E-02  0.24495512963E-01  0.29956888810E-01  0.00000000000E+00 0.  1.
     999901    1    3    3    0    0 -0.45213042253E-01 -0.96489366448E-01  0.38625467088E-01  0.88726903684E+00  0.88000000000E+00 0.  1.
        -11    1    4    4    0    0  0.36002971306E-01  0.64731092334E-01 -0.49649779322E-01  0.89172248852E-01  0.51100000000E-03 0.  1.
         11    1    4    4    0    0  0.24910328572E-01  0.24624765696E-01 -0.13471200728E-01  0.37531825498E-01  0.51100000000E-03 0. -1.
</event>
<event>
 8    1  0.1115874E+005  0.1043930E+01  0.7957747E-01            NaN
         13   -1    0    0    0    0  0.00000000000E+00  0.00000000000E+00  0.74505805969E-08  0.10566000000E+00  0.10566000000E+00 0. -1.
     999900   -1    0    0    0    0 -0.00000000000E+00 -0.00000000000E+00 -0.74505805969E-08  0.93827000000E+00  0.93827000000E+00 0.  1.
     999902    2    1    2    0    0 -0.12387828840E-01  0.14396206692E-01 -0.15610552895E-01  0.10193454839E+01  0.10190489768E+01 0.  0.
     999903    2    3    3    0    0 -0.12450172812E+00  0.29537765150E-01 -0.25260641683E-01  0.13205076543E+00  0.20643273914E-01 0.  0.
         14    1    1    2    0    0  0.12387828840E-01 -0.14396206692E-01  0.15610552895E-01  0.24584516107E-01  0.00000000000E+00 0. -1.
     999901    1    3    3    0    0  0.11211389928E+00 -0.15141558458E-01  0.96500887879E-02  0.88729471847E+00  0.88000000000E+00 0.  1.
        -11    1    4    4    0    0 -0.16256317512E-01  0.27643912243E-02 -0.10534400524E-01  0.19574075541E-01  0.51100000000E-03 0. -1.
         11    1    4    4    0    0 -0.10824541060E+00  0.26773373926E-01 -0.14726241160E-01  0.11247668989E+00  0.51100000000E-03 0.  1.
</event>
<event>
 8    1  0.1115874E+005  0.1043930E+01  0.7957747E-01            NaN
         13   -1    0    0    0    0  0.00000000000E+00  0.00000000000E+00  0.74505805969E-08  0.10566000000E+00  0.10566000000E+00 0. -1.
     999900   -1    0    0    0    0 -0.00000000000E+00 -0.00000000000E+00 -0.74505805969E-08  0.93827000000E+00  0.93827000000E+00 0. -1.
     999902    2    1    2    0    0 -0.75952927354E-02 -0.16949445783E-01  0.15482590545E-01  0.10197497851E+01  0.10194630652E+01 0.  0.
     999903    2    3    3    0    0  0.11639552641E+00  0.30680235242E-01 -0.38485782079E-01  0.12814735406E+00  0.21246023802E-01 0.  0.
         14    1    1    2    0    0  0.75952927354E-02  0.16949445783E-01 -0.15482590545E-01  0.24180214930E-01  0.00000000000E+00 0.  1.
     999901    1    3    3    0    0 -0.12399081914E+00 -0.47629681025E-01  0.53968372624E-01  0.89160243101E+00  0.88000000000E+00 0.  1.
        -11    1    4    4    0    0  0.63975531183E-01  0.22479588065E-01 -0.31000248213E-01  0.74561900325E-01  0.51100000000E-03 0. -1.
         11    1    4    4    0    0  0.52419995223E-01  0.82006471767E-02 -0.74855338656E-02  0.53585453731E-01  0.51100000000E-03 0.  1.
</event>
<event>
 8    1  0.1115874E+005  0.1043930E+01  0.7957747E-01            NaN
         13   -1    0    0    0    0  0.00000000000E+00  0.00000000000E+00  0.74505805969E-08  0.10566000000E+00  0.10566000000E+00 0.  1.
     999900   -1    0    0    0    0 -0.00000000000E+00 -0.00000000000E+00 -0.74505805969E-08  0.93827000000E+00  0.93827000000E+00 0.  1.
     999902    2    1    2    0    0 -0.31234828769E-02 -0.21445181792E-01 -0.93482889932E-02  0.10203282527E+01  0.10200552440E+01 0.  0.
     999903    2    3    3    0    0 -0.12052458406E+00 -0.84327350543E-02  0.45747332104E-01  0.13072841583E+00  0.19995347682E-01 0.  0.
         14    1    1    2    0    0  0.31234828769E-02  0.21445181792E-01  0.93482889932E-02  0.23601747276E-01  0.00000000000E+00 0.  1.
     999901    1    3    3    0    0  0.11740110118E+00 -0.13012446738E-01 -0.55095621098E-01  0.88959983689E+00  0.88000000000E+00 0.  1.
        -11    1    4    4    0    0 -0.28129410196E-01 -0.10129480004E-01  0.84453416144E-02  0.31071771741E-01  0.51100000000E-03 0. -1.
         11    1    4    4    0    0 -0.92395173863E-01  0.16967449493E-02  0.37301990490E-01  0.99656644094E-01  0.51100000000E-03 0.  1.
</event>
<event>
 8    1  0.1115874E+005  0.1043930E+01  0.7957747E-01            NaN
         13   -1    0    0    0    0  0.00000000000E+00  0.00000000000E+00  0.74505805969E-08  0.10566000000E+00  0.10566000000E+00 0.  1.
     999900   -1    0    0    0    0 -0.00000000000E+00 -0.00000000000E+00 -0.74505805969E-08  0.93827000000E+00  0.93827000000E+00 0.  1.
     999902    2    1    2    0    0 -0.22653163546E-01  0.92937275091E-02  0.22073610927E-03  0.10194435157E+01  0.10191493972E+01 0.  0.
     999903    2    3    3    0    0  0.58844459330E-01  0.36478255400E-01  0.10667745722E+00  0.12887409416E+00  0.20859500367E-01 0.  0.
         14    1    1    2    0    0  0.22653163546E-01 -0.92937275091E-02 -0.22073610927E-03  0.24486484314E-01  0.00000000000E+00 0.  1.
     999901    1    3    3    0    0 -0.81497622875E-01 -0.27184527891E-01 -0.10645672111E+00  0.89056942153E+00  0.88000000000E+00 0.  1.
        -11    1    4    4    0    0  0.96903783584E-02  0.16367127720E-01  0.32136911577E-01  0.37347402979E-01  0.51100000000E-03 0. -1.
         11    1    4    4    0    0  0.49154080971E-01  0.20111127680E-01  0.74540545641E-01  0.91526691179E-01  0.51100000000E-03 0.  1.
</event>
<event>
 8    1  0.1115874E+005  0.1043930E+01  0.7957747E-01            NaN
         13   -1    0    0    0    0  0.00000000000E+00  0.00000000000E+00  0.74505805969E-08  0.10566000000E+00  0.10566000000E+00 0.  1.
     999900   -1    0    0    0    0 -0.00000000000E+00 -0.00000000000E+00 -0.74505805969E-08  0.93827000000E+00  0.93827000000E+00 0. -1.
     999902    2    1    2    0    0 -0.32908434494E-02 -0.63644508965E-02  0.22852021094E-01  0.10199810803E+01  0.10196998840E+01 0.  0.
     999903    2    3    3    0    0  0.32583559343E-01 -0.39972533597E-01  0.12055894361E+00  0.13320990425E+00  0.23471853849E-01 0.  0.
         14    1    1    2    0    0  0.32908434494E-02  0.63644508965E-02 -0.22852021094E-01  0.23948919681E-01  0.00000000000E+00 0. -1.
     999901    1    3    3    0    0 -0.35874402793E-01  0.33608082700E-01 -0.97706922520E-01  0.88677117607E+00  0.88000000000E+00 0.  1.
        -11    1    4    4    0    0  0.38242075260E-02 -0.10660222768E-02  0.32398173260E-01  0.32644505177E-01  0.51100000000E-03 0.  1.
         11    1    4    4    0    0  0.28759351817E-01 -0.38906511320E-01  0.88160770354E-01  0.10056539907E+00  0.51100000000E-03 0. -1.
</event>
<event>
 7    1  0.1115874E+005  0.1043930E+01  0.7957747E-01            NaN
         13   -1    0    0    0    0  0.00000000000E+00  0.00000000000E+00  0.74505805969E-08  0.10566000000E+00  0.10566000000E+00 0. -1.
     999900   -1    0    0    0    0 -0.00000000000E+00 -0.00000000000E+00 -0.74505805969E-08  0.93827000000E+00  0.93827000000E+00 0.  1.
     999902    2    1    2    0    0  0.18306054684E-01  0.14892715841E-01  0.19163624819E-02  0.10202534912E+01  0.10199787298E+01 0.  0.
         14    1    1    2    0    0 -0.18306054684E-01 -0.14892715841E-01 -0.19163624819E-02  0.23676508788E-01  0.00000000000E+00 0. -1.
     999901    1    3    3    0    0  0.11834217408E+00  0.21791679381E-01  0.72931134105E-01  0.89117826375E+00  0.88000000000E+00 0.  1.
        -11    1    3    3    0    0 -0.20953027033E-01 -0.18362771757E-01 -0.17721844824E-01  0.33023410384E-01  0.51100000000E-03 0.  1.
         11    1    3    3    0    0 -0.79083092362E-01  0.11463808217E-01 -0.53292926799E-01  0.96051817079E-01  0.51100000000E-03 0. -1.
</event>
<event>
 8    1  0.1115874E+005  0.1043930E+01  0.7957747E-01            NaN
         13   -1    0    0    0    0  0.00000000000E+00  0.00000000000E+00  0.74505805969E-08  0.10566000000E+00  0.10566000000E+00 0. -1.
     999900   -1    0    0    0    0 -0.00000000000E+00 -0.00000000000E+00 -0.74505805969E-08  0.93827000000E+00  0.93827000000E+00 0.  1.
     999902    2    1    2    0    0  0.11653872707E-01 -0.16412977467E-01  0.11849306112E-01  0.10205718187E+01  0.10203044803E+01 0.  0.
     999903    2    3    3    0    0  0.59587780526E-01  0.11270513726E+00  0.15172984635E-01  0.12985289900E+00  0.19452618395E-01 0.  0.
         14    1    1    2    0    0 -0.11653872707E-01  0.16412977467E-01 -0.11849306112E-01  0.23358181302E-01  0.00000000000E+00 0. -1.
     999901    1    3    3    0    0 -0.47933907820E-01 -0.12911811473E+00 -0.33236785227E-02  0.89071891970E+00  0.88000000000E+00 0. -1.
        -11    1    4    4    0    0  0.24115313408E-01  0.49121210722E-01  0.16075242448E-01  0.57036095802E-01  0.51100000000E-03 0.  1.
         11    1    4    4    0    0  0.35472467118E-01  0.63583926540E-01 -0.90225781259E-03  0.72816803198E-01  0.51100000000E-03 0. -1.
</event>
<event>
 8    1  0.1115874E+005  0.1043930E+01  0.7957747E-01            NaN
         13   -1    0    0    0    0  0.00000000000E+00  0.00000000000E+00  0.74505805969E-08  0.10566000000E+00  0.10566000000E+00 0. -1.
     999900   -1    0    0    0    0 -0.00000000000E+00 -0.00000000000E+00 -0.74505805969E-08  0.93827000000E+00  0.93827000000E+00 0. -1.
     999902    2    1    2    0    0 -0.16235214036E-01 -0.14351431101E-01 -0.93137232983E-02  0.10203441739E+01  0.10200715377E+01 0.  0.
     999903    2    3    3    0    0 -0.83893645449E-01  0.10534669482E-01  0.97867422258E-01  0.13091470551E+00  0.20285580376E-01 0.  0.
         14    1    1    2    0    0  0.16235214036E-01  0.14351431101E-01  0.93137232983E-02  0.23585826064E-01  0.00000000000E+00 0.  1.
     999901    1    3    3    0    0  0.67658431413E-01 -0.24886100582E-01 -0.10718114556E+00  0.88942946843E+00  0.88000000000E+00 0. -1.
        -11    1    4    4    0    0 -0.56478772668E-01  0.13076234881E-01  0.54667876502E-01  0.79684863826E-01  0.51100000000E-03 0. -1.
         11    1    4    4    0    0 -0.27414872781E-01 -0.25415653998E-02  0.43199545756E-01  0.51229841683E-01  0.51100000000E-03 0.  1.
</event>
<event>
 8    1  0.1115874E+005  0.1043930E+01  0.7957747E-01            NaN
         13   -1    0    0    0    0  0.00000000000E+00  0.00000000000E+00  0.74505805969E-08  0.10566000000E+00  0.10566000000E+00 0.  1.
     999900   -1    0    0    0    0 -0.00000000000E+00 -0.00000000000E+00 -0.74505805969E-08  0.93827000000E+00  0.93827000000E+00 0. -1.
     999902    2    1    2    0    0 -0.21811962528E-01  0.66665579847E-02 -0.28850047819E-02  0.10209402641E+01  0.10206813875E+01 0.  0.
     999903    2    3    3    0    0 -0.10116607002E-01  0.46107024642E-01  0.12094230045E+00  0.13131925868E+00  0.19735860830E-01 0.  0.
         14    1    1    2    0    0  0.21811962528E-01 -0.66665579847E-02  0.28850047819E-02  0.22989735912E-01  0.00000000000E+00 0.  1.
     999901    1    3    3    0    0 -0.11695355527E-01 -0.39440466658E-01 -0.12382730523E+00  0.88962100541E+00  0.88000000000E+00 0. -1.
        -11    1    4    4    0    0 -0.38423400834E-02  0.14880819025E-01  0.18596266581E-01  0.24130574048E-01  0.51100000000E-03 0.  1.
         11    1    4    4    0    0 -0.62742669183E-02  0.31226205618E-01  0.10234603387E+00  0.10718868463E+00  0.51100000000E-03 0. -1.
</event>
<event>
 8    1  0.1115874E+005  0.1043930E+01  0.7957747E-01            NaN
         13   -1    0    0    0    0  0.00000000000E+00  0.00000000000E+00  0.74505805969E-08  0.10566000000E+00  0.10566000000E+00 0. -1.
     999900   -1    0    0    0    0 -0.00000000000E+00 -0.00000000000E+00 -0.74505805969E-08  0.93827000000E+00  0.93827000000E+00 0. -1.
     999902    2    1    2    0    0  0.18565784951E-01 -0.79189317098E-02 -0.12972636094E-01  0.10199365189E+01  0.10196542627E+01 0.  0.
     999903    2    3    3    0    0  0.12593946076E+00  0.27126734167E-01 -0.24548047048E-01  0.13264215108E+00  0.19867716148E-01 0.  0.
         14    1    1    2    0    0 -0.18565784951E-01  0.79189317098E-02  0.12972636094E-01  0.23993481145E-01  0.00000000000E+00 0. -1.
     999901    1    3    3    0    0 -0.10737367581E+00 -0.35045665877E-01  0.11575410955E-01  0.88729436778E+00  0.88000000000E+00 0. -1.
        -11    1    4    4    0    0  0.67118809792E-01  0.95490528942E-02 -0.40497146691E-02  0.67917452462E-01  0.51100000000E-03 0. -1.
         11    1    4    4    0    0  0.58820650969E-01  0.17577681273E-01 -0.20498332379E-01  0.64724698614E-01  0.51100000000E-03 0.  1.
</event>
<event>
 8    1  0.1115874E+005  0.1043930E+01  0.7957747E-01            NaN
         13   -1    0    0    0    0  0.00000000000E+00  0.00000000000E+00  0.74505805969E-08  0.10566000000E+00  0.10566000000E+00 0.  1.
     999900   -1    0    0    0    0 -0.00000000000E+00 -0.00000000000E+00 -0.74505805969E-08  0.93827000000E+00  0.93827000000E+00 0. -1.
     999902    2    1    2    0    0 -0.73624062941E-02 -0.23593557077E-01  0.24808659374E-02  0.10190902001E+01  0.10187874265E+01 0.  0.
     999903    2    3    3    0    0  0.12539304133E+00  0.11274561546E-01  0.14723593613E-01  0.12836595607E+00  0.20260896249E-01 0.  0.
         14    1    1    2    0    0  0.73624062941E-02  0.23593557077E-01 -0.24808659374E-02  0.24839799874E-01  0.00000000000E+00 0.  1.
     999901    1    3    3    0    0 -0.13275544762E+00 -0.34868118623E-01 -0.12242727676E-01  0.89072424406E+00  0.88000000000E+00 0.  1.
        -11    1    4    4    0    0  0.18481029697E-01  0.88680714573E-02  0.77255005276E-03  0.20519481100E-01  0.51100000000E-03 0. -1.
         11    1    4    4    0    0  0.10691201163E+00  0.24064900882E-02  0.13951043560E-01  0.10784647497E+00  0.51100000000E-03 0.  1.
</event>
<event>
 8    1  0.1115874E+005  0.1043930E+01  0.7957747E-01            NaN
         13   -1    0    0    0    0  0.00000000000E+00  0.00000000000E+00  0.74505805969E-08  0.10566000000E+00  0.10566000000E+00 0. -1.
     999900   -1    0    0    0    0 -0.00000000000E+00 -0.00000000000E+00 -0.74505805969E-08  0.93827000000E+00  0.93827000000E+00 0.  1.
     999902    2    1    2    0    0 -0.10814861344E-01  0.18952107246E-01  0.88802595860E-02  0.10203715067E+01  0.10200995094E+01 0.  0.
     999903    2    3    3    0    0  0.16085676667E-01  0.10088345597E+00 -0.80575978469E-01  0.13164274981E+00  0.20027595687E-01 0.  0.
         14    1    1    2    0    0  0.10814861344E-01 -0.18952107246E-01 -0.88802595860E-02  0.23558493272E-01  0.00000000000E+00 0. -1.
     999901    1    3    3    0    0 -0.26900538011E-01 -0.81931348722E-01  0.89456238054E-01  0.88872875692E+00  0.88000000000E+00 0. -1.
        -11    1    4    4    0    0  0.13444716482E-01  0.30860390379E-01 -0.21108771047E-01  0.39736198003E-01  0.51100000000E-03 0. -1.
         11    1    4    4    0    0  0.26409601850E-02  0.70023065589E-01 -0.59467207422E-01  0.91906551805E-01  0.51100000000E-03 0.  1.
</event>
<event>
 8    1  0.1115874E+005  0.1043930E+01  0.7957747E-01            NaN
         13   -1    0    0    0    0  0.00000000000E+00  0.00000000000E+00  0.74505805969E-08  0.10566000000E+00  0.10566000000E+00 0.  1.
     999900   -1    0    0    0    0 -0.00000000000E+00 -0.00000000000E+00 -0.74505805969E-08  0.93827000000E+00  0.93827000000E+00 0. -1.
     999902    2    1    2    0    0 -0.13503379920E-01 -0.15277212986E-01 -0.10093098313E-01  0.10211790629E+01  0.10209255964E+01 0.  0.
     999903    2    3    3    0    0 -0.62015354859E-01 -0.10344780795E+00  0.54003997346E-01  0.13312731710E+00  0.16096509592E-01 0.  0.
         14    1    1    2    0    0  0.13503379920E-01  0.15277212986E-01  0.10093098313E-01  0.22750937111E-01  0.00000000000E+00 0.  1.
     999901    1    3    3    0    0  0.48511974939E-01  0.88170594962E-01 -0.64097095659E-01  0.88805174579E+00  0.88000000000E+00 0. -1.
        -11    1    4    4    0    0 -0.23436987709E-01 -0.49954941817E-01  0.18354111762E-01  0.58154304607E-01  0.51100000000E-03 0. -1.
         11    1    4    4    0    0 -0.38578367149E-01 -0.53492866131E-01  0.35649885585E-01  0.74973012491E-01  0.51100000000E-03 0.  1.
</event>
<event>
 8    1  0.1115874E+005  0.1043930E+01  0.7957747E-01            NaN
         13   -1    0    0    0    0  0.00000000000E+00  0.00000000000E+00  0.74505805969E-08  0.10566000000E+00  0.10566000000E+00 0.  1.
     999900   -1    0    0    0    0 -0.00000000000E+00 -0.00000000000E+00 -0.74505805969E-08  0.93827000000E+00  0.93827000000E+00 0. -1.
     999902    2    1    2    0    0  0.11933300958E-01 -0.88419436934E-02 -0.19558394643E-01  0.10193716116E+01  0.10190757421E+01 0.  0.
     999903    2    3    3    0    0 -0.12106763074E+00  0.62901547597E-02 -0.39895582790E-01  0.12901672198E+00  0.18887026353E-01 0.  0.
         14    1    1    2    0    0 -0.11933300958E-01  0.88419436934E-02  0.19558394643E-01  0.24558388405E-01  0.00000000000E+00 0. -1.
     999901    1    3    3    0    0  0.13300093170E+00 -0.15132098453E-01  0.20337188147E-01  0.89035488961E+00  0.88000000000E+00 0. -1.
        -11    1    4    4    0    0 -0.90746630269E-02 -0.83314493688E-03  0.17956791591E-02  0.93021085879E-02  0.51100000000E-03 0. -1.
         11    1    4    4    0    0 -0.11199296771E+00  0.71232996966E-02 -0.41691261949E-01  0.11971461339E+00  0.51100000000E-03 0.  1.
</event>
<event>
 8    1  0.1115874E+005  0.1043930E+01  0.7957747E-01            NaN
         13   -1    0    0    0    0  0.00000000000E+00  0.00000000000E+00  0.74505805969E-08  0.10566000000E+00  0.10566000000E+00 0. -1.
     999900   -1    0    0    0    0 -0.00000000000E+00 -0.00000000000E+00 -0.74505805969E-08  0.93827000000E+00  0.93827000000E+00 0. -1.
     999902    2    1    2    0    0 -0.19668750298E-01  0.11923447697E-01 -0.91530810637E-02  0.10191750563E+01  0.10188743731E+01 0.  0.
     999903    2    3    3    0    0  0.11368872918E+00 -0.46779801597E-01 -0.26036207860E-01  0.12703418809E+00  0.18609778153E-01 0.  0.
         14    1    1    2    0    0  0.19668750298E-01 -0.11923447697E-01  0.91530810637E-02  0.24754943673E-01  0.00000000000E+00 0. -1.
     999901    1    3    3    0    0 -0.13335747948E+00  0.58703249294E-01  0.16883126796E-01  0.89214086824E+00  0.88000000000E+00 0. -1.
        -11    1    4    4    0    0  0.65798993916E-01 -0.25031225661E-01 -0.24055573020E-01  0.74397591176E-01  0.51100000000E-03 0. -1.
         11    1    4    4    0    0  0.47889735267E-01 -0.21748575936E-01 -0.19806348401E-02  0.52636596913E-01  0.51100000000E-03 0.  1.
</event>
<event>
 8    1  0.1115874E+005  0.1043930E+01  0.7957747E-01            NaN
         13   -1    0    0    0    0  0.00000000000E+00  0.00000000000E+00  0.74505805969E-08  0.10566000000E+00  0.10566000000E+00 0. -1.
     999900   -1    0    0    0    0 -0.00000000000E+00 -0.00000000000E+00 -0.74505805969E-08  0.93827000000E+00  0.93827000000E+00 0.  1.
     999902    2    1    2    0    0  0.19626925729E-01  0.76969399585E-02 -0.10746449383E-01  0.10202668372E+01  0.10199923891E+01 0.  0.
     999903    2    3    3    0    0  0.12783910458E-01  0.12779078041E+00  0.18204456184E-01  0.13161194791E+00  0.22279826802E-01 0.  0.
         14    1    1    2    0    0 -0.19626925729E-01 -0.76969399585E-02  0.10746449383E-01  0.23663162777E-01  0.00000000000E+00 0. -1.
     999901    1    3    3    0    0  0.68430152710E-02 -0.12009384045E+00 -0.28950905567E-01  0.88865488932E+00  0.88000000000E+00 0.  1.
        -11    1    4    4    0    0  0.60777982306E-02  0.48374553828E-01  0.17815766817E-01  0.51910497567E-01  0.51100000000E-03 0.  1.
         11    1    4    4    0    0  0.67061122270E-02  0.79416226582E-01  0.38868936699E-03  0.79701450340E-01  0.51100000000E-03 0. -1.
</event>
<event>
 8    1  0.1115874E+005  0.1043930E+01  0.7957747E-01            NaN
         13   -1    0    0    0    0  0.00000000000E+00  0.00000000000E+00  0.74505805969E-08  0.10566000000E+00  0.10566000000E+00 0.  1.
     999900   -1    0    0    0    0 -0.00000000000E+00 -0.00000000000E+00 -0.74505805969E-08  0.93827000000E+00  0.93827000000E+00 0.  1.
     999902    2    1    2    0    0 -0.60120820750E-02 -0.22976900635E-01 -0.33838220894E-03  0.10201771560E+01  0.10199005991E+01 0.  0.
     999903    2    3    3    0    0 -0.35109498033E-02 -0.98007688850E-01  0.86665073130E-01  0.13270576152E+00  0.21957923374E-01 0.  0.
         14    1    1    2    0    0  0.60120820750E-02  0.22976900635E-01  0.33838220894E-03  0.23752843960E-01  0.00000000000E+00 0.  1.
     999901    1    3    3    0    0 -0.25011322717E-02  0.75030788214E-01 -0.87003455339E-01  0.88747139452E+00  0.88000000000E+00 0.  1.
        -11    1    4    4    0    0 -0.37069226206E-02 -0.19289849743E-02  0.55342873845E-02  0.69535398324E-02  0.51100000000E-03 0.  1.
         11    1    4    4    0    0  0.19597281725E-03 -0.96078703876E-01  0.81130785745E-01  0.12575222169E+00  0.51100000000E-03 0. -1.
</event>
<event>
 8    1  0.1115874E+005  0.1043930E+01  0.7957747E-01            NaN
         13   -1    0    0    0    0  0.00000000000E+00  0.00000000000E+00  0.74505805969E-08  0.10566000000E+00  0.10566000000E+00 0. -1.
     999900   -1    0    0    0    0 -0.00000000000E+00 -0.00000000000E+00 -0.74505805969E-08  0.93827000000E+00  0.93827000000E+00 0.  1.
     999902    2    1    2    0    0  0.20598007645E-01 -0.11016440200E-01 -0.47912712304E-02  0.10200847457E+01  0.10198060071E+01 0.  0.
     999903    2    3    3    0    0 -0.48581349037E-01 -0.74847826627E-01  0.92047372907E-01  0.12978257659E+00  0.20210237569E-01 0.  0.
         14    1    1    2    0    0 -0.20598007645E-01  0.11016440200E-01  0.47912712304E-02  0.23845254321E-01  0.00000000000E+00 0. -1.
     999901    1    3    3    0    0  0.69179356681E-01  0.63831386426E-01 -0.96838644137E-01  0.89030216909E+00  0.88000000000E+00 0.  1.
        -11    1    4    4    0    0 -0.19297118872E-01 -0.40676309224E-01  0.57586512537E-01  0.73098621574E-01  0.51100000000E-03 0. -1.
         11    1    4    4    0    0 -0.29284230165E-01 -0.34171517403E-01  0.34460860370E-01  0.56683955018E-01  0.51100000000E-03 0.  1.
</event>
<event>
 8    1  0.1115874E+005  0.1043930E+01  0.7957747E-01            NaN
         13   -1    0    0    0    0  0.00000000000E+00  0.00000000000E+00  0.74505805969E-08  0.10566000000E+00  0.10566000000E+00 0.  1.
     999900   -1    0    0    0    0 -0.00000000000E+00 -0.00000000000E+00 -0.74505805969E-08  0.93827000000E+00  0.93827000000E+00 0. -1.
     999902    2    1    2    0    0 -0.16315964464E-01 -0.17040147508E-01 -0.41399372053E-02  0.10199776222E+01  0.10196963437E+01 0.  0.
     999903    2    3    3    0    0  0.37073909592E-01 -0.60422256936E-01  0.10734463136E+00  0.13028031685E+00  0.20609880408E-01 0.  0.
         14    1    1    2    0    0  0.16315964464E-01  0.17040147508E-01  0.41399372053E-02  0.23952377827E-01  0.00000000000E+00 0.  1.
     999901    1    3    3    0    0 -0.53389874056E-01  0.43382109428E-01 -0.11148456857E+00  0.88969730532E+00  0.88000000000E+00 0. -1.
        -11    1    4    4    0    0  0.13831913477E-01 -0.86498101783E-02  0.32328819386E-01  0.36215393556E-01  0.51100000000E-03 0.  1.
         11    1    4    4    0    0  0.23241996115E-01 -0.51772446758E-01  0.75015811978E-01  0.94064923294E-01  0.51100000000E-03 0. -1.
</event>
<event>
 8    1  0.1115874E+005  0.1043930E+01  0.7957747E-01            NaN
         13   -1    0    0    0    0  0.00000000000E+00  0.00000000000E+00  0.74505805969E-08  0.10566000000E+00  0.10566000000E+00 0.  1.
     999900   -1    0    0    0    0 -0.00000000000E+00 -0.00000000000E+00 -0.74505805969E-08  0.93827000000E+00  0.93827000000E+00 0.  1.
     999902    2    1    2    0    0  0.82639798105E-02 -0.20727766195E-01 -0.93442551970E-02  0.10197380848E+01  0.10194510841E+01 0.  0.
     999903    2    3    3    0    0 -0.82359022280E-02 -0.11621395610E+00  0.58425071863E-01  0.13182900151E+00  0.19796033438E-01 0.  0.
         14    1    1    2    0    0 -0.82639798105E-02  0.20727766195E-01  0.93442551970E-02  0.24191915156E-01  0.00000000000E+00 0.  1.
     999901    1    3    3    0    0  0.16499882039E-01  0.95486189906E-01 -0.67769327060E-01  0.88790908333E+00  0.88000000000E+00 0.  1.
        -11    1    4    4    0    0 -0.56764970569E-03 -0.16288920541E-01  0.16483524509E-01  0.23186609494E-01  0.51100000000E-03 0. -1.
         11    1    4    4    0    0 -0.76682525223E-02 -0.99925035560E-01  0.41941547354E-01  0.10864239202E+00  0.51100000000E-03 0.  1.
</event>
<event>
 8    1  0.1115874E+005  0.1043930E+01  0.7957747E-01            NaN
         13   -1    0    0    0    0  0.00000000000E+00  0.00000000000E+00  0.74505805969E-08  0.10566000000E+00  0.10566000000E+00 0.  1.
     999900   -1    0    0    0    0 -0.00000000000E+00 -0.00000000000E+00 -0.74505805969E-08  0.93827000000E+00  0.93827000000E+00 0. -1.
     999902    2    1    2    0    0  0.20774223103E-01  0.14895788218E-01  0.93582696768E-02  0.10167081326E+01  0.10163436411E+01 0.  0.
     999903    2    3    3    0    0 -0.26510159918E-01 -0.11297562064E+00  0.44067580068E-01  0.12553382514E+00  0.18721917756E-01 0.  0.
         14    1    1    2    0    0 -0.20774223103E-01 -0.14895788218E-01 -0.93582696768E-02  0.27221867377E-01  0.00000000000E+00 0.  1.
     999901    1    3    3    0    0  0.47284383021E-01  0.12787140886E+00 -0.34709310392E-01  0.89117430748E+00  0.88000000000E+00 0. -1.
        -11    1    4    4    0    0 -0.15954055610E-01 -0.56428946735E-01  0.12665752173E-01  0.59995335811E-01  0.51100000000E-03 0.  1.
         11    1    4    4    0    0 -0.10556104308E-01 -0.56546673905E-01  0.31401827896E-01  0.65538489333E-01  0.51100000000E-03 0. -1.
</event>
<event>
 8    1  0.1115874E+005  0.1043930E+01  0.7957747E-01            NaN
         13   -1    0    0    0    0  0.00000000000E+00  0.00000000000E+00  0.74505805969E-08  0.10566000000E+00  0.10566000000E+00 0.  1.
     999900   -1    0    0    0    0 -0.00000000000E+00 -0.00000000000E+00 -0.74505805969E-08  0.93827000000E+00  0.93827000000E+00 0. -1.
     999902    2    1    2    0    0  0.42674188241E-02  0.28921746350E-01  0.19834649787E-01  0.10086016600E+01  0.10079827463E+01 0.  0.
     999903    2    3    3    0    0 -0.20626417525E-03  0.20930596652E-01  0.11950483837E+00  0.12292789455E+00  0.19792130843E-01 0.  0.
         14    1    1    2    0    0 -0.42674188241E-02 -0.28921746350E-01 -0.19834649787E-01  0.35328340005E-01  0.00000000000E+00 0. -1.
     999901    1    3    3    0    0  0.44736829993E-02  0.79911496983E-02 -0.99670188580E-01  0.88567376545E+00  0.88000000000E+00 0. -1.
        -11    1    4    4    0    0  0.93089638251E-02  0.65020316824E-02  0.53652779039E-01  0.54843550606E-01  0.51100000000E-03 0.  1.
         11    1    4    4    0    0 -0.95152280004E-02  0.14428564969E-01  0.65852059328E-01  0.68084343939E-01  0.51100000000E-03 0. -1.
</event>
<event>
 8    1  0.1115874E+005  0.1043930E+01  0.7957747E-01            NaN
         13   -1    0    0    0    0  0.00000000000E+00  0.00000000000E+00  0.74505805969E-08  0.10566000000E+00  0.10566000000E+00 0.  1.
     999900   -1    0    0    0    0 -0.00000000000E+00 -0.00000000000E+00 -0.74505805969E-08  0.93827000000E+00  0.93827000000E+00 0. -1.
     999902    2    1    2    0    0 -0.22598035927E-01 -0.51526026334E-02 -0.14713372458E-02  0.10207053283E+01  0.10204410722E+01 0.  0.
     999903    2    3    3    0    0  0.16337924657E-01 -0.16680355650E-01 -0.12715908347E+00  0.13084786351E+00  0.20163552007E-01 0.  0.
         14    1    1    2    0    0  0.22598035927E-01  0.51526026334E-02  0.14713372458E-02  0.23224671687E-01  0.00000000000E+00 0. -1.
     999901    1    3    3    0    0 -0.38935960584E-01  0.11527753016E-01  0.12568774622E+00  0.88985746480E+00  0.88000000000E+00 0.  1.
        -11    1    4    4    0    0  0.14898247877E-01 -0.50956987210E-02 -0.10068098914E+00  0.10190606768E+00  0.51100000000E-03 0. -1.
         11    1    4    4    0    0  0.14396767795E-02 -0.11584656929E-01 -0.26478094328E-01  0.28941795826E-01  0.51100000000E-03 0.  1.
</event>
<event>
 8    1  0.1115874E+005  0.1043930E+01  0.7957747E-01            NaN
         13   -1    0    0    0    0  0.00000000000E+00  0.00000000000E+00  0.74505805969E-08  0.10566000000E+00  0.10566000000E+00 0. -1.
     999900   -1    0    0    0    0 -0.00000000000E+00 -0.00000000000E+00 -0.74505805969E-08  0.93827000000E+00  0.93827000000E+00 0. -1.
     999902    2    1    2    0    0  0.11767122408E-01  0.25982495995E-02  0.31082132583E-01  0.10105936079E+01  0.10100436255E+01 0.  0.
     999903    2    3    3    0    0 -0.22784934599E-02  0.12568365921E-02  0.12393112718E+00  0.12559642459E+00  0.20217972574E-01 0.  0.
         14    1    1    2    0    0 -0.11767122408E-01 -0.25982495995E-02 -0.31082132583E-01  0.33336392077E-01  0.00000000000E+00 0.  1.
     999901    1    3    3    0    0  0.14045615868E-01  0.13414130074E-02 -0.92848994595E-01  0.88499718334E+00  0.88000000000E+00 0. -1.
        -11    1    4    4    0    0  0.76653483743E-02 -0.17488732900E-02  0.27512009622E-01  0.28617964951E-01  0.51100000000E-03 0. -1.
         11    1    4    4    0    0 -0.99438418342E-02  0.30057098821E-02  0.96419117556E-01  0.96978459637E-01  0.51100000000E-03 0.  1.
</event>
<event>
 8    1  0.1115874E+005  0.1043930E+01  0.7957747E-01            NaN
         13   -1    0    0    0    0  0.00000000000E+00  0.00000000000E+00  0.74505805969E-08  0.10566000000E+00  0.10566000000E+00 0. -1.
     999900   -1    0    0    0    0 -0.00000000000E+00 -0.00000000000E+00 -0.74505805969E-08  0.93827000000E+00  0.93827000000E+00 0. -1.
     999902    2    1    2    0    0 -0.16104311867E-01  0.17536434129E-01  0.42364926085E-02  0.10197468808E+01  0.10194600913E+01 0.  0.
     999903    2    3    3    0    0 -0.75754706631E-01  0.10756872975E+00  0.39294246535E-02  0.13314433283E+00  0.20054071627E-01 0.  0.
         14    1    1    2    0    0  0.16104311867E-01 -0.17536434129E-01 -0.42364926085E-02  0.24183119160E-01  0.00000000000E+00 0. -1.
     999901    1    3    3    0    0  0.59650394764E-01 -0.90032295624E-01  0.30706795497E-03  0.88660254801E+00  0.88000000000E+00 0. -1.
        -11    1    4    4    0    0 -0.18678068404E-01  0.13532339733E-01  0.13533827444E-02  0.23110327211E-01  0.51100000000E-03 0. -1.
         11    1    4    4    0    0 -0.57076638227E-01  0.94036390020E-01  0.25760419091E-02  0.11003400562E+00  0.51100000000E-03 0.  1.
</event>
<event>
 8    1  0.1115874E+005  0.1043930E+01  0.7957747E-01            NaN
         13   -1    0    0    0    0  0.00000000000E+00  0.00000000000E+00  0.74505805969E-08  0.10566000000E+00  0.10566000000E+00 0. -1.
     999900   -1    0    0    0    0 -0.00000000000E+00 -0.00000000000E+00 -0.74505805969E-08  0.93827000000E+00  0.93827000000E+00 0.  1.
     999902    2    1    2    0    0 -0.24226530223E-01 -0.10054731336E-02 -0.77157835977E-03  0.10196703406E+01  0.10193817108E+01 0.  0.
     999903    2    3    3    0    0 -0.10403309650E+00  0.47375457396E-01  0.63921349310E-01  0.13237389779E+00  0.19224744148E-01 0.  0.
         14    1    1    2    0    0  0.24226530223E-01  0.10054731336E-02  0.77157835977E-03  0.24259659437E-01  0.00000000000E+00 0. -1.
     999901    1    3    3    0    0  0.79806566282E-01 -0.48380930530E-01 -0.64692927670E-01  0.88729644277E+00  0.88000000000E+00 0.  1.
        -11    1    4    4    0    0 -0.77100771722E-01  0.43130845131E-01  0.44699494018E-01  0.99010629168E-01  0.51100000000E-03 0.  1.
         11    1    4    4    0    0 -0.26932324782E-01  0.42446122651E-02  0.19221855292E-01  0.33363268625E-01  0.51100000000E-03 0. -1.
</event>
<event>
 8    1  0.1115874E+005  0.1043930E+01  0.7957747E-01            NaN
         13   -1    0    0    0    0  0.00000000000E+00  0.00000000000E+00  0.74505805969E-08  0.10566000000E+00  0.10566000000E+00 0.  1.
     999900   -1    0    0    0    0 -0.00000000000E+00 -0.00000000000E+00 -0.74505805969E-08  0.93827000000E+00  0.93827000000E+00 0.  1.
     999902    2    1    2    0    0 -0.22085803734E-01  0.45613475459E-03  0.95818469333E-02  0.10198509100E+01  0.10195666119E+01 0.  0.
     999903    2    3    3    0    0 -0.69384426148E-01 -0.90003417541E-01  0.64682818785E-01  0.13223826508E+00  0.19704769607E-01 0.  0.
         14    1    1    2    0    0  0.22085803734E-01 -0.45613475459E-03 -0.95818469333E-02  0.24079090019E-01  0.00000000000E+00 0. -1.
     999901    1    3    3    0    0  0.47298622414E-01  0.90459552295E-01 -0.55100971852E-01  0.88761264490E+00  0.88000000000E+00 0.  1.
        -11    1    4    4    0    0 -0.66283575012E-01 -0.79298566624E-01  0.62761248041E-01  0.12091736998E+00  0.51100000000E-03 0.  1.
         11    1    4    4    0    0 -0.31008511357E-02 -0.10704850917E-01  0.19215707441E-02  0.11320895108E-01  0.51100000000E-03 0. -1.
</event>
<event>
 8    1  0.1115874E+005  0.1043930E+01  0.7957747E-01            NaN
         13   -1    0    0    0    0  0.00000000000E+00  0.00000000000E+00  0.74505805969E-08  0.10566000000E+00  0.10566000000E+00 0.  1.
     999900   -1    0    0    0    0 -0.00000000000E+00 -0.00000000000E+00 -0.74505805969E-08  0.93827000000E+00  0.93827000000E+00 0. -1.
     999902    2    1    2    0    0  0.45379234882E-02  0.10820497936E-01  0.19521643792E-01  0.10211534660E+01  0.10208994224E+01 0.  0.
     999903    2    3    3    0    0  0.24214003615E-01  0.51189944537E-01  0.12009106975E+00  0.13428760816E+00  0.20113882747E-01 0.  0.
         14    1    1    2    0    0 -0.45379234882E-02 -0.10820497936E-01 -0.19521643792E-01  0.22776534010E-01  0.00000000000E+00 0. -1.
     999901    1    3    3    0    0 -0.19676080127E-01 -0.40369446601E-01 -0.10056942596E+00  0.88686585783E+00  0.88000000000E+00 0. -1.
        -11    1    4    4    0    0  0.18024209323E-01  0.15309414354E-01  0.49229823500E-01  0.54617643051E-01  0.51100000000E-03 0.  1.
         11    1    4    4    0    0  0.61897942927E-02  0.35880530183E-01  0.70861246248E-01  0.79669965109E-01  0.51100000000E-03 0. -1.
</event>
<event>
 8    1  0.1115874E+005  0.1043930E+01  0.7957747E-01            NaN
         13   -1    0    0    0    0  0.00000000000E+00  0.00000000000E+00  0.74505805969E-08  0.10566000000E+00  0.10566000000E+00 0.  1.
     999900   -1    0    0    0    0 -0.00000000000E+00 -0.00000000000E+00 -0.74505805969E-08  0.93827000000E+00  0.93827000000E+00 0. -1.
     999902    2    1    2    0    0  0.20973107328E-01  0.97675514245E-02  0.35875463313E-02  0.10205174653E+01  0.10202488668E+01 0.  0.
     999903    2    3    3    0    0 -0.10976296118E+00  0.22663243479E-01  0.61498253483E-01  0.12888308482E+00  0.16348826221E-01 0.  0.
         14    1    1    2    0    0 -0.20973107328E-01 -0.97675514245E-02 -0.35875463313E-02  0.23412534688E-01  0.00000000000E+00 0.  1.
     999901    1    3    3    0    0  0.13073606850E+00 -0.12895692054E-01 -0.57910707152E-01  0.89163438050E+00  0.88000000000E+00 0. -1.
        -11    1    4    4    0    0 -0.17448442840E-01 -0.21839046905E-02  0.11238724751E-01  0.20875527593E-01  0.51100000000E-03 0. -1.
         11    1    4    4    0    0 -0.92314518336E-01  0.24847148169E-01  0.50259528732E-01  0.10800755722E+00  0.51100000000E-03 0.  1.
</event>
<event>
 8    1  0.1115874E+005  0.1043930E+01  0.7957747E-01            NaN
         13   -1    0    0    0    0  0.00000000000E+00  0.00000000000E+00  0.74505805969E-08  0.10566000000E+00  0.10566000000E+00 0.  1.
     999900   -1    0    0    0    0 -0.00000000000E+00 -0.00000000000E+00 -0.74505805969E-08  0.93827000000E+00  0.93827000000E+00 0.  1.
     999902    2    1    2    0    0  0.15242699573E-01 -0.11018382833E-01 -0.14288329458E-01  0.10203100718E+01  0.10200366374E+01 0.  0.
     999903    2    3    3    0    0 -0.11834042290E+00  0.10184607813E-01 -0.46879439599E-01  0.12938010939E+00  0.20817034343E-01 0.  0.
         14    1    1    2    0    0 -0.15242699573E-01  0.11018382833E-01  0.14288329458E-01  0.23619928222E-01  0.00000000000E+00 0.  1.
     999901    1    3    3    0    0  0.13358312248E+00 -0.21202990646E-01  0.32591110142E-01  0.89092996239E+00  0.88000000000E+00 0.  1.
        -11    1    4    4    0    0 -0.59918872946E-01 -0.45131880633E-02 -0.19219296461E-01  0.63089481525E-01  0.51100000000E-03 0.  1.
         11    1    4    4    0    0 -0.58421549958E-01  0.14697795877E-01 -0.27660143138E-01  0.66290627863E-01  0.51100000000E-03 0. -1.
</event>
<event>
 8    1  0.1115874E+005  0.1043930E+01  0.7957747E-01            NaN
         13   -1    0    0    0    0  0.00000000000E+00  0.00000000000E+00  0.74505805969E-08  0.10566000000E+00  0.10566000000E+00 0.  1.
     999900   -1    0    0    0    0 -0.00000000000E+00 -0.00000000000E+00 -0.74505805969E-08  0.93827000000E+00  0.93827000000E+00 0.  1.
     999902    2    1    2    0    0  0.19008833508E-01 -0.27880868309E-02  0.13429138067E-01  0.10204896304E+01  0.10202203854E+01 0.  0.
     999903    2    3    3    0    0  0.92443641333E-01  0.88017742925E-01 -0.26975784702E-01  0.13185532566E+00  0.19109789396E-01 0.  0.
         14    1    1    2    0    0 -0.19008833508E-01  0.27880868309E-02 -0.13429138067E-01  0.23440369638E-01  0.00000000000E+00 0.  1.
     999901    1    3    3    0    0 -0.73434807825E-01 -0.90805829756E-01  0.40404922770E-01  0.88863430471E+00  0.88000000000E+00 0. -1.
        -11    1    4    4    0    0  0.49887225662E-01  0.58183376902E-01 -0.21440561174E-01  0.79586427338E-01  0.51100000000E-03 0. -1.
         11    1    4    4    0    0  0.42556415671E-01  0.29834366023E-01 -0.55352235279E-02  0.52268898317E-01  0.51100000000E-03 0.  1.
</event>
<event>
 8    1  0.1115874E+005  0.1043930E+01  0.7957747E-01            NaN
         13   -1    0    0    0    0  0.00000000000E+00  0.00000000000E+00  0.74505805969E-08  0.10566000000E+00  0.10566000000E+00 0.  1.
     999900   -1    0    0    0    0 -0.00000000000E+00 -0.00000000000E+00 -0.74505805969E-08  0.93827000000E+00  0.93827000000E+00 0.  1.
     999902    2    1    2    0    0 -0.53263432868E-02  0.18046594661E-01 -0.10067316271E-02  0.10250868840E+01  0.10249136826E+01 0.  0.
     999903    2    3    3    0    0 -0.85193446410E-01  0.78784079085E-01 -0.69411465941E-01  0.13674741970E+00  0.20421820723E-01 0.  0.
         14    1    1    2    0    0  0.53263432868E-02 -0.18046594661E-01  0.10067316271E-02  0.18843115991E-01  0.00000000000E+00 0. -1.
     999901    1    3    3    0    0  0.79867103123E-01 -0.60737484424E-01  0.68404734314E-01  0.88833946431E+00  0.88000000000E+00 0. -1.
        -11    1    4    4    0    0 -0.43312672527E-01  0.33791592467E-01 -0.22260082519E-01  0.59275894912E-01  0.51100000000E-03 0. -1.
         11    1    4    4    0    0 -0.41880773883E-01  0.44992486619E-01 -0.47151383422E-01  0.77471524787E-01  0.51100000000E-03 0.  1.
</event>
<event>
 8    1  0.1115874E+005  0.1043930E+01  0.7957747E-01            NaN
         13   -1    0    0    0    0  0.00000000000E+00  0.00000000000E+00  0.74505805969E-08  0.10566000000E+00  0.10566000000E+00 0. -1.
     999900   -1    0    0    0    0 -0.00000000000E+00 -0.00000000000E+00 -0.74505805969E-08  0.93827000000E+00  0.93827000000E+00 0. -1.
     999902    2    1    2    0    0 -0.22458999214E-02 -0.47286664435E-02  0.24011353024E-01  0.10193546175E+01  0.10190583333E+01 0.  0.
     999903    2    3    3    0    0  0.12357042536E+00 -0.12646950080E-01  0.21468255461E-01  0.13036703922E+00  0.33242797010E-01 0.  0.
         14    1    1    2    0    0  0.22458999214E-02  0.47286664435E-02 -0.24011353024E-01  0.24575382537E-01  0.00000000000E+00 0.  1.
     999901    1    3    3    0    0 -0.12581632528E+00  0.79182836368E-02  0.25430975628E-02  0.88898757824E+00  0.88000000000E+00 0.  1.
        -11    1    4    4    0    0  0.56374250173E-01  0.78828018131E-02  0.19166835641E-01  0.60065159257E-01  0.51100000000E-03 0. -1.
         11    1    4    4    0    0  0.67196175185E-01 -0.20529751893E-01  0.23014198199E-02  0.70301879965E-01  0.51100000000E-03 0.  1.
</event>
<event>
 8    1  0.1115874E+005  0.1043930E+01  0.7957747E-01            NaN
         13   -1    0    0    0    0  0.00000000000E+00  0.00000000000E+00  0.74505805969E-08  0.10566000000E+00  0.10566000000E+00 0. -1.
     999900   -1    0    0    0    0 -0.00000000000E+00 -0.00000000000E+00 -0.74505805969E-08  0.93827000000E+00  0.93827000000E+00 0.  1.
     999902    2    1    2    0    0 -0.76933290072E-03  0.19592483245E-01 -0.11720799664E-01  0.10210863046E+01  0.10208307436E+01 0.  0.
     999903    2    3    3    0    0 -0.10912700622E+00 -0.60350478534E-01  0.28673467137E-01  0.12992753131E+00  0.22541338213E-01 0.  0.
         14    1    1    2    0    0  0.76933290072E-03 -0.19592483245E-01  0.11720799664E-01  0.22843695357E-01  0.00000000000E+00 0. -1.
     999901    1    3    3    0    0  0.10835767332E+00  0.79942961779E-01 -0.40394266801E-01  0.89115877334E+00  0.88000000000E+00 0.  1.
        -11    1    4    4    0    0 -0.62705381259E-01 -0.24298529388E-01  0.85132155470E-02  0.67787309500E-01  0.51100000000E-03 0. -1.
         11    1    4    4    0    0 -0.46421624959E-01 -0.36051949146E-01  0.20160251590E-01  0.62140221807E-01  0.51100000000E-03 0.  1.
</event>
<event>
 8    1  0.1115874E+005  0.1043930E+01  0.7957747E-01            NaN
         13   -1    0    0    0    0  0.00000000000E+00  0.00000000000E+00  0.74505805969E-08  0.10566000000E+00  0.10566000000E+00 0.  1.
     999900   -1    0    0    0    0 -0.00000000000E+00 -0.00000000000E+00 -0.74505805969E-08  0.93827000000E+00  0.93827000000E+00 0.  1.
     999902    2    1    2    0    0  0.22572438319E-01  0.22867913730E-02 -0.54587832381E-02  0.10205945613E+01  0.10203277492E+01 0.  0.
     999903    2    3    3    0    0 -0.50668405302E-01  0.10648597743E+00  0.50036679933E-01  0.12969533129E+00  0.20264721419E-01 0.  0.
         14    1    1    2    0    0 -0.22572438319E-01 -0.22867913730E-02  0.54587832381E-02  0.23335438733E-01  0.00000000000E+00 0. -1.
     999901    1    3    3    0    0  0.73240843620E-01 -0.10419918605E+00 -0.55495463171E-01  0.89089922998E+00  0.88000000000E+00 0. -1.
        -11    1    4    4    0    0 -0.37483781086E-01  0.59104564416E-01  0.35065133866E-01  0.78282872414E-01  0.51100000000E-03 0. -1.
         11    1    4    4    0    0 -0.13184624216E-01  0.47381413011E-01  0.14971546067E-01  0.51412458872E-01  0.51100000000E-03 0.  1.
</event>
<event>
 8    1  0.1115874E+005  0.1043930E+01  0.7957747E-01            NaN
         13   -1    0    0    0    0  0.00000000000E+00  0.00000000000E+00  0.74505805969E-08  0.10566000000E+00  0.10566000000E+00 0. -1.
     999900   -1    0    0    0    0 -0.00000000000E+00 -0.00000000000E+00 -0.74505805969E-08  0.93827000000E+00  0.93827000000E+00 0.  1.
     999902    2    1    2    0    0 -0.87054166883E-02  0.18262292237E-01 -0.11217757860E-01  0.10207970432E+01  0.10205348940E+01 0.  0.
     999903    2    3    3    0    0 -0.89527591890E-02  0.12956634437E+00  0.12277784574E-01  0.13347483923E+00  0.28234716644E-01 0.  0.
         14    1    1    2    0    0  0.87054166883E-02 -0.18262292237E-01  0.11217757860E-01  0.23132956769E-01  0.00000000000E+00 0. -1.
     999901    1    3    3    0    0  0.24734250065E-03 -0.11130405213E+00 -0.23495542434E-01  0.88732220400E+00  0.88000000000E+00 0. -1.
        -11    1    4    4    0    0  0.87775457342E-02  0.68188783691E-01  0.10583995851E-01  0.69563191557E-01  0.51100000000E-03 0.  1.
         11    1    4    4    0    0 -0.17730304923E-01  0.61377560675E-01  0.16937887235E-02  0.63911647674E-01  0.51100000000E-03 0. -1.
</event>
<event>
 8    1  0.1115874E+005  0.1043930E+01  0.7957747E-01            NaN
         13   -1    0    0    0    0  0.00000000000E+00  0.00000000000E+00  0.74505805969E-08  0.10566000000E+00  0.10566000000E+00 0. -1.
     999900   -1    0    0    0    0 -0.00000000000E+00 -0.00000000000E+00 -0.74505805969E-08  0.93827000000E+00  0.93827000000E+00 0. -1.
     999902    2    1    2    0    0 -0.54126944100E-02  0.22511356463E-01 -0.56544204677E-02  0.10200966011E+01  0.10198181430E+01 0.  0.
     999903    2    3    3    0    0 -0.79102933123E-01 -0.47185835884E-01 -0.89902711681E-01  0.13027317794E+00  0.20120292874E-01 0.  0.
         14    1    1    2    0    0  0.54126944100E-02 -0.22511356463E-01  0.56544204677E-02  0.23833398863E-01  0.00000000000E+00 0.  1.
     999901    1    3    3    0    0  0.73690238713E-01  0.69697192347E-01  0.84248291213E-01  0.88982342320E+00  0.88000000000E+00 0.  1.
        -11    1    4    4    0    0 -0.48830591539E-01 -0.39981739699E-01 -0.58311697853E-01  0.85927186658E-01  0.51100000000E-03 0.  1.
         11    1    4    4    0    0 -0.30272341584E-01 -0.72040961853E-02 -0.31591013828E-01  0.44345991279E-01  0.51100000000E-03 0. -1.
</event>
<event>
 7    1  0.1115874E+005  0.1043930E+01  0.7957747E-01            NaN
         13   -1    0    0    0    0  0.00000000000E+00  0.00000000000E+00  0.74505805969E-08  0.10566000000E+00  0.10566000000E+00 0.  1.
     999900   -1    0    0    0    0 -0.00000000000E+00 -0.00000000000E+00 -0.74505805969E-08  0.93827000000E+00  0.93827000000E+00 0. -1.
     999902    2    1    2    0    0 -0.74919574691E-02  0.22506978309E-01  0.40441555864E-02  0.10198665694E+01  0.10195826453E+01 0.  0.
         14    1    1    2    0    0  0.74919574691E-02 -0.22506978309E-01 -0.40441555864E-02  0.24063430631E-01  0.00000000000E+00 0.  1.
     999901    1    3    3    0    0 -0.21665363180E-01  0.12914610617E+00  0.28888880297E-01  0.89015879039E+00  0.88000000000E+00 0.  1.
        -11    1    3    3    0    0  0.38220964265E-01 -0.79905103444E-01 -0.29690673077E-01  0.93420901593E-01  0.51100000000E-03 0.  1.
         11    1    3    3    0    0 -0.24047558554E-01 -0.26734024417E-01  0.48459483667E-02  0.36286877387E-01  0.51100000000E-03 0. -1.
</event>
<event>
 8    1  0.1115874E+005  0.1043930E+01  0.7957747E-01            NaN
         13   -1    0    0    0    0  0.00000000000E+00  0.00000000000E+00  0.74505805969E-08  0.10566000000E+00  0.10566000000E+00 0.  1.
     999900   -1    0    0    0    0 -0.00000000000E+00 -0.00000000000E+00 -0.74505805969E-08  0.93827000000E+00  0.93827000000E+00 0. -1.
     999902    2    1    2    0    0 -0.13398493282E-01  0.33467660888E-02 -0.16824019676E-01  0.10221637853E+01  0.10219320113E+01 0.  0.
     999903    2    3    3    0    0 -0.86567366218E-02 -0.20742246193E-01 -0.13102631449E+00  0.13444483825E+00  0.20058404156E-01 0.  0.
         14    1    1    2    0    0  0.13398493282E-01 -0.33467660888E-02  0.16824019676E-01  0.21766214727E-01  0.00000000000E+00 0.  1.
     999901    1    3    3    0    0 -0.47417566599E-02  0.24089012282E-01  0.11420229481E+00  0.88771894703E+00  0.88000000000E+00 0.  1.
        -11    1    4    4    0    0 -0.99869365555E-02 -0.65920588951E-02 -0.28177873016E-01  0.30617769202E-01  0.51100000000E-03 0. -1.
         11    1    4    4    0    0  0.13301999337E-02 -0.14150187298E-01 -0.10284844147E+00  0.10382706904E+00  0.51100000000E-03 0.  1.
</event>
<event>
 8    1  0.1115874E+005  0.1043930E+01  0.7957747E-01            NaN
         13   -1    0    0    0    0  0.00000000000E+00  0.00000000000E+00  0.74505805969E-08  0.10566000000E+00  0.10566000000E+00 0.  1.
     999900   -1    0    0    0    0 -0.00000000000E+00 -0.00000000000E+00 -0.74505805969E-08  0.93827000000E+00  0.93827000000E+00 0. -1.
     999902    2    1    2    0    0  0.13378870861E-01  0.20400841697E-01 -0.23178962396E-02  0.10194236504E+01  0.10191290487E+01 0.  0.
     999903    2    3    3    0    0  0.11719221016E+00  0.53637965005E-01 -0.22863601216E-01  0.13246026797E+00  0.20296130658E-01 0.  0.
         14    1    1    2    0    0 -0.13378870861E-01 -0.20400841697E-01  0.23178962396E-02  0.24506349594E-01  0.00000000000E+00 0. -1.
     999901    1    3    3    0    0 -0.10381333930E+00 -0.33237123309E-01  0.20545704976E-01  0.88696338243E+00  0.88000000000E+00 0.  1.
        -11    1    4    4    0    0  0.16507076735E-01  0.74007667581E-02 -0.10637691214E-01  0.20992296833E-01  0.51100000000E-03 0.  1.
         11    1    4    4    0    0  0.10068513342E+00  0.46237198247E-01 -0.12225910002E-01  0.11146797114E+00  0.51100000000E-03 0. -1.
</event>
<event>
 8    1  0.1115874E+005  0.1043930E+01  0.7957747E-01            NaN
         13   -1    0    0    0    0  0.00000000000E+00  0.00000000000E+00  0.74505805969E-08  0.10566000000E+00  0.10566000000E+00 0. -1.
     999900   -1    0    0    0    0 -0.00000000000E+00 -0.00000000000E+00 -0.74505805969E-08  0.93827000000E+00  0.93827000000E+00 0. -1.
     999902    2    1    2    0    0  0.17412261289E-02 -0.73410596429E-02  0.22361529321E-01  0.10203299784E+01  0.10200570101E+01 0.  0.
     999903    2    3    3    0    0  0.59867663932E-01  0.79433567139E-01  0.84760108652E-01  0.13195950315E+00  0.18308623093E-01 0.  0.
         14    1    1    2    0    0 -0.17412261289E-02  0.73410596429E-02 -0.22361529321E-01  0.23600021583E-01  0.00000000000E+00 0.  1.
     999901    1    3    3    0    0 -0.58126437803E-01 -0.86774626782E-01 -0.62398579331E-01  0.88837047527E+00  0.88000000000E+00 0. -1.
        -11    1    4    4    0    0  0.47397272962E-01  0.50654806828E-01  0.63652758052E-01  0.94150654101E-01  0.51100000000E-03 0. -1.
         11    1    4    4    0    0  0.12470390970E-01  0.28778760312E-01  0.21107350601E-01  0.37808849049E-01  0.51100000000E-03 0.  1.
</event>
<event>
 8    1  0.1115874E+005  0.1043930E+01  0.7957747E-01            NaN
         13   -1    0    0    0    0  0.00000000000E+00  0.00000000000E+00  0.74505805969E-08  0.10566000000E+00  0.10566000000E+00 0.  1.
     999900   -1    0    0    0    0 -0.00000000000E+00 -0.00000000000E+00 -0.74505805969E-08  0.93827000000E+00  0.93827000000E+00 0. -1.
     999902    2    1    2    0    0  0.47320414946E-02 -0.21919689506E-01  0.47498483303E-02  0.10210078259E+01  0.10207504859E+01 0.  0.
     999903    2    3    3    0    0 -0.11153696985E+00 -0.62027640829E-01 -0.26148575707E-01  0.13191736745E+00  0.20748974775E-01 0.  0.
         14    1    1    2    0    0 -0.47320414946E-02  0.21919689506E-01 -0.47498483303E-02  0.22922174066E-01  0.00000000000E+00 0. -1.
     999901    1    3    3    0    0  0.11626901134E+00  0.40107951323E-01  0.30898424037E-01  0.88909045848E+00  0.88000000000E+00 0. -1.
        -11    1    4    4    0    0 -0.82931032502E-01 -0.45174380334E-01 -0.99174290876E-02  0.94957344693E-01  0.51100000000E-03 0. -1.
         11    1    4    4    0    0 -0.28605937344E-01 -0.16853260495E-01 -0.16231146619E-01  0.36960022757E-01  0.51100000000E-03 0.  1.
</event>
<event>
 8    1  0.1115874E+005  0.1043930E+01  0.7957747E-01            NaN
         13   -1    0    0    0    0  0.00000000000E+00  0.00000000000E+00  0.74505805969E-08  0.10566000000E+00  0.10566000000E+00 0. -1.
     999900   -1    0    0    0    0 -0.00000000000E+00 -0.00000000000E+00 -0.74505805969E-08  0.93827000000E+00  0.93827000000E+00 0.  1.
     999902    2    1    2    0    0 -0.82750035589E-02  0.21562893946E-01 -0.33324550618E-02  0.10205946334E+01  0.10203278230E+01 0.  0.
     999903    2    3    3    0    0 -0.15670936186E-01  0.79732865304E-01  0.10140335715E+00  0.13244597703E+00  0.25620069076E-01 0.  0.
         14    1    1    2    0    0  0.82750035589E-02 -0.21562893946E-01  0.33324550618E-02  0.23335366634E-01  0.00000000000E+00 0. -1.
     999901    1    3    3    0    0  0.73959326275E-02 -0.58169971358E-01 -0.10473581222E+00  0.88814865633E+00  0.88000000000E+00 0.  1.
        -11    1    4    4    0    0  0.17677235083E-02  0.16724347634E-01  0.37130715573E-01  0.40764933585E-01  0.51100000000E-03 0. -1.
         11    1    4    4    0    0 -0.17438659695E-01  0.63008517670E-01  0.64272641580E-01  0.91681043447E-01  0.51100000000E-03 0.  1.
</event>
<event>
 8    1  0.1115874E+005  0.1043930E+01  0.7957747E-01            NaN
         13   -1    0    0    0    0  0.00000000000E+00  0.00000000000E+00  0.74505805969E-08  0.10566000000E+00  0.10566000000E+00 0. -1.
     999900   -1    0    0    0    0 -0.00000000000E+00 -0.00000000000E+00 -0.74505805969E-08  0.93827000000E+00  0.93827000000E+00 0. -1.
     999902    2    1    2    0    0 -0.19157139665E-01  0.83221134191E-02  0.10816571932E-01  0.10204086948E+01  0.10201375655E+01 0.  0.
     999903    2    3    3    0    0 -0.52988703657E-01 -0.50148236084E-01 -0.10580576885E+00  0.13014798752E+00  0.20518031948E-01 0.  0.
         14    1    1    2    0    0  0.19157139665E-01 -0.83221134191E-02 -0.10816571932E-01  0.23521305241E-01  0.00000000000E+00 0.  1.
     999901    1    3    3    0    0  0.33831563992E-01  0.58470349504E-01  0.11662234078E+00  0.89026070724E+00  0.88000000000E+00 0.  1.
        -11    1    4    4    0    0 -0.28739967717E-01 -0.36139885899E-01 -0.78233228063E-01  0.90844791768E-01  0.51100000000E-03 0. -1.
         11    1    4    4    0    0 -0.24248735940E-01 -0.14008350186E-01 -0.27572540785E-01  0.39303195747E-01  0.51100000000E-03 0.  1.
</event>
<event>
 8    1  0.1115874E+005  0.1043930E+01  0.7957747E-01            NaN
         13   -1    0    0    0    0  0.00000000000E+00  0.00000000000E+00  0.74505805969E-08  0.10566000000E+00  0.10566000000E+00 0.  1.
     999900   -1    0    0    0    0 -0.00000000000E+00 -0.00000000000E+00 -0.74505805969E-08  0.93827000000E+00  0.93827000000E+00 0.  1.
     999902    2    1    2    0    0 -0.13381394447E-01 -0.34099153467E-03 -0.18421829783E-01  0.10211584870E+01  0.10209045566E+01 0.  0.
     999903    2    3    3    0    0 -0.39273644753E-01 -0.12320373285E+00 -0.18686679104E-01  0.13224581862E+00  0.20449586932E-01 0.  0.
         14    1    1    2    0    0  0.13381394447E-01  0.34099153467E-03  0.18421829783E-01  0.22771513017E-01  0.00000000000E+00 0.  1.
     999901    1    3    3    0    0  0.25892250307E-01  0.12286274132E+00  0.26484932183E-03  0.88891266836E+00  0.88000000000E+00 0.  1.
        -11    1    4    4    0    0 -0.28517973753E-01 -0.86874352092E-01 -0.37411783971E-02  0.91513307312E-01  0.51100000000E-03 0.  1.
         11    1    4    4    0    0 -0.10755671000E-01 -0.36329380760E-01 -0.14945500707E-01  0.40732511308E-01  0.51100000000E-03 0. -1.
</event>
<event>
 8    1  0.1115874E+005  0.1043930E+01  0.7957747E-01            NaN
         13   -1    0    0    0    0  0.00000000000E+00  0.00000000000E+00  0.74505805969E-08  0.10566000000E+00  0.10566000000E+00 0.  1.
     999900   -1    0    0    0    0 -0.00000000000E+00 -0.00000000000E+00 -0.74505805969E-08  0.93827000000E+00  0.93827000000E+00 0. -1.
     999902    2    1    2    0    0 -0.11682445960E-01 -0.15472282523E-01  0.12986498984E-01  0.10205950428E+01  0.10203282419E+01 0.  0.
     999903    2    3    3    0    0  0.11236810965E+00  0.82258176219E-03  0.62972141951E-01  0.13034079406E+00  0.19898824801E-01 0.  0.
         14    1    1    2    0    0  0.11682445960E-01  0.15472282523E-01 -0.12986498984E-01  0.23334957166E-01  0.00000000000E+00 0. -1.
     999901    1    3    3    0    0 -0.12405055561E+00 -0.16294864285E-01 -0.49985642967E-01  0.89025424877E+00  0.88000000000E+00 0. -1.
        -11    1    4    4    0    0  0.98646968623E-01  0.72030874435E-02  0.53060442506E-01  0.11224428969E+00  0.51100000000E-03 0. -1.
         11    1    4    4    0    0  0.13721141026E-01 -0.63805056813E-02  0.99116994444E-02  0.18096504378E-01  0.51100000000E-03 0.  1.
</event>
<event>
 8    1  0.1115874E+005  0.1043930E+01  0.7957747E-01            NaN
         13   -1    0    0    0    0  0.00000000000E+00  0.00000000000E+00  0.74505805969E-08  0.10566000000E+00  0.10566000000E+00 0.  1.
     999900   -1    0    0    0    0 -0.00000000000E+00 -0.00000000000E+00 -0.74505805969E-08  0.93827000000E+00  0.93827000000E+00 0. -1.
     999902    2    1    2    0    0 -0.16057772082E-01 -0.17651271801E-02 -0.17185980466E-01  0.10203434436E+01  0.10200707903E+01 0.  0.
     999903    2    3    3    0    0 -0.12385942981E+00  0.17681631765E-01 -0.33875088037E-01  0.13339479788E+00  0.31509555003E-01 0.  0.
         14    1    1    2    0    0  0.16057772082E-01  0.17651271801E-02  0.17185980466E-01  0.23586556399E-01  0.00000000000E+00 0.  1.
     999901    1    3    3    0    0  0.10780165773E+00 -0.19446758945E-01  0.16689107571E-01  0.88694864573E+00  0.88000000000E+00 0. -1.
        -11    1    4    4    0    0 -0.70238621542E-01  0.25085864582E-01 -0.24135727943E-01  0.78393616081E-01  0.51100000000E-03 0. -1.
         11    1    4    4    0    0 -0.53620808267E-01 -0.74042328171E-02 -0.97393600938E-02  0.55001181795E-01  0.51100000000E-03 0.  1.
</event>
<event>
 8    1  0.1115874E+005  0.1043930E+01  0.7957747E-01            NaN
         13   -1    0    0    0    0  0.00000000000E+00  0.00000000000E+00  0.74505805969E-08  0.10566000000E+00  0.10566000000E+00 0. -1.
     999900   -1    0    0    0    0 -0.00000000000E+00 -0.00000000000E+00 -0.74505805969E-08  0.93827000000E+00  0.93827000000E+00 0.  1.
     999902    2    1    2    0    0  0.20020691190E-01  0.13783186977E-01  0.14609631626E-02  0.10195796667E+01  0.10192888491E+01 0.  0.
     999903    2    3    3    0    0  0.29143007425E-02  0.38319813810E-01 -0.12298751556E+00  0.13032036901E+00  0.19508160224E-01 0.  0.
         14    1    1    2    0    0 -0.20020691190E-01 -0.13783186977E-01 -0.14609631626E-02  0.24350333311E-01  0.00000000000E+00 0.  1.
     999901    1    3    3    0    0  0.17106390448E-01 -0.24536626833E-01  0.12444847873E+00  0.88925929768E+00  0.88000000000E+00 0. -1.
        -11    1    4    4    0    0  0.94481080113E-02  0.21861930726E-01 -0.52683804268E-01  0.57819158704E-01  0.51100000000E-03 0.  1.
         11    1    4    4    0    0 -0.65338072689E-02  0.16457883083E-01 -0.70303711295E-01  0.72501210307E-01  0.51100000000E-03 0. -1.
</event>
<event>
 8    1  0.1115874E+005  0.1043930E+01  0.7957747E-01            NaN
         13   -1    0    0    0    0  0.00000000000E+00  0.00000000000E+00  0.74505805969E-08  0.10566000000E+00  0.10566000000E+00 0. -1.
     999900   -1    0    0    0    0 -0.00000000000E+00 -0.00000000000E+00 -0.74505805969E-08  0.93827000000E+00  0.93827000000E+00 0. -1.
     999902    2    1    2    0    0 -0.99050031531E-02  0.50970042179E-02 -0.24548718626E-01  0.10169721046E+01  0.10166147419E+01 0.  0.
     999903    2    3    3    0    0  0.78403322473E-01 -0.17729821055E-01 -0.99096283750E-01  0.12912258817E+00  0.19777304975E-01 0.  0.
         14    1    1    2    0    0  0.99050031531E-02 -0.50970042179E-02  0.24548718626E-01  0.26957895423E-01  0.00000000000E+00 0. -1.
     999901    1    3    3    0    0 -0.88308325626E-01  0.22826825273E-01  0.74547565124E-01  0.88784951641E+00  0.88000000000E+00 0.  1.
        -11    1    4    4    0    0  0.58646284945E-01 -0.21179906093E-01 -0.69567412440E-01  0.93423022615E-01  0.51100000000E-03 0. -1.
         11    1    4    4    0    0  0.19757037528E-01  0.34500850376E-02 -0.29528871310E-01  0.35699565550E-01  0.51100000000E-03 0.  1.
</event>
<event>
 8    1  0.1115874E+005  0.1043930E+01  0.7957747E-01            NaN
         13   -1    0    0    0    0  0.00000000000E+00  0.00000000000E+00  0.74505805969E-08  0.10566000000E+00  0.10566000000E+00 0. -1.
     999900   -1    0    0    0    0 -0.00000000000E+00 -0.00000000000E+00 -0.74505805969E-08  0.93827000000E+00  0.93827000000E+00 0. -1.
     999902    2    1    2    0    0  0.15595601206E-01 -0.12477208771E-01 -0.14303234140E-01  0.10193640475E+01  0.10190679935E+01 0.  0.
     999903    2    3    3    0    0  0.58444231559E-01  0.47774071163E-01  0.10206108488E+00  0.12863014974E+00  0.20764399791E-01 0.  0.
         14    1    1    2    0    0 -0.15595601206E-01  0.12477208771E-01  0.14303234140E-01  0.24565952507E-01  0.00000000000E+00 0. -1.
     999901    1    3    3    0    0 -0.42848630352E-01 -0.60251279935E-01 -0.11636431902E+00  0.89073389775E+00  0.88000000000E+00 0. -1.
        -11    1    4    4    0    0  0.35960323713E-01  0.41461418343E-01  0.69576886390E-01  0.88619401562E-01  0.51100000000E-03 0. -1.
         11    1    4    4    0    0  0.22483907846E-01  0.63126528207E-02  0.32484198489E-01  0.40010748182E-01  0.51100000000E-03 0.  1.
</event>
<event>
 8    1  0.1115874E+005  0.1043930E+01  0.7957747E-01            NaN
         13   -1    0    0    0    0  0.00000000000E+00  0.00000000000E+00  0.74505805969E-08  0.10566000000E+00  0.10566000000E+00 0.  1.
     999900   -1    0    0    0    0 -0.00000000000E+00 -0.00000000000E+00 -0.74505805969E-08  0.93827000000E+00  0.93827000000E+00 0. -1.
     999902    2    1    2    0    0 -0.22447412158E-01  0.50089903894E-02  0.57987730316E-02  0.10202107659E+01  0.10199350003E+01 0.  0.
     999903    2    3    3    0    0 -0.88999006008E-01  0.37652496474E-01 -0.87896941646E-01  0.13213779588E+00  0.19899527368E-01 0.  0.
         14    1    1    2    0    0  0.22447412158E-01 -0.50089903894E-02 -0.57987730316E-02  0.23719234094E-01  0.00000000000E+00 0. -1.
     999901    1    3    3    0    0  0.66551593849E-01 -0.32643506085E-01  0.93695714678E-01  0.88807297002E+00  0.88000000000E+00 0.  1.
        -11    1    4    4    0    0 -0.12016740759E-01  0.12412245760E-01 -0.19992318641E-01  0.26427633812E-01  0.51100000000E-03 0. -1.
         11    1    4    4    0    0 -0.76982265249E-01  0.25240250715E-01 -0.67904623005E-01  0.10571016207E+00  0.51100000000E-03 0.  1.
</event>
<event>
 8    1  0.1115874E+005  0.1043930E+01  0.7957747E-01            NaN
         13   -1    0    0    0    0  0.00000000000E+00  0.00000000000E+00  0.74505805969E-08  0.10566000000E+00  0.10566000000E+00 0. -1.
     999900   -1    0    0    0    0 -0.00000000000E+00 -0.00000000000E+00 -0.74505805969E-08  0.93827000000E+00  0.93827000000E+00 0.  1.
     999902    2    1    2    0    0  0.53567822904E-02 -0.23682810682E-01 -0.18367238677E-03  0.10196482296E+01  0.10193590671E+01 0.  0.
     999903    2    3    3    0    0 -0.14577516009E-01 -0.74408143370E-01  0.10573145489E+00  0.13162320190E+00  0.19911076120E-01 0.  0.
         14    1    1    2    0    0 -0.53567822904E-02  0.23682810682E-01  0.18367238677E-03  0.24281770402E-01  0.00000000000E+00 0. -1.
     999901    1    3    3    0    0  0.19934298300E-01  0.50725332688E-01 -0.10591512728E+00  0.88802502769E+00  0.88000000000E+00 0.  1.
        -11    1    4    4    0    0 -0.13586118600E-01 -0.32003385235E-01  0.36359619456E-01  0.50309863179E-01  0.51100000000E-03 0.  1.
         11    1    4    4    0    0 -0.99139740941E-03 -0.42404758136E-01  0.69371835439E-01  0.81313338724E-01  0.51100000000E-03 0. -1.
</event>
<event>
 8    1  0.1115874E+005  0.1043930E+01  0.7957747E-01            NaN
         13   -1    0    0    0    0  0.00000000000E+00  0.00000000000E+00  0.74505805969E-08  0.10566000000E+00  0.10566000000E+00 0. -1.
     999900   -1    0    0    0    0 -0.00000000000E+00 -0.00000000000E+00 -0.74505805969E-08  0.93827000000E+00  0.93827000000E+00 0. -1.
     999902    2    1    2    0    0  0.11172793321E-02  0.20363201028E-01  0.11106767736E-01  0.10207078434E+01  0.10204436452E+01 0.  0.
     999903    2    3    3    0    0 -0.99981022059E-01 -0.78924864908E-01  0.70865507897E-02  0.12936326986E+00  0.21431222850E-01 0.  0.
         14    1    1    2    0    0 -0.11172793321E-02 -0.20363201028E-01 -0.11106767736E-01  0.23222156635E-01  0.00000000000E+00 0.  1.
     999901    1    3    3    0    0  0.10109830139E+00  0.99288065936E-01  0.40202169466E-02  0.89134457351E+00  0.88000000000E+00 0. -1.
        -11    1    4    4    0    0 -0.34687959271E-01 -0.24928412756E-01 -0.75431600828E-02  0.43380187481E-01  0.51100000000E-03 0.  1.
         11    1    4    4    0    0 -0.65293062788E-01 -0.53996452152E-01  0.14629710873E-01  0.85983082374E-01  0.51100000000E-03 0. -1.
</event>
<event>
 8    1  0.1115874E+005  0.1043930E+01  0.7957747E-01            NaN
         13   -1    0    0    0    0  0.00000000000E+00  0.00000000000E+00  0.74505805969E-08  0.10566000000E+00  0.10566000000E+00 0.  1.
     999900   -1    0    0    0    0 -0.00000000000E+00 -0.00000000000E+00 -0.74505805969E-08  0.93827000000E+00  0.93827000000E+00 0.  1.
     999902    2    1    2    0    0 -0.22896108730E-01 -0.26088121729E-02 -0.32671831144E-02  0.10206552888E+01  0.10203898796E+01 0.  0.
     999903    2    3    3    0    0  0.10528682785E+00 -0.68948238893E-01 -0.18352419323E-01  0.12877001080E+00  0.20142706396E-01 0.  0.
         14    1    1    2    0    0  0.22896108730E-01  0.26088121729E-02  0.32671831144E-02  0.23274711199E-01  0.00000000000E+00 0.  1.
     999901    1    3    3    0    0 -0.12818293658E+00  0.66339426720E-01  0.15085236209E-01  0.89188527800E+00  0.88000000000E+00 0.  1.
        -11    1    4    4    0    0  0.93389547011E-01 -0.64880043978E-01 -0.11126251855E-01  0.11425883860E+00  0.51100000000E-03 0.  1.
         11    1    4    4    0    0  0.11897280837E-01 -0.40681949155E-02 -0.72261674683E-02  0.14511172194E-01  0.51100000000E-03 0. -1.
</event>
<event>
 8    1  0.1115874E+005  0.1043930E+01  0.7957747E-01            NaN
         13   -1    0    0    0    0  0.00000000000E+00  0.00000000000E+00  0.74505805969E-08  0.10566000000E+00  0.10566000000E+00 0.  1.
     999900   -1    0    0    0    0 -0.00000000000E+00 -0.00000000000E+00 -0.74505805969E-08  0.93827000000E+00  0.93827000000E+00 0. -1.
     999902    2    1    2    0    0  0.90210352650E-02  0.20966602538E-01 -0.54459704130E-02  0.10204643636E+01  0.10201945311E+01 0.  0.
     999903    2    3    3    0    0 -0.14111478347E-01 -0.70941183458E-01  0.10418630905E+00  0.12861157807E+00  0.21315855332E-01 0.  0.
         14    1    1    2    0    0 -0.90210352650E-02 -0.20966602538E-01  0.54459704130E-02  0.23465636428E-01  0.00000000000E+00 0.  1.
     999901    1    3    3    0    0  0.23132513612E-01  0.91907785996E-01 -0.10963227946E+00  0.89185278550E+00  0.88000000000E+00 0. -1.
        -11    1    4    4    0    0  0.33340402607E-03 -0.30500893800E-01  0.29378218174E-01  0.42352762660E-01  0.51100000000E-03 0.  1.
         11    1    4    4    0    0 -0.14444882373E-01 -0.40440289658E-01  0.74808090873E-01  0.86258815407E-01  0.51100000000E-03 0. -1.
</event>
<event>
 8    1  0.1115874E+005  0.1043930E+01  0.7957747E-01            NaN
         13   -1    0    0    0    0  0.00000000000E+00  0.00000000000E+00  0.74505805969E-08  0.10566000000E+00  0.10566000000E+00 0.  1.
     999900   -1    0    0    0    0 -0.00000000000E+00 -0.00000000000E+00 -0.74505805969E-08  0.93827000000E+00  0.93827000000E+00 0.  1.
     999902    2    1    2    0    0 -0.21229280855E-01  0.16373427135E-01  0.30850027944E-02  0.10169431750E+01  0.10165850345E+01 0.  0.
     999903    2    3    3    0    0  0.16754889789E-01 -0.10788819283E+00  0.58875243911E-01  0.12565405331E+00  0.20051391076E-01 0.  0.
         14    1    1    2    0    0  0.21229280855E-01 -0.16373427135E-01 -0.30850027944E-02  0.26986825008E-01  0.00000000000E+00 0. -1.
     999901    1    3    3    0    0 -0.37984170644E-01  0.12426161997E+00 -0.55790241117E-01  0.89128912168E+00  0.88000000000E+00 0.  1.
        -11    1    4    4    0    0  0.88505100767E-02 -0.39095749504E-01  0.11339216930E-01  0.41661110397E-01  0.51100000000E-03 0.  1.
         11    1    4    4    0    0  0.79043797128E-02 -0.68792443329E-01  0.47536026981E-01  0.83992942918E-01  0.51100000000E-03 0. -1.
</event>
<event>
 8    1  0.1115874E+005  0.1043930E+01  0.7957747E-01            NaN
         13   -1    0    0    0    0  0.00000000000E+00  0.00000000000E+00  0.74505805969E-08  0.10566000000E+00  0.10566000000E+00 0. -1.
     999900   -1    0    0    0    0 -0.00000000000E+00 -0.00000000000E+00 -0.74505805969E-08  0.93827000000E+00  0.93827000000E+00 0. -1.
     999902    2    1    2    0    0 -0.98225411055E-02  0.22216786720E-02  0.21746332675E-01  0.10199650015E+01  0.10196834230E+01 0.  0.
     999903    2    3    3    0    0  0.11628365560E+00  0.40691441791E-01 -0.30887480145E-01  0.12858796913E+00  0.20078530373E-01 0.  0.
         14    1    1    2    0    0  0.98225411055E-02 -0.22216786720E-02 -0.21746332675E-01  0.23964998533E-01  0.00000000000E+00 0.  1.
     999901    1    3    3    0    0 -0.12610619670E+00 -0.38469763119E-01  0.52633812820E-01  0.89137703233E+00  0.88000000000E+00 0. -1.
        -11    1    4    4    0    0  0.76817290871E-01  0.17141355950E-01 -0.22565779701E-01  0.81879165818E-01  0.51100000000E-03 0. -1.
         11    1    4    4    0    0  0.39466364726E-01  0.23550085841E-01 -0.83217004433E-02  0.46708803314E-01  0.51100000000E-03 0.  1.
</event>
<event>
 8    1  0.1115874E+005  0.1043930E+01  0.7957747E-01            NaN
         13   -1    0    0    0    0  0.00000000000E+00  0.00000000000E+00  0.74505805969E-08  0.10566000000E+00  0.10566000000E+00 0. -1.
     999900   -1    0    0    0    0 -0.00000000000E+00 -0.00000000000E+00 -0.74505805969E-08  0.93827000000E+00  0.93827000000E+00 0. -1.
     999902    2    1    2    0    0  0.97919558256E-02  0.19635381951E-01 -0.49781108823E-02  0.10214308398E+01  0.10211830141E+01 0.  0.
     999903    2    3    3    0    0 -0.17576347964E-01  0.11793913215E+00  0.56582048987E-01  0.13339801118E+00  0.19363218215E-01 0.  0.
         14    1    1    2    0    0 -0.97919558256E-02 -0.19635381951E-01  0.49781108823E-02  0.22499160234E-01  0.00000000000E+00 0.  1.
     999901    1    3    3    0    0  0.27368303790E-01 -0.98303750202E-01 -0.61560159870E-01  0.88803282858E+00  0.88000000000E+00 0.  1.
        -11    1    4    4    0    0 -0.98691991882E-02  0.21770579762E-01  0.15779861425E-01  0.28646542259E-01  0.51100000000E-03 0.  1.
         11    1    4    4    0    0 -0.77071487759E-02  0.96168552391E-01  0.40802187562E-01  0.10475146893E+00  0.51100000000E-03 0. -1.
</event>
<event>
 8    1  0.1115874E+005  0.1043930E+01  0.7957747E-01            NaN
         13   -1    0    0    0    0  0.00000000000E+00  0.00000000000E+00  0.74505805969E-08  0.10566000000E+00  0.10566000000E+00 0. -1.
     999900   -1    0    0    0    0 -0.00000000000E+00 -0.00000000000E+00 -0.74505805969E-08  0.93827000000E+00  0.93827000000E+00 0. -1.
     999902    2    1    2    0    0 -0.97981293712E-02 -0.12403641501E-01  0.19177749150E-01  0.10190776415E+01  0.10187745578E+01 0.  0.
     999903    2    3    3    0    0 -0.77282055563E-01 -0.99294928354E-01  0.35083306387E-01  0.13208431412E+00  0.19581336545E-01 0.  0.
         14    1    1    2    0    0  0.97981293712E-02  0.12403641501E-01 -0.19177749150E-01  0.24852358522E-01  0.00000000000E+00 0.  1.
     999901    1    3    3    0    0  0.67483926192E-01  0.86891286854E-01 -0.15905557237E-01  0.88699332736E+00  0.88000000000E+00 0. -1.
        -11    1    4    4    0    0 -0.71324534304E-01 -0.82970620206E-01  0.25965531781E-01  0.11245347026E+00  0.51100000000E-03 0. -1.
         11    1    4    4    0    0 -0.59575212588E-02 -0.16324308148E-01  0.91177746056E-02  0.19630843864E-01  0.51100000000E-03 0.  1.
</event>
<event>
 8    1  0.1115874E+005  0.1043930E+01  0.7957747E-01            NaN
         13   -1    0    0    0    0  0.00000000000E+00  0.00000000000E+00  0.74505805969E-08  0.10566000000E+00  0.10566000000E+00 0.  1.
     999900   -1    0    0    0    0 -0.00000000000E+00 -0.00000000000E+00 -0.74505805969E-08  0.93827000000E+00  0.93827000000E+00 0.  1.
     999902    2    1    2    0    0  0.16932591443E-01  0.46082208263E-02  0.16153375791E-01  0.10200787966E+01  0.10197999174E+01 0.  0.
     999903    2    3    3    0    0 -0.87892860430E-02 -0.12705261791E+00 -0.11516010121E-01  0.12948248722E+00  0.20334127484E-01 0.  0.
         14    1    1    2    0    0 -0.16932591443E-01 -0.46082208263E-02 -0.16153375791E-01  0.23851203358E-01  0.00000000000E+00 0. -1.
     999901    1    3    3    0    0  0.25721877486E-01  0.13166083874E+00  0.27669385912E-01  0.89059630942E+00  0.88000000000E+00 0.  1.
        -11    1    4    4    0    0 -0.99315004707E-02 -0.46749771549E-01  0.29111192515E-02  0.47884356295E-01  0.51100000000E-03 0.  1.
         11    1    4    4    0    0  0.11422144276E-02 -0.80302846362E-01 -0.14427129372E-01  0.81598130926E-01  0.51100000000E-03 0. -1.
</event>
<event>
 8    1  0.1115874E+005  0.1043930E+01  0.7957747E-01            NaN
         13   -1    0    0    0    0  0.00000000000E+00  0.00000000000E+00  0.74505805969E-08  0.10566000000E+00  0.10566000000E+00 0. -1.
     999900   -1    0    0    0    0 -0.00000000000E+00 -0.00000000000E+00 -0.74505805969E-08  0.93827000000E+00  0.93827000000E+00 0.  1.
     999902    2    1    2    0    0  0.18598466879E-01  0.13993480319E-01  0.40853191344E-02  0.10202992934E+01  0.10200256065E+01 0.  0.
     999903    2    3    3    0    0  0.59987028101E-01  0.11345467546E+00  0.29994458620E-01  0.13335125330E+00  0.20309659866E-01 0.  0.
         14    1    1    2    0    0 -0.18598466879E-01 -0.13993480319E-01 -0.40853191344E-02  0.23630706593E-01  0.00000000000E+00 0. -1.
     999901    1    3    3    0    0 -0.41388561222E-01 -0.99461195145E-01 -0.25909139485E-01  0.88694804011E+00  0.88000000000E+00 0. -1.
        -11    1    4    4    0    0  0.18481318498E-01  0.38530086873E-01  0.19773879621E-01  0.47089214945E-01  0.51100000000E-03 0.  1.
         11    1    4    4    0    0  0.41505709603E-01  0.74924588591E-01  0.10220578999E-01  0.86262038356E-01  0.51100000000E-03 0. -1.
</event>
<event>
 8    1  0.1115874E+005  0.1043930E+01  0.7957747E-01            NaN
         13   -1    0    0    0    0  0.00000000000E+00  0.00000000000E+00  0.74505805969E-08  0.10566000000E+00  0.10566000000E+00 0.  1.
     999900   -1    0    0    0    0 -0.00000000000E+00 -0.00000000000E+00 -0.74505805969E-08  0.93827000000E+00  0.93827000000E+00 0. -1.
     999902    2    1    2    0    0  0.16426804833E-01 -0.15336396455E-01 -0.13277881602E-01  0.10178273734E+01  0.10174926118E+01 0.  0.
     999903    2    3    3    0    0 -0.61754958689E-01  0.18842313024E-01 -0.10935862698E+00  0.12849499353E+00  0.19569015942E-01 0.  0.
         14    1    1    2    0    0 -0.16426804833E-01  0.15336396455E-01  0.13277881602E-01  0.26102626555E-01  0.00000000000E+00 0.  1.
     999901    1    3    3    0    0  0.78181763522E-01 -0.34178709480E-01  0.96080745378E-01  0.88933237991E+00  0.88000000000E+00 0.  1.
        -11    1    4    4    0    0 -0.29666629401E-01  0.30185975300E-03 -0.58125362915E-01  0.65261159615E-01  0.51100000000E-03 0. -1.
         11    1    4    4    0    0 -0.32088329288E-01  0.18540453271E-01 -0.51233264065E-01  0.63233833917E-01  0.51100000000E-03 0.  1.
</event>
<event>
 8    1  0.1115874E+005  0.1043930E+01  0.7957747E-01            NaN
         13   -1    0    0    0    0  0.00000000000E+00  0.00000000000E+00  0.74505805969E-08  0.10566000000E+00  0.10566000000E+00 0. -1.
     999900   -1    0    0    0    0 -0.00000000000E+00 -0.00000000000E+00 -0.74505805969E-08  0.93827000000E+00  0.93827000000E+00 0.  1.
     999902    2    1    2    0    0 -0.10025891898E-01  0.13386987999E-01 -0.16458296398E-01  0.10204650160E+01  0.10201951986E+01 0.  0.
     999903    2    3    3    0    0 -0.12035190521E+00  0.42032349367E-01 -0.30931657660E-01  0.13299565641E+00  0.21903828388E-01 0.  0.
         14    1    1    2    0    0  0.10025891898E-01 -0.13386987999E-01  0.16458296398E-01  0.23464984047E-01  0.00000000000E+00 0. -1.
     999901    1    3    3    0    0  0.11032601331E+00 -0.28645361368E-01  0.14473361262E-01  0.88746935954E+00  0.88000000000E+00 0. -1.
        -11    1    4    4    0    0 -0.28199150979E-01  0.17875918423E-01 -0.20859868894E-02  0.33456733817E-01  0.51100000000E-03 0. -1.
         11    1    4    4    0    0 -0.92152754229E-01  0.24156430944E-01 -0.28845670770E-01  0.99538922593E-01  0.51100000000E-03 0.  1.
</event>
<event>
 8    1  0.1115874E+005  0.1043930E+01  0.7957747E-01            NaN
         13   -1    0    0    0    0  0.00000000000E+00  0.00000000000E+00  0.74505805969E-08  0.10566000000E+00  0.10566000000E+00 0. -1.
     999900   -1    0    0    0    0 -0.00000000000E+00 -0.00000000000E+00 -0.74505805969E-08  0.93827000000E+00  0.93827000000E+00 0. -1.
     999902    2    1    2    0    0 -0.15201426586E-01 -0.16715316877E-01  0.57756340444E-02  0.10206095554E+01  0.10203430900E+01 0.  0.
     999903    2    3    3    0    0  0.12985853427E-01  0.11758565643E+00  0.47432022463E-01  0.12900060024E+00  0.19908267684E-01 0.  0.
         14    1    1    2    0    0  0.15201426586E-01  0.16715316877E-01 -0.57756340444E-02  0.23320444618E-01  0.00000000000E+00 0.  1.
     999901    1    3    3    0    0 -0.28187280014E-01 -0.13430097330E+00 -0.41656388419E-01  0.89160895514E+00  0.88000000000E+00 0. -1.
        -11    1    4    4    0    0  0.18065873059E-01  0.98770463986E-01  0.38223922128E-01  0.10743979556E+00  0.51100000000E-03 0.  1.
         11    1    4    4    0    0 -0.50800196319E-02  0.18815192439E-01  0.92081003355E-02  0.21560804688E-01  0.51100000000E-03 0. -1.
</event>
<event>
 8    1  0.1115874E+005  0.1043930E+01  0.7957747E-01            NaN
         13   -1    0    0    0    0  0.00000000000E+00  0.00000000000E+00  0.74505805969E-08  0.10566000000E+00  0.10566000000E+00 0.  1.
     999900   -1    0    0    0    0 -0.00000000000E+00 -0.00000000000E+00 -0.74505805969E-08  0.93827000000E+00  0.93827000000E+00 0. -1.
     999902    2    1    2    0    0  0.13826383424E-01 -0.51860288247E-02 -0.19145029599E-01  0.10197515813E+01  0.10194649045E+01 0.  0.
     999903    2    3    3    0    0 -0.95067844000E-01 -0.38365770845E-01 -0.78226130863E-01  0.13045442927E+00  0.19728234346E-01 0.  0.
         14    1    1    2    0    0 -0.13826383424E-01  0.51860288247E-02  0.19145029599E-01  0.24178418723E-01  0.00000000000E+00 0.  1.
     999901    1    3    3    0    0  0.10889422742E+00  0.33179742020E-01  0.59081101263E-01  0.88929715201E+00  0.88000000000E+00 0.  1.
        -11    1    4    4    0    0 -0.42813857471E-01 -0.94343335069E-02 -0.25125939228E-01  0.50533226528E-01  0.51100000000E-03 0. -1.
         11    1    4    4    0    0 -0.52253986529E-01 -0.28931437338E-01 -0.53100191635E-01  0.79921202739E-01  0.51100000000E-03 0.  1.
</event>
<event>
 8    1  0.1115874E+005  0.1043930E+01  0.7957747E-01            NaN
         13   -1    0    0    0    0  0.00000000000E+00  0.00000000000E+00  0.74505805969E-08  0.10566000000E+00  0.10566000000E+00 0.  1.
     999900   -1    0    0    0    0 -0.00000000000E+00 -0.00000000000E+00 -0.74505805969E-08  0.93827000000E+00  0.93827000000E+00 0.  1.
     999902    2    1    2    0    0  0.41046067302E-02 -0.37327388193E-02 -0.22465362316E-01  0.10207896966E+01  0.10205273789E+01 0.  0.
     999903    2    3    3    0    0 -0.91838057158E-01  0.88167539140E-01  0.16949789007E-01  0.12994503566E+00  0.19765455855E-01 0.  0.
         14    1    1    2    0    0 -0.41046067302E-02  0.37327388193E-02  0.22465362316E-01  0.23140303358E-01  0.00000000000E+00 0.  1.
     999901    1    3    3    0    0  0.95942663888E-01 -0.91900277959E-01 -0.39415151324E-01  0.89084466098E+00  0.88000000000E+00 0. -1.
        -11    1    4    4    0    0 -0.18168863351E-01  0.21330352346E-01  0.11598503684E-01  0.30329489534E-01  0.51100000000E-03 0. -1.
         11    1    4    4    0    0 -0.73669193807E-01  0.66837186794E-01  0.53512853228E-02  0.99615546128E-01  0.51100000000E-03 0.  1.
</event>
<event>
 8    1  0.1115874E+005  0.1043930E+01  0.7957747E-01            NaN
         13   -1    0    0    0    0  0.00000000000E+00  0.00000000000E+00  0.74505805969E-08  0.10566000000E+00  0.10566000000E+00 0.  1.
     999900   -1    0    0    0    0 -0.00000000000E+00 -0.00000000000E+00 -0.74505805969E-08  0.93827000000E+00  0.93827000000E+00 0.  1.
     999902    2    1    2    0    0  0.42698751360E-02 -0.68910393412E-02  0.21958999231E-01  0.10205223964E+01  0.10202539124E+01 0.  0.
     999903    2    3    3    0    0 -0.71092432796E-01 -0.25404461093E-01 -0.10245967454E+00  0.12838886909E+00  0.16917332997E-01 0.  0.
         14    1    1    2    0    0 -0.42698751360E-02  0.68910393412E-02 -0.21958999231E-01  0.23407603554E-01  0.00000000000E+00 0. -1.
     999901    1    3    3    0    0  0.75362307932E-01  0.18513421752E-01  0.12441867377E+00  0.89213352735E+00  0.88000000000E+00 0. -1.
        -11    1    4    4    0    0 -0.41886995841E-01 -0.72046747180E-02 -0.49707107356E-01  0.65402487728E-01  0.51100000000E-03 0. -1.
         11    1    4    4    0    0 -0.29205436955E-01 -0.18199786375E-01 -0.52752567186E-01  0.62986381366E-01  0.51100000000E-03 0.  1.
</event>
<event>
 8    1  0.1115874E+005  0.1043930E+01  0.7957747E-01            NaN
         13   -1    0    0    0    0  0.00000000000E+00  0.00000000000E+00  0.74505805969E-08  0.10566000000E+00  0.10566000000E+00 0. -1.
     999900   -1    0    0    0    0 -0.00000000000E+00 -0.00000000000E+00 -0.74505805969E-08  0.93827000000E+00  0.93827000000E+00 0.  1.
     999902    2    1    2    0    0 -0.39215276912E-02 -0.97572578105E-02  0.21005243960E-01  0.10204395182E+01  0.10201691074E+01 0.  0.
     999903    2    3    3    0    0  0.70786708380E-01 -0.10860414004E+00 -0.65884590413E-02  0.13133129136E+00  0.19972054988E-01 0.  0.
         14    1    1    2    0    0  0.39215276912E-02  0.97572578105E-02 -0.21005243960E-01  0.23490481758E-01  0.00000000000E+00 0.  1.
     999901    1    3    3    0    0 -0.74708236071E-01  0.98846882231E-01  0.27593703001E-01  0.88910822688E+00  0.88000000000E+00 0. -1.
        -11    1    4    4    0    0  0.45495721440E-01 -0.76830136363E-01  0.39281268871E-02  0.89377971698E-01  0.51100000000E-03 0.  1.
         11    1    4    4    0    0  0.25290986940E-01 -0.31774003678E-01 -0.10516585928E-01  0.41953319662E-01  0.51100000000E-03 0. -1.
</event>
<event>
 8    1  0.1115874E+005  0.1043930E+01  0.7957747E-01            NaN
         13   -1    0    0    0    0  0.00000000000E+00  0.00000000000E+00  0.74505805969E-08  0.10566000000E+00  0.10566000000E+00 0. -1.
     999900   -1    0    0    0    0 -0.00000000000E+00 -0.00000000000E+00 -0.74505805969E-08  0.93827000000E+00  0.93827000000E+00 0.  1.
     999902    2    1    2    0    0 -0.25003313899E-02  0.22189709243E-01  0.55712623807E-02  0.10209153564E+01  0.10206559123E+01 0.  0.
     999903    2    3    3    0    0  0.11839363639E+00 -0.41506504600E-01  0.26907749893E-01  0.13011358007E+00  0.21579472937E-01 0.  0.
         14    1    1    2    0    0  0.25003313899E-02 -0.22189709243E-01 -0.55712623807E-02  0.23014643553E-01  0.00000000000E+00 0.  1.
     999901    1    3    3    0    0 -0.12089396778E+00  0.63696213843E-01 -0.21336487512E-01  0.89080177638E+00  0.88000000000E+00 0.  1.
        -11    1    4    4    0    0  0.44069268730E-01 -0.25090372589E-01  0.16249985085E-01  0.53253641935E-01  0.51100000000E-03 0.  1.
         11    1    4    4    0    0  0.74324367657E-01 -0.16416132011E-01  0.10657764808E-01  0.76859938131E-01  0.51100000000E-03 0. -1.
</event>
<event>
 8    1  0.1115874E+005  0.1043930E+01  0.7957747E-01            NaN
         13   -1    0    0    0    0  0.00000000000E+00  0.00000000000E+00  0.74505805969E-08  0.10566000000E+00  0.10566000000E+00 0. -1.
     999900   -1    0    0    0    0 -0.00000000000E+00 -0.00000000000E+00 -0.74505805969E-08  0.93827000000E+00  0.93827000000E+00 0.  1.
     999902    2    1    2    0    0  0.11738929328E-01 -0.10662692565E-01  0.17131779823E-01  0.10205849073E+01  0.10203178718E+01 0.  0.
     999903    2    3    3    0    0 -0.89903935421E-01 -0.91359996758E-01 -0.13319565885E-01  0.13054523888E+00  0.20863411683E-01 0.  0.
         14    1    1    2    0    0 -0.11738929328E-01  0.10662692565E-01 -0.17131779823E-01  0.23345092726E-01  0.00000000000E+00 0.  1.
     999901    1    3    3    0    0  0.10164286475E+00  0.80697304193E-01  0.30451345708E-01  0.89003966839E+00  0.88000000000E+00 0. -1.
        -11    1    4    4    0    0 -0.53604605606E-01 -0.45757133082E-01  0.11439876803E-02  0.70489281447E-01  0.51100000000E-03 0. -1.
         11    1    4    4    0    0 -0.36299329815E-01 -0.45602863677E-01 -0.14463553565E-01  0.60055957434E-01  0.51100000000E-03 0.  1.
</event>
<event>
 8    1  0.1115874E+005  0.1043930E+01  0.7957747E-01            NaN
         13   -1    0    0    0    0  0.00000000000E+00  0.00000000000E+00  0.74505805969E-08  0.10566000000E+00  0.10566000000E+00 0.  1.
     999900   -1    0    0    0    0 -0.00000000000E+00 -0.00000000000E+00 -0.74505805969E-08  0.93827000000E+00  0.93827000000E+00 0. -1.
     999902    2    1    2    0    0 -0.21061894142E-01  0.64799275042E-02  0.85358692701E-02  0.10202983706E+01  0.10200246620E+01 0.  0.
     999903    2    3    3    0    0  0.12328709097E+00  0.25641703548E-01  0.14813249973E-01  0.12831002498E+00  0.19667902136E-01 0.  0.
         14    1    1    2    0    0  0.21061894142E-01 -0.64799275042E-02 -0.85358692701E-02  0.23631629430E-01  0.00000000000E+00 0. -1.
     999901    1    3    3    0    0 -0.14434898511E+00 -0.19161776044E-01 -0.62773807025E-02  0.89198834559E+00  0.88000000000E+00 0. -1.
        -11    1    4    4    0    0  0.96209741380E-01  0.23105936686E-01  0.39657266260E-02  0.99026192269E-01  0.51100000000E-03 0.  1.
         11    1    4    4    0    0  0.27077349590E-01  0.25357668620E-02  0.10847523347E-01  0.29283832709E-01  0.51100000000E-03 0. -1.
</event>
<event>
 8    1  0.1115874E+005  0.1043930E+01  0.7957747E-01            NaN
         13   -1    0    0    0    0  0.00000000000E+00  0.00000000000E+00  0.74505805969E-08  0.10566000000E+00  0.10566000000E+00 0.  1.
     999900   -1    0    0    0    0 -0.00000000000E+00 -0.00000000000E+00 -0.74505805969E-08  0.93827000000E+00  0.93827000000E+00 0.  1.
     999902    2    1    2    0    0  0.14921555126E-01 -0.13198267940E-01 -0.11636675709E-01  0.10208592543E+01  0.10205985292E+01 0.  0.
     999903    2    3    3    0    0 -0.97428961604E-01 -0.47522756355E-01  0.68194693113E-01  0.12947053073E+00  0.19007557154E-01 0.  0.
         14    1    1    2    0    0 -0.14921555126E-01  0.13198267940E-01  0.11636675709E-01  0.23070745665E-01  0.00000000000E+00 0.  1.
     999901    1    3    3    0    0  0.11235051673E+00  0.34324488416E-01 -0.79831368822E-01  0.89138872360E+00  0.88000000000E+00 0. -1.
        -11    1    4    4    0    0 -0.32165102005E-01 -0.21789683169E-01  0.33024262968E-01  0.50992618536E-01  0.51100000000E-03 0. -1.
         11    1    4    4    0    0 -0.65263859599E-01 -0.25733073186E-01  0.35170430145E-01  0.78477912198E-01  0.51100000000E-03 0.  1.
</event>
<event>
 8    1  0.1115874E+005  0.1043930E+01  0.7957747E-01            NaN
         13   -1    0    0    0    0  0.00000000000E+00  0.00000000000E+00  0.74505805969E-08  0.10566000000E+00  0.10566000000E+00 0. -1.
     999900   -1    0    0    0    0 -0.00000000000E+00 -0.00000000000E+00 -0.74505805969E-08  0.93827000000E+00  0.93827000000E+00 0. -1.
     999902    2    1    2    0    0 -0.49318111615E-02  0.61884311168E-02 -0.20675424292E-01  0.10217919646E+01  0.10215521163E+01 0.  0.
     999903    2    3    3    0    0 -0.10590929582E+00  0.22489227310E-01 -0.76422726441E-01  0.13411526105E+00  0.20589459499E-01 0.  0.
         14    1    1    2    0    0  0.49318111615E-02 -0.61884311168E-02  0.20675424292E-01  0.22138035384E-01  0.00000000000E+00 0. -1.
     999901    1    3    3    0    0  0.10097748466E+00 -0.16300796193E-01  0.55747302149E-01  0.88767670357E+00  0.88000000000E+00 0. -1.
        -11    1    4    4    0    0 -0.29506636835E-01  0.15779713752E-01 -0.21414047579E-01  0.39729882181E-01  0.51100000000E-03 0. -1.
         11    1    4    4    0    0 -0.76402658985E-01  0.67095135573E-02 -0.55008678862E-01  0.94385378864E-01  0.51100000000E-03 0.  1.
</event>
<event>
 8    1  0.1115874E+005  0.1043930E+01  0.7957747E-01            NaN
         13   -1    0    0    0    0  0.00000000000E+00  0.00000000000E+00  0.74505805969E-08  0.10566000000E+00  0.10566000000E+00 0.  1.
     999900   -1    0    0    0    0 -0.00000000000E+00 -0.00000000000E+00 -0.74505805969E-08  0.93827000000E+00  0.93827000000E+00 0.  1.
     999902    2    1    2    0    0 -0.21221897559E-01 -0.59291555001E-02  0.86636556935E-02  0.10202533712E+01  0.10199786070E+01 0.  0.
     999903    2    3    3    0    0 -0.58197052738E-01 -0.10534625415E+00  0.52481061055E-01  0.13280146456E+00  0.19930805516E-01 0.  0.
         14    1    1    2    0    0  0.21221897559E-01  0.59291555001E-02 -0.86636556935E-02  0.23676628792E-01  0.00000000000E+00 0. -1.
     999901    1    3    3    0    0  0.36975155178E-01  0.99417098650E-01 -0.43817405361E-01  0.88745190665E+00  0.88000000000E+00 0.  1.
        -11    1    4    4    0    0 -0.77286294235E-02 -0.10637687151E-01  0.12872388602E-01  0.18407922480E-01  0.51100000000E-03 0.  1.
         11    1    4    4    0    0 -0.50468423314E-01 -0.94708566999E-01  0.39608672453E-01  0.11439354208E+00  0.51100000000E-03 0. -1.
</event>
<event>
 8    1  0.1115874E+005  0.1043930E+01  0.7957747E-01            NaN
         13   -1    0    0    0    0  0.00000000000E+00  0.00000000000E+00  0.74505805969E-08  0.10566000000E+00  0.10566000000E+00 0. -1.
     999900   -1    0    0    0    0 -0.00000000000E+00 -0.00000000000E+00 -0.74505805969E-08  0.93827000000E+00  0.93827000000E+00 0.  1.
     999902    2    1    2    0    0  0.26975565050E-02  0.40402768338E-02  0.23069723221E-01  0.10203543181E+01  0.10200819191E+01 0.  0.
     999903    2    3    3    0    0  0.18096262306E-01 -0.60466824238E-02 -0.12478369438E+00  0.12783008874E+00  0.20137629597E-01 0.  0.
         14    1    1    2    0    0 -0.26975565050E-02 -0.40402768338E-02 -0.23069723221E-01  0.23575681909E-01  0.00000000000E+00 0.  1.
     999901    1    3    3    0    0 -0.15398705801E-01  0.10086959258E-01  0.14785341760E+00  0.89252422935E+00  0.88000000000E+00 0. -1.
        -11    1    4    4    0    0  0.22321544024E-01 -0.66564003375E-02 -0.10962383470E+00  0.11207232151E+00  0.51100000000E-03 0. -1.
         11    1    4    4    0    0 -0.42252817173E-02  0.60971791375E-03 -0.15159859680E-01  0.15757767229E-01  0.51100000000E-03 0.  1.
</event>
<event>
 8    1  0.1115874E+005  0.1043930E+01  0.7957747E-01            NaN
         13   -1    0    0    0    0  0.00000000000E+00  0.00000000000E+00  0.74505805969E-08  0.10566000000E+00  0.10566000000E+00 0. -1.
     999900   -1    0    0    0    0 -0.00000000000E+00 -0.00000000000E+00 -0.74505805969E-08  0.93827000000E+00  0.93827000000E+00 0. -1.
     999902    2    1    2    0    0 -0.24001971655E-01  0.81527556523E-03 -0.20150435539E-02  0.10198297984E+01  0.10195449955E+01 0.  0.
     999903    2    3    3    0    0 -0.10415370035E+00 -0.77420814203E-01  0.17386218772E-01  0.13251835681E+00  0.20417113448E-01 0.  0.
         14    1    1    2    0    0  0.24001971655E-01 -0.81527556523E-03  0.20150435539E-02  0.24100201620E-01  0.00000000000E+00 0. -1.
     999901    1    3    3    0    0  0.80151728693E-01  0.78236089768E-01 -0.19401262326E-01  0.88731144157E+00  0.88000000000E+00 0. -1.
        -11    1    4    4    0    0 -0.99542990203E-01 -0.67210749643E-01  0.14887857772E-01  0.12102892711E+00  0.51100000000E-03 0.  1.
         11    1    4    4    0    0 -0.46107101446E-02 -0.10210064560E-01  0.24983609998E-02  0.11489429709E-01  0.51100000000E-03 0. -1.
</event>
<event>
 8    1  0.1115874E+005  0.1043930E+01  0.7957747E-01            NaN
         13   -1    0    0    0    0  0.00000000000E+00  0.00000000000E+00  0.74505805969E-08  0.10566000000E+00  0.10566000000E+00 0. -1.
     999900   -1    0    0    0    0 -0.00000000000E+00 -0.00000000000E+00 -0.74505805969E-08  0.93827000000E+00  0.93827000000E+00 0. -1.
     999902    2    1    2    0    0 -0.93606177694E-03 -0.21545439749E-01  0.94020083918E-02  0.10204038455E+01  0.10201326031E+01 0.  0.
     999903    2    3    3    0    0  0.12625450601E+00  0.18997985446E-01 -0.14171976341E-01  0.13002362184E+00  0.20104068807E-01 0.  0.
         14    1    1    2    0    0  0.93606177694E-03  0.21545439749E-01 -0.94020083918E-02  0.23526154539E-01  0.00000000000E+00 0.  1.
     999901    1    3    3    0    0 -0.12719056779E+00 -0.40543425194E-01  0.23573984733E-01  0.89038022362E+00  0.88000000000E+00 0. -1.
        -11    1    4    4    0    0  0.95708427193E-01  0.57515545025E-02 -0.86704754685E-02  0.96273681143E-01  0.51100000000E-03 0. -1.
         11    1    4    4    0    0  0.30546078821E-01  0.13246430943E-01 -0.55015008726E-02  0.33749940695E-01  0.51100000000E-03 0.  1.
</event>
<event>
 8    1  0.1115874E+005  0.1043930E+01  0.7957747E-01            NaN
         13   -1    0    0    0    0  0.00000000000E+00  0.00000000000E+00  0.74505805969E-08  0.10566000000E+00  0.10566000000E+00 0.  1.
     999900   -1    0    0    0    0 -0.00000000000E+00 -0.00000000000E+00 -0.74505805969E-08  0.93827000000E+00  0.93827000000E+00 0.  1.
     999902    2    1    2    0    0 -0.37421610895E-02 -0.13520285813E-01  0.18826959575E-01  0.10204511520E+01  0.10201810120E+01 0.  0.
     999903    2    3    3    0    0  0.39570873165E-01 -0.36527403719E-01 -0.11518773618E+00  0.12895505826E+00  0.21472942534E-01 0.  0.
         14    1    1    2    0    0  0.37421610895E-02  0.13520285813E-01 -0.18826959575E-01  0.23478848032E-01  0.00000000000E+00 0. -1.
     999901    1    3    3    0    0 -0.43313034255E-01  0.23007117906E-01  0.13401469575E+00  0.89149609370E+00  0.88000000000E+00 0. -1.
        -11    1    4    4    0    0  0.18883458250E-01 -0.69320598448E-02 -0.57260660226E-01  0.60693350374E-01  0.51100000000E-03 0. -1.
         11    1    4    4    0    0  0.20687414916E-01 -0.29595343874E-01 -0.57927075950E-01  0.68261707890E-01  0.51100000000E-03 0.  1.
</event>
<event>
 8    1  0.1115874E+005  0.1043930E+01  0.7957747E-01            NaN
         13   -1    0    0    0    0  0.00000000000E+00  0.00000000000E+00  0.74505805969E-08  0.10566000000E+00  0.10566000000E+00 0. -1.
     999900   -1    0    0    0    0 -0.00000000000E+00 -0.00000000000E+00 -0.74505805969E-08  0.93827000000E+00  0.93827000000E+00 0.  1.
     999902    2    1    2    0    0 -0.79837422608E-03 -0.45700477283E-02  0.21492675343E-01  0.10219423255E+01  0.10217057594E+01 0.  0.
     999903    2    3    3    0    0  0.11255221821E+00  0.64057091026E-01  0.16867829273E-01  0.13201006391E+00  0.19256702060E-01 0.  0.
         14    1    1    2    0    0  0.79837422608E-03  0.45700477283E-02 -0.21492675343E-01  0.21987674525E-01  0.00000000000E+00 0.  1.
     999901    1    3    3    0    0 -0.11335059243E+00 -0.68627138755E-01  0.46248460702E-02  0.88993226157E+00  0.88000000000E+00 0. -1.
        -11    1    4    4    0    0  0.10095579396E+00  0.58547140869E-01  0.20860704000E-01  0.11855492453E+00  0.51100000000E-03 0. -1.
         11    1    4    4    0    0  0.11596424243E-01  0.55099501569E-02 -0.39928747273E-02  0.13455139372E-01  0.51100000000E-03 0.  1.
</event>
<event>
 8    1  0.1115874E+005  0.1043930E+01  0.7957747E-01            NaN
         13   -1    0    0    0    0  0.00000000000E+00  0.00000000000E+00  0.74505805969E-08  0.10566000000E+00  0.10566000000E+00 0. -1.
     999900   -1    0    0    0    0 -0.00000000000E+00 -0.00000000000E+00 -0.74505805969E-08  0.93827000000E+00  0.93827000000E+00 0.  1.
     999902    2    1    2    0    0 -0.91742052463E-02 -0.76228811439E-02  0.20255005468E-01  0.10204238390E+01  0.10201530628E+01 0.  0.
     999903    2    3    3    0    0  0.12654591005E+00  0.62726614103E-02 -0.15799026698E-01  0.12918148753E+00  0.19622279311E-01 0.  0.
         14    1    1    2    0    0  0.91742052463E-02  0.76228811439E-02 -0.20255005468E-01  0.23506161008E-01  0.00000000000E+00 0.  1.
     999901    1    3    3    0    0 -0.13572011530E+00 -0.13895542554E-01  0.36054032165E-01  0.89124235146E+00  0.88000000000E+00 0. -1.
        -11    1    4    4    0    0  0.71120511356E-01  0.12590056660E-01 -0.53610576005E-02  0.72426781800E-01  0.51100000000E-03 0.  1.
         11    1    4    4    0    0  0.55425398693E-01 -0.63173952496E-02 -0.10437969097E-01  0.56754705734E-01  0.51100000000E-03 0. -1.
</event>
<event>
 8    1  0.1115874E+005  0.1043930E+01  0.7957747E-01            NaN
         13   -1    0    0    0    0  0.00000000000E+00  0.00000000000E+00  0.74505805969E-08  0.10566000000E+00  0.10566000000E+00 0. -1.
     999900   -1    0    0    0    0 -0.00000000000E+00 -0.00000000000E+00 -0.74505805969E-08  0.93827000000E+00  0.93827000000E+00 0.  1.
     999902    2    1    2    0    0 -0.21198404569E-02  0.23428061686E-01  0.34297727087E-02  0.10201575130E+01  0.10198804931E+01 0.  0.
     999903    2    3    3    0    0  0.57241162380E-01  0.92709989527E-01 -0.71889301584E-01  0.13224046893E+00  0.21160744566E-01 0.  0.
         14    1    1    2    0    0  0.21198404569E-02 -0.23428061686E-01 -0.34297727087E-02  0.23772487013E-01  0.00000000000E+00 0. -1.
     999901    1    3    3    0    0 -0.59361002837E-01 -0.69281927840E-01  0.75319074293E-01  0.88791704406E+00  0.88000000000E+00 0. -1.
        -11    1    4    4    0    0  0.11148649510E-01  0.61580382530E-02 -0.10804414419E-01  0.16709587456E-01  0.51100000000E-03 0.  1.
         11    1    4    4    0    0  0.46092512871E-01  0.86551951274E-01 -0.61084887165E-01  0.11553088147E+00  0.51100000000E-03 0. -1.
</event>
<event>
 8    1  0.1115874E+005  0.1043930E+01  0.7957747E-01            NaN
         13   -1    0    0    0    0  0.00000000000E+00  0.00000000000E+00  0.74505805969E-08  0.10566000000E+00  0.10566000000E+00 0. -1.
     999900   -1    0    0    0    0 -0.00000000000E+00 -0.00000000000E+00 -0.74505805969E-08  0.93827000000E+00  0.93827000000E+00 0.  1.
     999902    2    1    2    0    0  0.19634973548E-01  0.55889385061E-02 -0.11962627710E-01  0.10202683669E+01  0.10199939547E+01 0.  0.
     999903    2    3    3    0    0  0.21065500022E-01  0.68087113651E-01 -0.11010603967E+00  0.13260841081E+00  0.19545851463E-01 0.  0.
         14    1    1    2    0    0 -0.19634973548E-01 -0.55889385061E-02  0.11962627710E-01  0.23661633113E-01  0.00000000000E+00 0. -1.
     999901    1    3    3    0    0 -0.14305264739E-02 -0.62498175145E-01  0.98143411964E-01  0.88765995607E+00  0.88000000000E+00 0. -1.
        -11    1    4    4    0    0  0.16559633426E-02  0.34518409069E-01 -0.60080295239E-01  0.69312089683E-01  0.51100000000E-03 0. -1.
         11    1    4    4    0    0  0.19409536679E-01  0.33568704582E-01 -0.50025744436E-01  0.63296321131E-01  0.51100000000E-03 0.  1.
</event>
<event>
 8    1  0.1115874E+005  0.1043930E+01  0.7957747E-01            NaN
         13   -1    0    0    0    0  0.00000000000E+00  0.00000000000E+00  0.74505805969E-08  0.10566000000E+00  0.10566000000E+00 0. -1.
     999900   -1    0    0    0    0 -0.00000000000E+00 -0.00000000000E+00 -0.74505805969E-08  0.93827000000E+00  0.93827000000E+00 0.  1.
     999902    2    1    2    0    0  0.50835123069E-02  0.14871966417E-01  0.13229353258E-01  0.10233865517E+01  0.10231803364E+01 0.  0.
     999903    2    3    3    0    0 -0.87054484040E-01 -0.81576754834E-01 -0.50172477598E-01  0.13107967711E+00  0.20769066454E-01 0.  0.
         14    1    1    2    0    0 -0.50835123069E-02 -0.14871966417E-01 -0.13229353258E-01  0.20543448350E-01  0.00000000000E+00 0.  1.
     999901    1    3    3    0    0  0.92137996347E-01  0.96448721251E-01  0.63401830855E-01  0.89230687454E+00  0.88000000000E+00 0.  1.
        -11    1    4    4    0    0 -0.46822165246E-01 -0.29776045013E-01 -0.24048760469E-01  0.60477533151E-01  0.51100000000E-03 0. -1.
         11    1    4    4    0    0 -0.40232318794E-01 -0.51800709821E-01 -0.26123717129E-01  0.70602143956E-01  0.51100000000E-03 0.  1.
</event>
<event>
 8    1  0.1115874E+005  0.1043930E+01  0.7957747E-01            NaN
         13   -1    0    0    0    0  0.00000000000E+00  0.00000000000E+00  0.74505805969E-08  0.10566000000E+00  0.10566000000E+00 0.  1.
     999900   -1    0    0    0    0 -0.00000000000E+00 -0.00000000000E+00 -0.74505805969E-08  0.93827000000E+00  0.93827000000E+00 0.  1.
     999902    2    1    2    0    0 -0.40626800715E-02 -0.22930074230E-01 -0.22947833267E-02  0.10205300063E+01  0.10202616988E+01 0.  0.
     999903    2    3    3    0    0  0.98619858370E-01 -0.72796836688E-01  0.44545666118E-01  0.13192186693E+00  0.19844563653E-01 0.  0.
         14    1    1    2    0    0  0.40626800715E-02  0.22930074230E-01  0.22947833267E-02  0.23399993677E-01  0.00000000000E+00 0.  1.
     999901    1    3    3    0    0 -0.10268253844E+00  0.49866762457E-01 -0.46840449445E-01  0.88860813940E+00  0.88000000000E+00 0.  1.
        -11    1    4    4    0    0  0.56260367500E-01 -0.53189734599E-01  0.29905867120E-01  0.82999992935E-01  0.51100000000E-03 0. -1.
         11    1    4    4    0    0  0.42359490870E-01 -0.19607102089E-01  0.14639798998E-01  0.48921873991E-01  0.51100000000E-03 0.  1.
</event>
<event>
 8    1  0.1115874E+005  0.1043930E+01  0.7957747E-01            NaN
         13   -1    0    0    0    0  0.00000000000E+00  0.00000000000E+00  0.74505805969E-08  0.10566000000E+00  0.10566000000E+00 0.  1.
     999900   -1    0    0    0    0 -0.00000000000E+00 -0.00000000000E+00 -0.74505805969E-08  0.93827000000E+00  0.93827000000E+00 0.  1.
     999902    2    1    2    0    0  0.20871789682E-01 -0.90322243899E-02 -0.58668635974E-02  0.10204431362E+01  0.10201728096E+01 0.  0.
     999903    2    3    3    0    0 -0.11293492497E+00  0.15784992080E-01  0.54624714803E-01  0.12793018831E+00  0.19463051196E-01 0.  0.
         14    1    1    2    0    0 -0.20871789682E-01  0.90322243899E-02  0.58668635974E-02  0.23486863784E-01  0.00000000000E+00 0. -1.
     999901    1    3    3    0    0  0.13380671465E+00 -0.24817216470E-01 -0.60491578400E-01  0.89251294790E+00  0.88000000000E+00 0.  1.
        -11    1    4    4    0    0 -0.36468832887E-01  0.94074967383E-02  0.92510883750E-02  0.38785571081E-01  0.51100000000E-03 0.  1.
         11    1    4    4    0    0 -0.76466092081E-01  0.63774953421E-02  0.45373626428E-01  0.89144617231E-01  0.51100000000E-03 0. -1.
</event>
<event>
 8    1  0.1115874E+005  0.1043930E+01  0.7957747E-01            NaN
         13   -1    0    0    0    0  0.00000000000E+00  0.00000000000E+00  0.74505805969E-08  0.10566000000E+00  0.10566000000E+00 0.  1.
     999900   -1    0    0    0    0 -0.00000000000E+00 -0.00000000000E+00 -0.74505805969E-08  0.93827000000E+00  0.93827000000E+00 0. -1.
     999902    2    1    2    0    0 -0.10134291745E-01 -0.10529672434E-01 -0.18479999990E-01  0.10203696887E+01  0.10200976489E+01 0.  0.
     999903    2    3    3    0    0 -0.48376486153E-01 -0.11637029405E+00 -0.37477906555E-01  0.13299962884E+00  0.20049390053E-01 0.  0.
         14    1    1    2    0    0  0.10134291745E-01  0.10529672434E-01  0.18479999990E-01  0.23560311339E-01  0.00000000000E+00 0.  1.
     999901    1    3    3    0    0  0.38242194407E-01  0.10584062162E+00  0.18997906564E-01  0.88737005982E+00  0.88000000000E+00 0.  1.
        -11    1    4    4    0    0 -0.19693182561E-01 -0.71584255134E-01 -0.25292302365E-01  0.78435251656E-01  0.51100000000E-03 0.  1.
         11    1    4    4    0    0 -0.28683303592E-01 -0.44786038916E-01 -0.12185604189E-01  0.54564377182E-01  0.51100000000E-03 0. -1.
</event>
<event>
 8    1  0.1115874E+005  0.1043930E+01  0.7957747E-01            NaN
         13   -1    0    0    0    0  0.00000000000E+00  0.00000000000E+00  0.74505805969E-08  0.10566000000E+00  0.10566000000E+00 0.  1.
     999900   -1    0    0    0    0 -0.00000000000E+00 -0.00000000000E+00 -0.74505805969E-08  0.93827000000E+00  0.93827000000E+00 0. -1.
     999902    2    1    2    0    0 -0.11687197396E-01 -0.71123736410E-02 -0.19515755690E-01  0.10200963859E+01  0.10198179226E+01 0.  0.
     999903    2    3    3    0    0  0.44527604460E-01 -0.11976778693E+00  0.97502719172E-02  0.13065395016E+00  0.25462846354E-01 0.  0.
         14    1    1    2    0    0  0.11687197396E-01  0.71123736410E-02  0.19515755690E-01  0.23833614119E-01  0.00000000000E+00 0. -1.
     999901    1    3    3    0    0 -0.56214801856E-01  0.11265541329E+00 -0.29266027607E-01  0.88944243572E+00  0.88000000000E+00 0. -1.
        -11    1    4    4    0    0  0.32677567604E-01 -0.52522061295E-01  0.15477589474E-02  0.61879294000E-01  0.51100000000E-03 0. -1.
         11    1    4    4    0    0  0.11850036856E-01 -0.67245725636E-01  0.82025129698E-02  0.68774656159E-01  0.51100000000E-03 0.  1.
</event>
<event>
 8    1  0.1115874E+005  0.1043930E+01  0.7957747E-01            NaN
         13   -1    0    0    0    0  0.00000000000E+00  0.00000000000E+00  0.74505805969E-08  0.10566000000E+00  0.10566000000E+00 0.  1.
     999900   -1    0    0    0    0 -0.00000000000E+00 -0.00000000000E+00 -0.74505805969E-08  0.93827000000E+00  0.93827000000E+00 0. -1.
     999902    2    1    2    0    0 -0.20035036013E-01 -0.99485607245E-02  0.35463447756E-03  0.10215580914E+01  0.10213130920E+01 0.  0.
     999903    2    3    3    0    0 -0.62792331804E-01  0.59774734894E-01 -0.97948300338E-01  0.13231515987E+00  0.19938308029E-01 0.  0.
         14    1    1    2    0    0  0.20035036013E-01  0.99485607245E-02 -0.35463447756E-03  0.22371908594E-01  0.00000000000E+00 0.  1.
     999901    1    3    3    0    0  0.42757295791E-01 -0.69723295618E-01  0.98302934816E-01  0.88924293154E+00  0.88000000000E+00 0.  1.
        -11    1    4    4    0    0 -0.32947907464E-01  0.44251195379E-01 -0.64418688973E-01  0.84816045113E-01  0.51100000000E-03 0.  1.
         11    1    4    4    0    0 -0.29844424340E-01  0.15523539515E-01 -0.33529611366E-01  0.47499114756E-01  0.51100000000E-03 0. -1.
</event>
<event>
 8    1  0.1115874E+005  0.1043930E+01  0.7957747E-01            NaN
         13   -1    0    0    0    0  0.00000000000E+00  0.00000000000E+00  0.74505805969E-08  0.10566000000E+00  0.10566000000E+00 0.  1.
     999900   -1    0    0    0    0 -0.00000000000E+00 -0.00000000000E+00 -0.74505805969E-08  0.93827000000E+00  0.93827000000E+00 0. -1.
     999902    2    1    2    0    0 -0.18983842685E-01 -0.96198009908E-02 -0.10203758853E-02  0.10226234747E+01  0.10224014881E+01 0.  0.
     999903    2    3    3    0    0 -0.88150162332E-01  0.83050657841E-01 -0.52921443594E-01  0.13354219913E+00  0.19104367788E-01 0.  0.
         14    1    1    2    0    0  0.18983842685E-01  0.96198009908E-02  0.10203758853E-02  0.21306525318E-01  0.00000000000E+00 0.  1.
     999901    1    3    3    0    0  0.69166319647E-01 -0.92670458832E-01  0.51901067708E-01  0.88908127556E+00  0.88000000000E+00 0. -1.
        -11    1    4    4    0    0 -0.54479292121E-01  0.58963311112E-01 -0.27022030327E-01  0.84706059826E-01  0.51100000000E-03 0.  1.
         11    1    4    4    0    0 -0.33670870211E-01  0.24087346729E-01 -0.25899413267E-01  0.48836139300E-01  0.51100000000E-03 0. -1.
</event>
<event>
 8    1  0.1115874E+005  0.1043930E+01  0.7957747E-01            NaN
         13   -1    0    0    0    0  0.00000000000E+00  0.00000000000E+00  0.74505805969E-08  0.10566000000E+00  0.10566000000E+00 0. -1.
     999900   -1    0    0    0    0 -0.00000000000E+00 -0.00000000000E+00 -0.74505805969E-08  0.93827000000E+00  0.93827000000E+00 0. -1.
     999902    2    1    2    0    0  0.15646517199E-01  0.12145744063E-01 -0.13232172612E-01  0.10201093579E+01  0.10198312012E+01 0.  0.
     999903    2    3    3    0    0 -0.43502071600E-01  0.12072083287E+00  0.16345661357E-01  0.13097384867E+00  0.20518739407E-01 0.  0.
         14    1    1    2    0    0 -0.15646517199E-01 -0.12145744063E-01  0.13232172612E-01  0.23820642127E-01  0.00000000000E+00 0.  1.
     999901    1    3    3    0    0  0.59148588798E-01 -0.10857508881E+00 -0.29577833968E-01  0.88913550920E+00  0.88000000000E+00 0.  1.
        -11    1    4    4    0    0 -0.44129693626E-01  0.11593776876E+00  0.18910463830E-01  0.12548650464E+00  0.51100000000E-03 0.  1.
         11    1    4    4    0    0  0.62762202631E-03  0.47830641173E-02 -0.25648024731E-02  0.54873440283E-02  0.51100000000E-03 0. -1.
</event>
<event>
 8    1  0.1115874E+005  0.1043930E+01  0.7957747E-01            NaN
         13   -1    0    0    0    0  0.00000000000E+00  0.00000000000E+00  0.74505805969E-08  0.10566000000E+00  0.10566000000E+00 0.  1.
     999900   -1    0    0    0    0 -0.00000000000E+00 -0.00000000000E+00 -0.74505805969E-08  0.93827000000E+00  0.93827000000E+00 0.  1.
     999902    2    1    2    0    0 -0.11102555158E-01 -0.19707896777E-01  0.48708761775E-02  0.10207914313E+01  0.10205291534E+01 0.  0.
     999903    2    3    3    0    0 -0.44131664788E-01 -0.98155624105E-01 -0.75500405349E-01  0.13303892588E+00  0.20418477168E-01 0.  0.
         14    1    1    2    0    0  0.11102555158E-01  0.19707896777E-01 -0.48708761775E-02  0.23138568693E-01  0.00000000000E+00 0. -1.
     999901    1    3    3    0    0  0.33029109630E-01  0.78447727328E-01  0.80371281527E-01  0.88775250543E+00  0.88000000000E+00 0. -1.
        -11    1    4    4    0    0 -0.30410535889E-01 -0.61194926192E-01 -0.59054433764E-01  0.90317810828E-01  0.51100000000E-03 0.  1.
         11    1    4    4    0    0 -0.13721128899E-01 -0.36960697913E-01 -0.16445971585E-01  0.42721115047E-01  0.51100000000E-03 0. -1.
</event>
<event>
 8    1  0.1115874E+005  0.1043930E+01  0.7957747E-01            NaN
         13   -1    0    0    0    0  0.00000000000E+00  0.00000000000E+00  0.74505805969E-08  0.10566000000E+00  0.10566000000E+00 0. -1.
     999900   -1    0    0    0    0 -0.00000000000E+00 -0.00000000000E+00 -0.74505805969E-08  0.93827000000E+00  0.93827000000E+00 0. -1.
     999902    2    1    2    0    0  0.25025663162E-01  0.23812394208E-02  0.70483946646E-04  0.10187912036E+01  0.10184810049E+01 0.  0.
     999903    2    3    3    0    0 -0.49326671847E-02  0.12512109957E+00  0.25533198002E-01  0.12940325412E+00  0.20338073022E-01 0.  0.
         14    1    1    2    0    0 -0.25025663162E-01 -0.23812394208E-02 -0.70483946646E-04  0.25138796428E-01  0.00000000000E+00 0. -1.
     999901    1    3    3    0    0  0.29958330347E-01 -0.12273986014E+00 -0.25462714056E-01  0.88938794945E+00  0.88000000000E+00 0.  1.
        -11    1    4    4    0    0  0.39879568522E-03  0.11309592051E+00  0.26639649674E-01  0.11619284974E+00  0.51100000000E-03 0. -1.
         11    1    4    4    0    0 -0.53314628699E-02  0.12025179054E-01 -0.11064516718E-02  0.13210404382E-01  0.51100000000E-03 0.  1.
</event>
<event>
 8    1  0.1115874E+005  0.1043930E+01  0.7957747E-01            NaN
         13   -1    0    0    0    0  0.00000000000E+00  0.00000000000E+00  0.74505805969E-08  0.10566000000E+00  0.10566000000E+00 0.  1.
     999900   -1    0    0    0    0 -0.00000000000E+00 -0.00000000000E+00 -0.74505805969E-08  0.93827000000E+00  0.93827000000E+00 0.  1.
     999902    2    1    2    0    0 -0.16234332269E-01  0.96443921819E-02  0.14341419703E-01  0.10202183117E+01  0.10199427235E+01 0.  0.
     999903    2    3    3    0    0  0.76268470297E-01  0.87199573671E-01 -0.53972046576E-01  0.12935451493E+00  0.19974070954E-01 0.  0.
         14    1    1    2    0    0  0.16234332269E-01 -0.96443921819E-02 -0.14341419703E-01  0.23711688338E-01  0.00000000000E+00 0. -1.
     999901    1    3    3    0    0 -0.92502802565E-01 -0.77555181489E-01  0.68313466278E-01  0.89086379674E+00  0.88000000000E+00 0.  1.
        -11    1    4    4    0    0  0.36637404556E-01  0.56489058006E-01 -0.33362662910E-01  0.75144138058E-01  0.51100000000E-03 0.  1.
         11    1    4    4    0    0  0.39631065741E-01  0.30710515665E-01 -0.20609383665E-01  0.54210376869E-01  0.51100000000E-03 0. -1.
</event>
<event>
 8    1  0.1115874E+005  0.1043930E+01  0.7957747E-01            NaN
         13   -1    0    0    0    0  0.00000000000E+00  0.00000000000E+00  0.74505805969E-08  0.10566000000E+00  0.10566000000E+00 0. -1.
     999900   -1    0    0    0    0 -0.00000000000E+00 -0.00000000000E+00 -0.74505805969E-08  0.93827000000E+00  0.93827000000E+00 0.  1.
     999902    2    1    2    0    0 -0.69206565824E-02 -0.94941149401E-02  0.20770400015E-01  0.10200669905E+01  0.10197878318E+01 0.  0.
     999903    2    3    3    0    0  0.66946554325E-01 -0.96718561638E-01 -0.51028390861E-01  0.12977516456E+00  0.20034354530E-01 0.  0.
         14    1    1    2    0    0  0.69206565824E-02  0.94941149401E-02 -0.20770400015E-01  0.23863009509E-01  0.00000000000E+00 0.  1.
     999901    1    3    3    0    0 -0.73867210907E-01  0.87224446698E-01  0.71798790876E-01  0.89029182593E+00  0.88000000000E+00 0. -1.
        -11    1    4    4    0    0  0.54085840470E-01 -0.65735840041E-01 -0.30411260516E-01  0.90396817933E-01  0.51100000000E-03 0. -1.
         11    1    4    4    0    0  0.12860713854E-01 -0.30982721597E-01 -0.20617130345E-01  0.39378346626E-01  0.51100000000E-03 0.  1.
</event>
<event>
 8    1  0.1115874E+005  0.1043930E+01  0.7957747E-01            NaN
         13   -1    0    0    0    0  0.00000000000E+00  0.00000000000E+00  0.74505805969E-08  0.10566000000E+00  0.10566000000E+00 0.  1.
     999900   -1    0    0    0    0 -0.00000000000E+00 -0.00000000000E+00 -0.74505805969E-08  0.93827000000E+00  0.93827000000E+00 0.  1.
     999902    2    1    2    0    0 -0.14850767574E-01  0.18936710775E-01  0.41942900632E-03  0.10198609279E+01  0.10195768691E+01 0.  0.
     999903    2    3    3    0    0  0.67497922532E-01  0.10914965048E+00  0.23999492950E-01  0.13111141273E+00  0.12025437186E-01 0.  0.
         14    1    1    2    0    0  0.14850767574E-01 -0.18936710775E-01 -0.41942900632E-03  0.24069072130E-01  0.00000000000E+00 0.  1.
     999901    1    3    3    0    0 -0.82348690107E-01 -0.90212939703E-01 -0.23580063944E-01  0.88874951514E+00  0.88000000000E+00 0.  1.
        -11    1    4    4    0    0  0.34061162274E-01  0.52428509867E-01  0.57673110907E-02  0.62788808084E-01  0.51100000000E-03 0.  1.
         11    1    4    4    0    0  0.33436760258E-01  0.56721140611E-01  0.18232181859E-01  0.68322604642E-01  0.51100000000E-03 0. -1.
</event>
<event>
 8    1  0.1115874E+005  0.1043930E+01  0.7957747E-01            NaN
         13   -1    0    0    0    0  0.00000000000E+00  0.00000000000E+00  0.74505805969E-08  0.10566000000E+00  0.10566000000E+00 0.  1.
     999900   -1    0    0    0    0 -0.00000000000E+00 -0.00000000000E+00 -0.74505805969E-08  0.93827000000E+00  0.93827000000E+00 0.  1.
     999902    2    1    2    0    0 -0.45031089016E-02 -0.12869186294E-01 -0.20894335676E-01  0.10189807072E+01  0.10186752252E+01 0.  0.
     999903    2    3    3    0    0 -0.11395133201E+00  0.16370661670E-01 -0.58706352587E-01  0.13091335007E+00  0.20951485921E-01 0.  0.
         14    1    1    2    0    0  0.45031089016E-02  0.12869186294E-01  0.20894335676E-01  0.24949292755E-01  0.00000000000E+00 0. -1.
     999901    1    3    3    0    0  0.10944822311E+00 -0.29239847964E-01  0.37812016911E-01  0.88806735717E+00  0.88000000000E+00 0.  1.
        -11    1    4    4    0    0 -0.94180711080E-01  0.72599442278E-02 -0.53363643777E-01  0.10849263905E+00  0.51100000000E-03 0. -1.
         11    1    4    4    0    0 -0.19770620933E-01  0.91107174422E-02 -0.53427088098E-02  0.22420711023E-01  0.51100000000E-03 0.  1.
</event>
<event>
 8    1  0.1115874E+005  0.1043930E+01  0.7957747E-01            NaN
         13   -1    0    0    0    0  0.00000000000E+00  0.00000000000E+00  0.74505805969E-08  0.10566000000E+00  0.10566000000E+00 0.  1.
     999900   -1    0    0    0    0 -0.00000000000E+00 -0.00000000000E+00 -0.74505805969E-08  0.93827000000E+00  0.93827000000E+00 0.  1.
     999902    2    1    2    0    0  0.21144115628E-01  0.82106927906E-02 -0.80803878182E-02  0.10198513420E+01  0.10195670542E+01 0.  0.
     999903    2    3    3    0    0  0.10752874918E+00 -0.26476750243E-01  0.68362077945E-01  0.13164586233E+00  0.19844625572E-01 0.  0.
         14    1    1    2    0    0 -0.21144115628E-01 -0.82106927906E-02  0.80803878182E-02  0.24078657958E-01  0.00000000000E+00 0.  1.
     999901    1    3    3    0    0 -0.86384633552E-01  0.34687443034E-01 -0.76442465763E-01  0.88820547971E+00  0.88000000000E+00 0.  1.
        -11    1    4    4    0    0  0.72194288540E-01 -0.25056551111E-01  0.39665626608E-01  0.86101504670E-01  0.51100000000E-03 0.  1.
         11    1    4    4    0    0  0.35334460640E-01 -0.14201991326E-02  0.28696451336E-01  0.45544357660E-01  0.51100000000E-03 0. -1.
</event>
<event>
 8    1  0.1115874E+005  0.1043930E+01  0.7957747E-01            NaN
         13   -1    0    0    0    0  0.00000000000E+00  0.00000000000E+00  0.74505805969E-08  0.10566000000E+00  0.10566000000E+00 0.  1.
     999900   -1    0    0    0    0 -0.00000000000E+00 -0.00000000000E+00 -0.74505805969E-08  0.93827000000E+00  0.93827000000E+00 0.  1.
     999902    2    1    2    0    0  0.89939145575E-02 -0.15647108788E-01 -0.13074788095E-01  0.10216438474E+01  0.10214007433E+01 0.  0.
     999903    2    3    3    0    0  0.12048861080E+00  0.47471747244E-01  0.15043944679E-01  0.13192157593E+00  0.20147203391E-01 0.  0.
         14    1    1    2    0    0 -0.89939145575E-02  0.15647108788E-01  0.13074788095E-01  0.22286152566E-01  0.00000000000E+00 0.  1.
     999901    1    3    3    0    0 -0.11149469625E+00 -0.63118856031E-01 -0.28118732774E-01  0.88972227150E+00  0.88000000000E+00 0.  1.
        -11    1    4    4    0    0  0.61319477797E-01  0.14506339340E-01  0.27031572211E-02  0.63072025640E-01  0.51100000000E-03 0.  1.
         11    1    4    4    0    0  0.59169133006E-01  0.32965407904E-01  0.12340787458E-01  0.68849550290E-01  0.51100000000E-03 0. -1.
</event>
<event>
 8    1  0.1115874E+005  0.1043930E+01  0.7957747E-01            NaN
         13   -1    0    0    0    0  0.00000000000E+00  0.00000000000E+00  0.74505805969E-08  0.10566000000E+00  0.10566000000E+00 0. -1.
     999900   -1    0    0    0    0 -0.00000000000E+00 -0.00000000000E+00 -0.74505805969E-08  0.93827000000E+00  0.93827000000E+00 0.  1.
     999902    2    1    2    0    0 -0.85169475883E-02  0.21013023132E-01  0.48972926355E-03  0.10212512573E+01  0.10209994148E+01 0.  0.
     999903    2    3    3    0    0 -0.11189684642E+00  0.43511098623E-01 -0.53435392154E-01  0.13327519587E+00  0.22199476542E-01 0.  0.
         14    1    1    2    0    0  0.85169475883E-02 -0.21013023132E-01 -0.48972926355E-03  0.22678742737E-01  0.00000000000E+00 0. -1.
     999901    1    3    3    0    0  0.10337989883E+00 -0.22498075491E-01  0.53925121418E-01  0.88797606139E+00  0.88000000000E+00 0. -1.
        -11    1    4    4    0    0 -0.88114216331E-01  0.40540240613E-01 -0.49788354773E-01  0.10902645377E+00  0.51100000000E-03 0.  1.
         11    1    4    4    0    0 -0.23782630086E-01  0.29708580095E-02 -0.36470373810E-02  0.24248742107E-01  0.51100000000E-03 0. -1.
</event>
<event>
 8    1  0.1115874E+005  0.1043930E+01  0.7957747E-01            NaN
         13   -1    0    0    0    0  0.00000000000E+00  0.00000000000E+00  0.74505805969E-08  0.10566000000E+00  0.10566000000E+00 0. -1.
     999900   -1    0    0    0    0 -0.00000000000E+00 -0.00000000000E+00 -0.74505805969E-08  0.93827000000E+00  0.93827000000E+00 0.  1.
     999902    2    1    2    0    0 -0.88561284425E-03 -0.17826099907E-01 -0.14656930882E-01  0.10208349839E+01  0.10205737036E+01 0.  0.
     999903    2    3    3    0    0  0.79678984042E-01  0.94130432514E-01 -0.35546708618E-01  0.12984603766E+00  0.19676030570E-01 0.  0.
         14    1    1    2    0    0  0.88561284425E-03  0.17826099907E-01  0.14656930882E-01  0.23095016149E-01  0.00000000000E+00 0. -1.
     999901    1    3    3    0    0 -0.80564596887E-01 -0.11195653242E+00  0.20889777735E-01  0.89098894619E+00  0.88000000000E+00 0. -1.
        -11    1    4    4    0    0  0.12273064152E-01  0.21606265059E-01 -0.13963735149E-01  0.28507995612E-01  0.51100000000E-03 0. -1.
         11    1    4    4    0    0  0.67405919891E-01  0.72524167454E-01 -0.21582973469E-01  0.10133804205E+00  0.51100000000E-03 0.  1.
</event>
<event>
 7    1  0.1115874E+005  0.1043930E+01  0.7957747E-01            NaN
         13   -1    0    0    0    0  0.00000000000E+00  0.00000000000E+00  0.74505805969E-08  0.10566000000E+00  0.10566000000E+00 0.  1.
     999900   -1    0    0    0    0 -0.00000000000E+00 -0.00000000000E+00 -0.74505805969E-08  0.93827000000E+00  0.93827000000E+00 0. -1.
     999903    2    1    2    0    0 -0.10112893076E+00  0.58148153826E-01  0.16726104558E-01  0.11951822282E+00  0.19914180394E-01 0.  0.
         14    1    1    2    0    0  0.24225711036E-01  0.10999263330E-01 -0.27536025903E-01  0.38289706077E-01  0.00000000000E+00 0. -1.
     999901    1    1    2    0    0  0.76903219727E-01 -0.69147417156E-01  0.10809921345E-01  0.88612207111E+00  0.88000000000E+00 0.  1.
        -11    1    3    3    0    0 -0.91341097641E-01  0.48199874847E-01  0.92903015850E-02  0.10369664835E+00  0.51100000000E-03 0. -1.
         11    1    3    3    0    0 -0.97878331211E-02  0.99482789797E-02  0.74358029727E-02  0.15821574470E-01  0.51100000000E-03 0.  1.
</event>
<event>
 8    1  0.1115874E+005  0.1043930E+01  0.7957747E-01            NaN
         13   -1    0    0    0    0  0.00000000000E+00  0.00000000000E+00  0.74505805969E-08  0.10566000000E+00  0.10566000000E+00 0.  1.
     999900   -1    0    0    0    0 -0.00000000000E+00 -0.00000000000E+00 -0.74505805969E-08  0.93827000000E+00  0.93827000000E+00 0.  1.
     999902    2    1    2    0    0  0.21229973222E-01  0.41986640416E-02 -0.79573845424E-02  0.10208722353E+01  0.10206118069E+01 0.  0.
     999903    2    3    3    0    0 -0.64608867305E-01  0.85079286729E-02 -0.11149661599E+00  0.13064347330E+00  0.19736543593E-01 0.  0.
         14    1    1    2    0    0 -0.21229973222E-01 -0.41986640416E-02  0.79573845424E-02  0.23057764668E-01  0.00000000000E+00 0. -1.
     999901    1    3    3    0    0  0.85838840526E-01 -0.43092646313E-02  0.10353923145E+00  0.89022876203E+00  0.88000000000E+00 0. -1.
        -11    1    4    4    0    0 -0.43422199606E-01 -0.24249997754E-02 -0.80915203946E-01  0.91863482370E-01  0.51100000000E-03 0.  1.
         11    1    4    4    0    0 -0.21186667699E-01  0.10932928448E-01 -0.30581412045E-01  0.38779990927E-01  0.51100000000E-03 0. -1.
</event>
<event>
 8    1  0.1115874E+005  0.1043930E+01  0.7957747E-01            NaN
         13   -1    0    0    0    0  0.00000000000E+00  0.00000000000E+00  0.74505805969E-08  0.10566000000E+00  0.10566000000E+00 0.  1.
     999900   -1    0    0    0    0 -0.00000000000E+00 -0.00000000000E+00 -0.74505805969E-08  0.93827000000E+00  0.93827000000E+00 0. -1.
     999902    2    1    2    0    0 -0.10117996940E-01  0.14313029365E-01 -0.14840744781E-01  0.10209629720E+01  0.10207046124E+01 0.  0.
     999903    2    3    3    0    0 -0.95703881350E-01  0.88938569706E-01 -0.19626189659E-01  0.13365422334E+00  0.20222809136E-01 0.  0.
         14    1    1    2    0    0  0.10117996940E-01 -0.14313029365E-01  0.14840744781E-01  0.22967028048E-01  0.00000000000E+00 0.  1.
     999901    1    3    3    0    0  0.85585884410E-01 -0.74625540341E-01  0.47854448782E-02  0.88730874861E+00  0.88000000000E+00 0. -1.
        -11    1    4    4    0    0 -0.76675087005E-01  0.80587456425E-01 -0.13964985575E-01  0.11211016476E+00  0.51100000000E-03 0.  1.
         11    1    4    4    0    0 -0.19028794345E-01  0.83511132807E-02 -0.56612040844E-02  0.21544058576E-01  0.51100000000E-03 0. -1.
</event>
<event>
 8    1  0.1115874E+005  0.1043930E+01  0.7957747E-01            NaN
         13   -1    0    0    0    0  0.00000000000E+00  0.00000000000E+00  0.74505805969E-08  0.10566000000E+00  0.10566000000E+00 0. -1.
     999900   -1    0    0    0    0 -0.00000000000E+00 -0.00000000000E+00 -0.74505805969E-08  0.93827000000E+00  0.93827000000E+00 0. -1.
     999902    2    1    2    0    0 -0.19960601158E-01  0.37643123747E-04 -0.12275491991E-01  0.10204968031E+01  0.10202277247E+01 0.  0.
     999903    2    3    3    0    0 -0.65333027755E-01  0.57020160906E-01  0.95789957364E-01  0.13089925035E+00  0.20956968891E-01 0.  0.
         14    1    1    2    0    0  0.19960601158E-01 -0.37643123747E-04  0.12275491991E-01  0.23433196948E-01  0.00000000000E+00 0.  1.
     999901    1    3    3    0    0  0.45372426597E-01 -0.56982517783E-01 -0.10806544936E+00  0.88959755270E+00  0.88000000000E+00 0. -1.
        -11    1    4    4    0    0 -0.26404538279E-01  0.13477688561E-01  0.22723243855E-01  0.37355784866E-01  0.51100000000E-03 0.  1.
         11    1    4    4    0    0 -0.38928489476E-01  0.43542472345E-01  0.73066713509E-01  0.93543465485E-01  0.51100000000E-03 0. -1.
</event>
<event>
 8    1  0.1115874E+005  0.1043930E+01  0.7957747E-01            NaN
         13   -1    0    0    0    0  0.00000000000E+00  0.00000000000E+00  0.74505805969E-08  0.10566000000E+00  0.10566000000E+00 0. -1.
     999900   -1    0    0    0    0 -0.00000000000E+00 -0.00000000000E+00 -0.74505805969E-08  0.93827000000E+00  0.93827000000E+00 0.  1.
     999902    2    1    2    0    0  0.21440635056E-01  0.72815939398E-02  0.72934757252E-02  0.10201409851E+01  0.10198635753E+01 0.  0.
     999903    2    3    3    0    0  0.11584714063E-01 -0.15706467346E-01  0.12846367975E+00  0.13148592914E+00  0.20117997649E-01 0.  0.
         14    1    1    2    0    0 -0.21440635056E-01 -0.72815939398E-02 -0.72934757252E-02  0.23789014904E-01  0.00000000000E+00 0.  1.
     999901    1    3    3    0    0  0.98559209933E-02  0.22988061286E-01 -0.12117020403E+00  0.88865505596E+00  0.88000000000E+00 0.  1.
        -11    1    4    4    0    0  0.26749243067E-02 -0.10386402330E-01  0.21632919377E-01  0.24151126168E-01  0.51100000000E-03 0.  1.
         11    1    4    4    0    0  0.89097897565E-02 -0.53200650157E-02  0.10683076037E+00  0.10733480297E+00  0.51100000000E-03 0. -1.
</event>
<event>
 8    1  0.1115874E+005  0.1043930E+01  0.7957747E-01            NaN
         13   -1    0    0    0    0  0.00000000000E+00  0.00000000000E+00  0.74505805969E-08  0.10566000000E+00  0.10566000000E+00 0. -1.
     999900   -1    0    0    0    0 -0.00000000000E+00 -0.00000000000E+00 -0.74505805969E-08  0.93827000000E+00  0.93827000000E+00 0.  1.
     999902    2    1    2    0    0 -0.17137112724E-01  0.11570985694E-01  0.12171564974E-01  0.10199359312E+01  0.10196536610E+01 0.  0.
     999903    2    3    3    0    0 -0.12089373501E+00  0.49317065710E-01  0.16462503430E-01  0.13302634430E+00  0.19430031477E-01 0.  0.
         14    1    1    2    0    0  0.17137112724E-01 -0.11570985694E-01 -0.12171564974E-01  0.23994068775E-01  0.00000000000E+00 0.  1.
     999901    1    3    3    0    0  0.10375662229E+00 -0.37746080015E-01 -0.42909384564E-02  0.88690958692E+00  0.88000000000E+00 0.  1.
        -11    1    4    4    0    0 -0.10466683139E+00  0.38027551692E-01  0.84229071249E-02  0.11168010909E+00  0.51100000000E-03 0.  1.
         11    1    4    4    0    0 -0.16226903627E-01  0.11289514017E-01  0.80395963054E-02  0.21346235214E-01  0.51100000000E-03 0. -1.
</event>
<event>
 8    1  0.1115874E+005  0.1043930E+01  0.7957747E-01            NaN
         13   -1    0    0    0    0  0.00000000000E+00  0.00000000000E+00  0.74505805969E-08  0.10566000000E+00  0.10566000000E+00 0. -1.
     999900   -1    0    0    0    0 -0.00000000000E+00 -0.00000000000E+00 -0.74505805969E-08  0.93827000000E+00  0.93827000000E+00 0.  1.
     999902    2    1    2    0    0 -0.30020971172E-02 -0.22594927925E-01 -0.77742940833E-02  0.10198471637E+01  0.10195627761E+01 0.  0.
     999903    2    3    3    0    0  0.31869190184E-01 -0.43471959518E-02  0.12357581376E+00  0.12922836915E+00  0.19860670975E-01 0.  0.
         14    1    1    2    0    0  0.30020971172E-02  0.22594927925E-01  0.77742940833E-02  0.24082836285E-01  0.00000000000E+00 0. -1.
     999901    1    3    3    0    0 -0.34871287301E-01 -0.18247731974E-01 -0.13135010784E+00  0.89061879456E+00  0.88000000000E+00 0.  1.
        -11    1    4    4    0    0  0.11629911087E-01  0.50635100045E-03  0.16822332828E-01  0.20463705090E-01  0.51100000000E-03 0. -1.
         11    1    4    4    0    0  0.20239279096E-01 -0.48535469522E-02  0.10675348093E+00  0.10876466406E+00  0.51100000000E-03 0.  1.
</event>
<event>
 8    1  0.1115874E+005  0.1043930E+01  0.7957747E-01            NaN
         13   -1    0    0    0    0  0.00000000000E+00  0.00000000000E+00  0.74505805969E-08  0.10566000000E+00  0.10566000000E+00 0.  1.
     999900   -1    0    0    0    0 -0.00000000000E+00 -0.00000000000E+00 -0.74505805969E-08  0.93827000000E+00  0.93827000000E+00 0.  1.
     999902    2    1    2    0    0 -0.21784663002E-01  0.19871143861E-02 -0.93553994021E-02  0.10201383279E+01  0.10198608554E+01 0.  0.
     999903    2    3    3    0    0 -0.73858114775E-01  0.93408499714E-01  0.52762414133E-01  0.13169691907E+00  0.19494543102E-01 0.  0.
         14    1    1    2    0    0  0.21784663002E-01 -0.19871143861E-02  0.93553994021E-02  0.23791672149E-01  0.00000000000E+00 0.  1.
     999901    1    3    3    0    0  0.52073451774E-01 -0.91421385328E-01 -0.62117813536E-01  0.88844140878E+00  0.88000000000E+00 0. -1.
        -11    1    4    4    0    0 -0.61922509548E-02  0.30641100647E-02 -0.37657353158E-03  0.69379875325E-02  0.51100000000E-03 0. -1.
         11    1    4    4    0    0 -0.67665863820E-01  0.90344389650E-01  0.53138987665E-01  0.12475893154E+00  0.51100000000E-03 0.  1.
</event>
<event>
 8    1  0.1115874E+005  0.1043930E+01  0.7957747E-01            NaN
         13   -1    0    0    0    0  0.00000000000E+00  0.00000000000E+00  0.74505805969E-08  0.10566000000E+00  0.10566000000E+00 0. -1.
     999900   -1    0    0    0    0 -0.00000000000E+00 -0.00000000000E+00 -0.74505805969E-08  0.93827000000E+00  0.93827000000E+00 0.  1.
     999902    2    1    2    0    0 -0.41320111268E-02 -0.88086771295E-02  0.18449707441E-01  0.10230719557E+01  0.10228593102E+01 0.  0.
     999903    2    3    3    0    0  0.31267394042E-01  0.82083774192E-01  0.99237065568E-01  0.13400438072E+00  0.19843965162E-01 0.  0.
         14    1    1    2    0    0  0.41320111268E-02  0.88086771295E-02 -0.18449707441E-01  0.20858044332E-01  0.00000000000E+00 0.  1.
     999901    1    3    3    0    0 -0.35399405169E-01 -0.90892451321E-01 -0.80787358127E-01  0.88906757495E+00  0.88000000000E+00 0.  1.
        -11    1    4    4    0    0 -0.28149752391E-02  0.51098451480E-02  0.59423757502E-02  0.83431141422E-02  0.51100000000E-03 0. -1.
         11    1    4    4    0    0  0.34082369282E-01  0.76973929044E-01  0.93294689818E-01  0.12566126658E+00  0.51100000000E-03 0.  1.
</event>
<event>
 8    1  0.1115874E+005  0.1043930E+01  0.7957747E-01            NaN
         13   -1    0    0    0    0  0.00000000000E+00  0.00000000000E+00  0.74505805969E-08  0.10566000000E+00  0.10566000000E+00 0.  1.
     999900   -1    0    0    0    0 -0.00000000000E+00 -0.00000000000E+00 -0.74505805969E-08  0.93827000000E+00  0.93827000000E+00 0. -1.
     999902    2    1    2    0    0 -0.22128072104E-01 -0.39604882795E-02 -0.61888080645E-02  0.10206139457E+01  0.10203475819E+01 0.  0.
     999903    2    3    3    0    0 -0.10702174316E+00  0.70703235448E-01 -0.27595934258E-01  0.13312317275E+00  0.22530923735E-01 0.  0.
         14    1    1    2    0    0  0.22128072104E-01  0.39604882795E-02  0.61888080645E-02  0.23316054291E-01  0.00000000000E+00 0.  1.
     999901    1    3    3    0    0  0.84893671059E-01 -0.74663723728E-01  0.21407126194E-01  0.88749077295E+00  0.88000000000E+00 0.  1.
        -11    1    4    4    0    0 -0.50691882096E-01  0.21777863546E-01 -0.17180703660E-01  0.57787368432E-01  0.51100000000E-03 0.  1.
         11    1    4    4    0    0 -0.56329861067E-01  0.48925371902E-01 -0.10415230598E-01  0.75335804323E-01  0.51100000000E-03 0. -1.
</event>
<event>
 8    1  0.1115874E+005  0.1043930E+01  0.7957747E-01            NaN
         13   -1    0    0    0    0  0.00000000000E+00  0.00000000000E+00  0.74505805969E-08  0.10566000000E+00  0.10566000000E+00 0.  1.
     999900   -1    0    0    0    0 -0.00000000000E+00 -0.00000000000E+00 -0.74505805969E-08  0.93827000000E+00  0.93827000000E+00 0.  1.
     999902    2    1    2    0    0 -0.41050079913E-02  0.10310631148E-01  0.20587994657E-01  0.10205414188E+01  0.10202733760E+01 0.  0.
     999903    2    3    3    0    0  0.19562370411E-01  0.12761965874E+00  0.22217997547E-01  0.13243995522E+00  0.19422633449E-01 0.  0.
         14    1    1    2    0    0  0.41050079913E-02 -0.10310631148E-01 -0.20587994657E-01  0.23388581173E-01  0.00000000000E+00 0. -1.
     999901    1    3    3    0    0 -0.23667378402E-01 -0.11730902759E+00 -0.16300028896E-02  0.88810146361E+00  0.88000000000E+00 0.  1.
        -11    1    4    4    0    0 -0.48446820725E-03  0.47623832732E-01  0.13524539656E-01  0.49512003064E-01  0.51100000000E-03 0. -1.
         11    1    4    4    0    0  0.20046838618E-01  0.79995826008E-01  0.86934578910E-02  0.82927952154E-01  0.51100000000E-03 0.  1.
</event>
<event>
 8    1  0.1115874E+005  0.1043930E+01  0.7957747E-01            NaN
         13   -1    0    0    0    0  0.00000000000E+00  0.00000000000E+00  0.74505805969E-08  0.10566000000E+00  0.10566000000E+00 0. -1.
     999900   -1    0    0    0    0 -0.00000000000E+00 -0.00000000000E+00 -0.74505805969E-08  0.93827000000E+00  0.93827000000E+00 0. -1.
     999902    2    1    2    0    0  0.74277246634E-02  0.21748077934E-01 -0.50800168003E-02  0.10203937183E+01  0.10201222396E+01 0.  0.
     999903    2    3    3    0    0 -0.63272868587E-01 -0.86947581819E-01  0.66372389532E-01  0.12802677204E+00  0.20548050597E-01 0.  0.
         14    1    1    2    0    0 -0.74277246634E-02 -0.21748077934E-01  0.50800168003E-02  0.23536281741E-01  0.00000000000E+00 0. -1.
     999901    1    3    3    0    0  0.70700593250E-01  0.10869565975E+00 -0.71452406332E-01  0.89236694622E+00  0.88000000000E+00 0. -1.
        -11    1    4    4    0    0 -0.52826122923E-01 -0.64832595256E-01  0.42357573868E-01  0.93745879140E-01  0.51100000000E-03 0.  1.
         11    1    4    4    0    0 -0.10446745664E-01 -0.22114986563E-01  0.24014815664E-01  0.34280892900E-01  0.51100000000E-03 0. -1.
</event>
<event>
 8    1  0.1115874E+005  0.1043930E+01  0.7957747E-01            NaN
         13   -1    0    0    0    0  0.00000000000E+00  0.00000000000E+00  0.74505805969E-08  0.10566000000E+00  0.10566000000E+00 0.  1.
     999900   -1    0    0    0    0 -0.00000000000E+00 -0.00000000000E+00 -0.74505805969E-08  0.93827000000E+00  0.93827000000E+00 0. -1.
     999902    2    1    2    0    0  0.96061069953E-02  0.26081786736E-01  0.10987938194E-01  0.10140423491E+01  0.10136018025E+01 0.  0.
     999903    2    3    3    0    0  0.48849505898E-01 -0.24944310941E-01 -0.10912660033E+00  0.12355304014E+00  0.18661349157E-01 0.  0.
         14    1    1    2    0    0 -0.96061069953E-02 -0.26081786736E-01 -0.10987938194E-01  0.29887650906E-01  0.00000000000E+00 0.  1.
     999901    1    3    3    0    0 -0.39243398902E-01  0.51026097676E-01  0.12011453853E+00  0.89048930896E+00  0.88000000000E+00 0.  1.
        -11    1    4    4    0    0  0.15073990615E-01 -0.12325203200E-01 -0.56453672254E-01  0.59719461308E-01  0.51100000000E-03 0.  1.
         11    1    4    4    0    0  0.33775515283E-01 -0.12619107741E-01 -0.52672928078E-01  0.63833578829E-01  0.51100000000E-03 0. -1.
</event>
<event>
 8    1  0.1115874E+005  0.1043930E+01  0.7957747E-01            NaN
         13   -1    0    0    0    0  0.00000000000E+00  0.00000000000E+00  0.74505805969E-08  0.10566000000E+00  0.10566000000E+00 0. -1.
     999900   -1    0    0    0    0 -0.00000000000E+00 -0.00000000000E+00 -0.74505805969E-08  0.93827000000E+00  0.93827000000E+00 0. -1.
     999902    2    1    2    0    0  0.21938556672E-01 -0.51770120296E-02  0.65432306871E-02  0.10204584089E+01  0.10201884378E+01 0.  0.
     999903    2    3    3    0    0 -0.55505170955E-01  0.11161189822E+00 -0.25550569171E-01  0.12879300498E+00  0.19919003949E-01 0.  0.
         14    1    1    2    0    0 -0.21938556672E-01  0.51770120296E-02 -0.65432306871E-02  0.23471591131E-01  0.00000000000E+00 0.  1.
     999901    1    3    3    0    0  0.77443727627E-01 -0.11678891025E+00  0.32093799858E-01  0.89166540389E+00  0.88000000000E+00 0.  1.
        -11    1    4    4    0    0 -0.56581284701E-02  0.29661974929E-01 -0.38215320659E-02  0.30441951363E-01  0.51100000000E-03 0.  1.
         11    1    4    4    0    0 -0.49847042485E-01  0.81949923295E-01 -0.21729037105E-01  0.98351053614E-01  0.51100000000E-03 0. -1.
</event>
<event>
 8    1  0.1115874E+005  0.1043930E+01  0.7957747E-01            NaN
         13   -1    0    0    0    0  0.00000000000E+00  0.00000000000E+00  0.74505805969E-08  0.10566000000E+00  0.10566000000E+00 0. -1.
     999900   -1    0    0    0    0 -0.00000000000E+00 -0.00000000000E+00 -0.74505805969E-08  0.93827000000E+00  0.93827000000E+00 0. -1.
     999902    2    1    2    0    0 -0.22922876452E-01 -0.96009208203E-02  0.21274464493E-01  0.10112154958E+01  0.10106861729E+01 0.  0.
     999903    2    3    3    0    0  0.76613991601E-01  0.52042218561E-01  0.76470449399E-01  0.12174708069E+00  0.19912955662E-01 0.  0.
         14    1    1    2    0    0  0.22922876452E-01  0.96009208203E-02 -0.21274464493E-01  0.32714504198E-01  0.00000000000E+00 0. -1.
     999901    1    3    3    0    0 -0.99536868053E-01 -0.61643139382E-01 -0.55195984906E-01  0.88946841511E+00  0.88000000000E+00 0. -1.
        -11    1    4    4    0    0  0.43176997710E-01  0.17470213923E-01  0.35545770129E-01  0.58593723220E-01  0.51100000000E-03 0.  1.
         11    1    4    4    0    0  0.33436993890E-01  0.34572004639E-01  0.40924679271E-01  0.63153357469E-01  0.51100000000E-03 0. -1.
</event>
<event>
 8    1  0.1115874E+005  0.1043930E+01  0.7957747E-01            NaN
         13   -1    0    0    0    0  0.00000000000E+00  0.00000000000E+00  0.74505805969E-08  0.10566000000E+00  0.10566000000E+00 0.  1.
     999900   -1    0    0    0    0 -0.00000000000E+00 -0.00000000000E+00 -0.74505805969E-08  0.93827000000E+00  0.93827000000E+00 0. -1.
     999902    2    1    2    0    0 -0.11654563074E-01 -0.12142089504E-01  0.16600586181E-01  0.10202902318E+01  0.10200163325E+01 0.  0.
     999903    2    3    3    0    0  0.89314259077E-01 -0.78227133128E-01  0.51821843604E-01  0.13135689742E+00  0.21739590455E-01 0.  0.
         14    1    1    2    0    0  0.11654563074E-01  0.12142089504E-01 -0.16600586181E-01  0.23639768178E-01  0.00000000000E+00 0.  1.
     999901    1    3    3    0    0 -0.10096882215E+00  0.66085043625E-01 -0.35221257423E-01  0.88893333440E+00  0.88000000000E+00 0. -1.
        -11    1    4    4    0    0  0.50968736784E-01 -0.40714745373E-01  0.39674986206E-01  0.76353574059E-01  0.51100000000E-03 0.  1.
         11    1    4    4    0    0  0.38345522293E-01 -0.37512387756E-01  0.12146857398E-01  0.55003323360E-01  0.51100000000E-03 0. -1.
</event>
<event>
 8    1  0.1115874E+005  0.1043930E+01  0.7957747E-01            NaN
         13   -1    0    0    0    0  0.00000000000E+00  0.00000000000E+00  0.74505805969E-08  0.10566000000E+00  0.10566000000E+00 0. -1.
     999900   -1    0    0    0    0 -0.00000000000E+00 -0.00000000000E+00 -0.74505805969E-08  0.93827000000E+00  0.93827000000E+00 0.  1.
     999902    2    1    2    0    0  0.84851241728E-02  0.18944985327E-01  0.11545727482E-01  0.10201768186E+01  0.10199002538E+01 0.  0.
     999903    2    3    3    0    0 -0.12540725155E+00 -0.20815474153E-01 -0.37629223092E-02  0.12903013197E+00  0.21779638810E-01 0.  0.
         14    1    1    2    0    0 -0.84851241728E-02 -0.18944985327E-01 -0.11545727482E-01  0.23753181353E-01  0.00000000000E+00 0.  1.
     999901    1    3    3    0    0  0.13389237572E+00  0.39760459480E-01  0.15308649791E-01  0.89114668668E+00  0.88000000000E+00 0.  1.
        -11    1    4    4    0    0 -0.34974233093E-01  0.32601223165E-02  0.26287707870E-02  0.35227786402E-01  0.51100000000E-03 0. -1.
         11    1    4    4    0    0 -0.90433018457E-01 -0.24075596469E-01 -0.63916930962E-02  0.93802345569E-01  0.51100000000E-03 0.  1.
</event>
<event>
 8    1  0.1115874E+005  0.1043930E+01  0.7957747E-01            NaN
         13   -1    0    0    0    0  0.00000000000E+00  0.00000000000E+00  0.74505805969E-08  0.10566000000E+00  0.10566000000E+00 0.  1.
     999900   -1    0    0    0    0 -0.00000000000E+00 -0.00000000000E+00 -0.74505805969E-08  0.93827000000E+00  0.93827000000E+00 0.  1.
     999902    2    1    2    0    0 -0.14274758123E-01 -0.48223554209E-02 -0.18325425288E-01  0.10202056445E+01  0.10199297584E+01 0.  0.
     999903    2    3    3    0    0  0.59339177878E-01 -0.42103476318E-01  0.10328526576E+00  0.12801841432E+00  0.20664644455E-01 0.  0.
         14    1    1    2    0    0  0.14274758123E-01  0.48223554209E-02  0.18325425288E-01  0.23724355487E-01  0.00000000000E+00 0.  1.
     999901    1    3    3    0    0 -0.73613936001E-01  0.37281120897E-01 -0.12161069105E+00  0.89218723020E+00  0.88000000000E+00 0.  1.
        -11    1    4    4    0    0  0.21405248608E-01 -0.21676109292E-01  0.28560911823E-01  0.41761527596E-01  0.51100000000E-03 0. -1.
         11    1    4    4    0    0  0.37933929270E-01 -0.20427367026E-01  0.74724353942E-01  0.86256886719E-01  0.51100000000E-03 0.  1.
</event>
<event>
 8    1  0.1115874E+005  0.1043930E+01  0.7957747E-01            NaN
         13   -1    0    0    0    0  0.00000000000E+00  0.00000000000E+00  0.74505805969E-08  0.10566000000E+00  0.10566000000E+00 0. -1.
     999900   -1    0    0    0    0 -0.00000000000E+00 -0.00000000000E+00 -0.74505805969E-08  0.93827000000E+00  0.93827000000E+00 0. -1.
     999902    2    1    2    0    0  0.15366463746E-01  0.10378266868E-01 -0.14386359100E-01  0.10204607870E+01  0.10201908713E+01 0.  0.
     999903    2    3    3    0    0 -0.10245150365E+00  0.73901063210E-01  0.21809159194E-01  0.12960370830E+00  0.19073647742E-01 0.  0.
         14    1    1    2    0    0 -0.15366463746E-01 -0.10378266868E-01  0.14386359100E-01  0.23469213012E-01  0.00000000000E+00 0. -1.
     999901    1    3    3    0    0  0.11781796739E+00 -0.63522796341E-01 -0.36195518295E-01  0.89085707868E+00  0.88000000000E+00 0. -1.
        -11    1    4    4    0    0 -0.40475222858E-01  0.22664068316E-01  0.42192454919E-03  0.46393348655E-01  0.51100000000E-03 0.  1.
         11    1    4    4    0    0 -0.61976280789E-01  0.51236994894E-01  0.21387234645E-01  0.83210359649E-01  0.51100000000E-03 0. -1.
</event>
<event>
 8    1  0.1115874E+005  0.1043930E+01  0.7957747E-01            NaN
         13   -1    0    0    0    0  0.00000000000E+00  0.00000000000E+00  0.74505805969E-08  0.10566000000E+00  0.10566000000E+00 0. -1.
     999900   -1    0    0    0    0 -0.00000000000E+00 -0.00000000000E+00 -0.74505805969E-08  0.93827000000E+00  0.93827000000E+00 0.  1.
     999902    2    1    2    0    0 -0.23462551812E-01  0.67922649002E-02 -0.32711638590E-02  0.10192860005E+01  0.10189880392E+01 0.  0.
     999903    2    3    3    0    0  0.89430538546E-01  0.62224075369E-02  0.88366921842E-01  0.12735398885E+00  0.19333546521E-01 0.  0.
         14    1    1    2    0    0  0.23462551812E-01 -0.67922649002E-02  0.32711638590E-02  0.24643999533E-01  0.00000000000E+00 0. -1.
     999901    1    3    3    0    0 -0.11289309036E+00  0.56985736328E-03 -0.91638085701E-01  0.89193201161E+00  0.88000000000E+00 0.  1.
        -11    1    4    4    0    0  0.58451599748E-01 -0.51146859251E-02  0.54782938743E-01  0.80275656481E-01  0.51100000000E-03 0. -1.
         11    1    4    4    0    0  0.30978938799E-01  0.11337093462E-01  0.33583983098E-01  0.47078332373E-01  0.51100000000E-03 0.  1.
</event>
<event>
 8    1  0.1115874E+005  0.1043930E+01  0.7957747E-01            NaN
         13   -1    0    0    0    0  0.00000000000E+00  0.00000000000E+00  0.74505805969E-08  0.10566000000E+00  0.10566000000E+00 0. -1.
     999900   -1    0    0    0    0 -0.00000000000E+00 -0.00000000000E+00 -0.74505805969E-08  0.93827000000E+00  0.93827000000E+00 0. -1.
     999902    2    1    2    0    0 -0.15785335135E-01  0.17390083402E-01 -0.15356213885E-02  0.10203938589E+01  0.10201223835E+01 0.  0.
     999903    2    3    3    0    0 -0.87403204694E-01  0.98120128129E-01  0.15800276939E-01  0.13363177537E+00  0.18464097691E-01 0.  0.
         14    1    1    2    0    0  0.15785335135E-01 -0.17390083402E-01  0.15356213885E-02  0.23536141126E-01  0.00000000000E+00 0.  1.
     999901    1    3    3    0    0  0.71617869558E-01 -0.80730044726E-01 -0.17335898328E-01  0.88676208350E+00  0.88000000000E+00 0. -1.
        -11    1    4    4    0    0 -0.49340607446E-01  0.64563929250E-01  0.16325803680E-01  0.82884193247E-01  0.51100000000E-03 0.  1.
         11    1    4    4    0    0 -0.38062597247E-01  0.33556198879E-01 -0.52552674093E-03  0.50747582127E-01  0.51100000000E-03 0. -1.
</event>
<event>
 8    1  0.1115874E+005  0.1043930E+01  0.7957747E-01            NaN
         13   -1    0    0    0    0  0.00000000000E+00  0.00000000000E+00  0.74505805969E-08  0.10566000000E+00  0.10566000000E+00 0.  1.
     999900   -1    0    0    0    0 -0.00000000000E+00 -0.00000000000E+00 -0.74505805969E-08  0.93827000000E+00  0.93827000000E+00 0.  1.
     999902    2    1    2    0    0  0.11117698277E-01 -0.20481023624E-01  0.15581714668E-02  0.10205739849E+01  0.10203066966E+01 0.  0.
     999903    2    3    3    0    0  0.11067214476E+00 -0.52257690304E-01 -0.47889303656E-01  0.13301221399E+00  0.20485942595E-01 0.  0.
         14    1    1    2    0    0 -0.11117698277E-01  0.20481023624E-01 -0.15581714668E-02  0.23356015114E-01  0.00000000000E+00 0. -1.
     999901    1    3    3    0    0 -0.99554446484E-01  0.31776666680E-01  0.49447475123E-01  0.88756177090E+00  0.88000000000E+00 0.  1.
        -11    1    4    4    0    0  0.21356062717E-01 -0.10897617147E-01 -0.10435760511E-02  0.24003950638E-01  0.51100000000E-03 0.  1.
         11    1    4    4    0    0  0.89316082044E-01 -0.41360073158E-01 -0.46845727605E-01  0.10900826335E+00  0.51100000000E-03 0. -1.
</event>
<event>
 8    1  0.1115874E+005  0.1043930E+01  0.7957747E-01            NaN
         13   -1    0    0    0    0  0.00000000000E+00  0.00000000000E+00  0.74505805969E-08  0.10566000000E+00  0.10566000000E+00 0. -1.
     999900   -1    0    0    0    0 -0.00000000000E+00 -0.00000000000E+00 -0.74505805969E-08  0.93827000000E+00  0.93827000000E+00 0.  1.
     999902    2    1    2    0    0 -0.17613990541E-01 -0.13762659166E-01 -0.14099576051E-01  0.10175015779E+01  0.10171582962E+01 0.  0.
     999903    2    3    3    0    0  0.10444313859E+00 -0.35827643875E-01  0.57123164737E-01  0.12595377484E+00  0.20231366329E-01 0.  0.
         14    1    1    2    0    0  0.17613990541E-01  0.13762659166E-01  0.14099576051E-01  0.26428422104E-01  0.00000000000E+00 0. -1.
     999901    1    3    3    0    0 -0.12205712913E+00  0.22064984709E-01 -0.71222740788E-01  0.89154780305E+00  0.88000000000E+00 0.  1.
        -11    1    4    4    0    0  0.57852049174E-01 -0.10848423460E-01  0.36158072744E-01  0.69081221984E-01  0.51100000000E-03 0. -1.
         11    1    4    4    0    0  0.46591089417E-01 -0.24979220415E-01  0.20965091993E-01  0.56872552860E-01  0.51100000000E-03 0.  1.
</event>
<event>
 8    1  0.1115874E+005  0.1043930E+01  0.7957747E-01            NaN
         13   -1    0    0    0    0  0.00000000000E+00  0.00000000000E+00  0.74505805969E-08  0.10566000000E+00  0.10566000000E+00 0. -1.
     999900   -1    0    0    0    0 -0.00000000000E+00 -0.00000000000E+00 -0.74505805969E-08  0.93827000000E+00  0.93827000000E+00 0.  1.
     999902    2    1    2    0    0  0.18880915318E-01  0.10298130542E-01 -0.82962712320E-02  0.10208785668E+01  0.10206182830E+01 0.  0.
     999903    2    3    3    0    0  0.97495717177E-01  0.81643540842E-01 -0.37073906319E-01  0.13403099990E+00  0.20463425328E-01 0.  0.
         14    1    1    2    0    0 -0.18880915318E-01 -0.10298130542E-01  0.82962712320E-02  0.23051433193E-01  0.00000000000E+00 0. -1.
     999901    1    3    3    0    0 -0.78614801859E-01 -0.71345410300E-01  0.28777635087E-01  0.88684756690E+00  0.88000000000E+00 0. -1.
        -11    1    4    4    0    0  0.27850131302E-01  0.34742605954E-01 -0.84921406383E-02  0.45332726100E-01  0.51100000000E-03 0. -1.
         11    1    4    4    0    0  0.69645585875E-01  0.46900934888E-01 -0.28581765680E-01  0.88698273803E-01  0.51100000000E-03 0.  1.
</event>
<event>
 8    1  0.1115874E+005  0.1043930E+01  0.7957747E-01            NaN
         13   -1    0    0    0    0  0.00000000000E+00  0.00000000000E+00  0.74505805969E-08  0.10566000000E+00  0.10566000000E+00 0. -1.
     999900   -1    0    0    0    0 -0.00000000000E+00 -0.00000000000E+00 -0.74505805969E-08  0.93827000000E+00  0.93827000000E+00 0. -1.
     999902    2    1    2    0    0 -0.10776919612E-01  0.16876994119E-01 -0.14372438361E-01  0.10192816347E+01  0.10189835666E+01 0.  0.
     999903    2    3    3    0    0 -0.77383619501E-01  0.61307684948E-01 -0.86182426124E-01  0.13273371548E+00  0.21070639562E-01 0.  0.
         14    1    1    2    0    0  0.10776919612E-01 -0.16876994119E-01  0.14372438361E-01  0.24648365286E-01  0.00000000000E+00 0.  1.
     999901    1    3    3    0    0  0.66606699889E-01 -0.44430690829E-01  0.71809987763E-01  0.88654791924E+00  0.88000000000E+00 0.  1.
        -11    1    4    4    0    0 -0.12826024718E-01  0.73982160279E-02 -0.44861322101E-02  0.15479890622E-01  0.51100000000E-03 0. -1.
         11    1    4    4    0    0 -0.64557594784E-01  0.53909468920E-01 -0.81696293914E-01  0.11725382486E+00  0.51100000000E-03 0.  1.
</event>
<event>
 8    1  0.1115874E+005  0.1043930E+01  0.7957747E-01            NaN
         13   -1    0    0    0    0  0.00000000000E+00  0.00000000000E+00  0.74505805969E-08  0.10566000000E+00  0.10566000000E+00 0. -1.
     999900   -1    0    0    0    0 -0.00000000000E+00 -0.00000000000E+00 -0.74505805969E-08  0.93827000000E+00  0.93827000000E+00 0.  1.
     999902    2    1    2    0    0  0.20195377010E-01 -0.51010591805E-02 -0.15827091702E-01  0.10177695167E+01  0.10174332500E+01 0.  0.
     999903    2    3    3    0    0  0.11768149178E+00 -0.50856436482E-01 -0.19463945503E-01  0.13119728393E+00  0.19964255450E-01 0.  0.
         14    1    1    2    0    0 -0.20195377010E-01  0.51010591805E-02  0.15827091702E-01  0.26160483350E-01  0.00000000000E+00 0.  1.
     999901    1    3    3    0    0 -0.97486114774E-01  0.45755377302E-01  0.36368538005E-02  0.88657223272E+00  0.88000000000E+00 0.  1.
        -11    1    4    4    0    0  0.47215039142E-01 -0.12310837416E-01 -0.13630244609E-01  0.50664201643E-01  0.51100000000E-03 0. -1.
         11    1    4    4    0    0  0.70466452642E-01 -0.38545599066E-01 -0.58337008935E-02  0.80533082286E-01  0.51100000000E-03 0.  1.
</event>
<event>
 8    1  0.1115874E+005  0.1043930E+01  0.7957747E-01            NaN
         13   -1    0    0    0    0  0.00000000000E+00  0.00000000000E+00  0.74505805969E-08  0.10566000000E+00  0.10566000000E+00 0. -1.
     999900   -1    0    0    0    0 -0.00000000000E+00 -0.00000000000E+00 -0.74505805969E-08  0.93827000000E+00  0.93827000000E+00 0.  1.
     999902    2    1    2    0    0  0.43883102953E-02  0.66471918288E-02  0.22194689040E-01  0.10203493586E+01  0.10200768437E+01 0.  0.
     999903    2    3    3    0    0 -0.92821533192E-01 -0.63663494390E-01 -0.58729272163E-01  0.12852985122E+00  0.20047885304E-01 0.  0.
         14    1    1    2    0    0 -0.43883102953E-02 -0.66471918288E-02 -0.22194689040E-01  0.23580641383E-01  0.00000000000E+00 0.  1.
     999901    1    3    3    0    0  0.97209843487E-01  0.70310686218E-01  0.80923961204E-01  0.89181950739E+00  0.88000000000E+00 0. -1.
        -11    1    4    4    0    0 -0.57342942465E-01 -0.49119584793E-01 -0.44397271481E-01  0.87591811813E-01  0.51100000000E-03 0.  1.
         11    1    4    4    0    0 -0.35478590727E-01 -0.14543909596E-01 -0.14332000682E-01  0.40938039412E-01  0.51100000000E-03 0. -1.
</event>
<event>
 8    1  0.1115874E+005  0.1043930E+01  0.7957747E-01            NaN
         13   -1    0    0    0    0  0.00000000000E+00  0.00000000000E+00  0.74505805969E-08  0.10566000000E+00  0.10566000000E+00 0.  1.
     999900   -1    0    0    0    0 -0.00000000000E+00 -0.00000000000E+00 -0.74505805969E-08  0.93827000000E+00  0.93827000000E+00 0. -1.
     999902    2    1    2    0    0  0.63403820136E-02 -0.22557521909E-01 -0.31674374434E-02  0.10202852353E+01  0.10200112188E+01 0.  0.
     999903    2    3    3    0    0 -0.42667397017E-01 -0.11037606799E+00  0.56029541045E-01  0.13258137604E+00  0.20859737570E-01 0.  0.
         14    1    1    2    0    0 -0.63403820136E-02  0.22557521909E-01  0.31674374434E-02  0.23644764721E-01  0.00000000000E+00 0.  1.
     999901    1    3    3    0    0  0.49007779030E-01  0.87818546076E-01 -0.59196978488E-01  0.88770385924E+00  0.88000000000E+00 0. -1.
        -11    1    4    4    0    0 -0.30258759421E-01 -0.75614848989E-01  0.48862394217E-01  0.94978906073E-01  0.51100000000E-03 0. -1.
         11    1    4    4    0    0 -0.12408637596E-01 -0.34761218997E-01  0.71671468282E-02  0.37602469969E-01  0.51100000000E-03 0.  1.
</event>
<event>
 8    1  0.1115874E+005  0.1043930E+01  0.7957747E-01            NaN
         13   -1    0    0    0    0  0.00000000000E+00  0.00000000000E+00  0.74505805969E-08  0.10566000000E+00  0.10566000000E+00 0. -1.
     999900   -1    0    0    0    0 -0.00000000000E+00 -0.00000000000E+00 -0.74505805969E-08  0.93827000000E+00  0.93827000000E+00 0.  1.
     999902    2    1    2    0    0  0.51808984976E-02  0.89353582193E-02 -0.21256829062E-01  0.10202966524E+01  0.10200229036E+01 0.  0.
     999903    2    3    3    0    0 -0.37168795742E-01  0.10997205938E+00  0.55528910723E-01  0.13018544510E+00  0.19733650644E-01 0.  0.
         14    1    1    2    0    0 -0.51808984976E-02 -0.89353582193E-02  0.21256829062E-01  0.23633347573E-01  0.00000000000E+00 0. -1.
     999901    1    3    3    0    0  0.42349694239E-01 -0.10103670116E+00 -0.76785739785E-01  0.89011120733E+00  0.88000000000E+00 0.  1.
        -11    1    4    4    0    0 -0.15413286759E-01  0.37498013266E-01  0.29581860941E-01  0.50189819937E-01  0.51100000000E-03 0. -1.
         11    1    4    4    0    0 -0.21755508982E-01  0.72474046112E-01  0.25947049782E-01  0.79995625158E-01  0.51100000000E-03 0.  1.
</event>
<event>
 8    1  0.1115874E+005  0.1043930E+01  0.7957747E-01            NaN
         13   -1    0    0    0    0  0.00000000000E+00  0.00000000000E+00  0.74505805969E-08  0.10566000000E+00  0.10566000000E+00 0.  1.
     999900   -1    0    0    0    0 -0.00000000000E+00 -0.00000000000E+00 -0.74505805969E-08  0.93827000000E+00  0.93827000000E+00 0.  1.
     999902    2    1    2    0    0 -0.10761165490E-01 -0.18206239271E-01  0.10703000424E-01  0.10202271721E+01  0.10199517923E+01 0.  0.
     999903    2    3    3    0    0 -0.83920007132E-01  0.88182422551E-01  0.41941039406E-01  0.13025718468E+00  0.19727547506E-01 0.  0.
         14    1    1    2    0    0  0.10761165490E-01  0.18206239271E-01 -0.10703000424E-01  0.23702827873E-01  0.00000000000E+00 0. -1.
     999901    1    3    3    0    0  0.73158841642E-01 -0.10638866182E+00 -0.31238038982E-01  0.88996998745E+00  0.88000000000E+00 0.  1.
        -11    1    4    4    0    0 -0.48396075693E-01  0.50738384381E-01  0.13790453835E-01  0.71463287988E-01  0.51100000000E-03 0.  1.
         11    1    4    4    0    0 -0.35523931438E-01  0.37444038170E-01  0.28150585571E-01  0.58793896693E-01  0.51100000000E-03 0. -1.
</event>
<event>
 8    1  0.1115874E+005  0.1043930E+01  0.7957747E-01            NaN
         13   -1    0    0    0    0  0.00000000000E+00  0.00000000000E+00  0.74505805969E-08  0.10566000000E+00  0.10566000000E+00 0.  1.
     999900   -1    0    0    0    0 -0.00000000000E+00 -0.00000000000E+00 -0.74505805969E-08  0.93827000000E+00  0.93827000000E+00 0.  1.
     999902    2    1    2    0    0 -0.20825730666E-01  0.40030818206E-02 -0.98411301190E-02  0.10205508733E+01  0.10202830497E+01 0.  0.
     999903    2    3    3    0    0 -0.11387059051E+00  0.23834902728E-01 -0.63554803146E-01  0.13379509763E+00  0.18091466937E-01 0.  0.
         14    1    1    2    0    0  0.20825730666E-01 -0.40030818206E-02  0.98411301190E-02  0.23379126670E-01  0.00000000000E+00 0. -1.
     999901    1    3    3    0    0  0.93044859845E-01 -0.19831820907E-01  0.53713673027E-01  0.88675577570E+00  0.88000000000E+00 0.  1.
        -11    1    4    4    0    0 -0.85408541527E-01  0.15234435333E-01 -0.38529477736E-01  0.94928861582E-01  0.51100000000E-03 0.  1.
         11    1    4    4    0    0 -0.28462048985E-01  0.86004673943E-02 -0.25025325410E-01  0.38866236050E-01  0.51100000000E-03 0. -1.
</event>
<event>
 8    1  0.1115874E+005  0.1043930E+01  0.7957747E-01            NaN
         13   -1    0    0    0    0  0.00000000000E+00  0.00000000000E+00  0.74505805969E-08  0.10566000000E+00  0.10566000000E+00 0.  1.
     999900   -1    0    0    0    0 -0.00000000000E+00 -0.00000000000E+00 -0.74505805969E-08  0.93827000000E+00  0.93827000000E+00 0.  1.
     999902    2    1    2    0    0  0.88194472815E-02  0.17864034408E-01 -0.16269691445E-01  0.10182082342E+01  0.10178832934E+01 0.  0.
     999903    2    3    3    0    0  0.18646248205E-01  0.83081322230E-01 -0.99204055206E-01  0.13185166412E+00  0.17123903948E-01 0.  0.
         14    1    1    2    0    0 -0.88194472815E-02 -0.17864034408E-01  0.16269691445E-01  0.25721765791E-01  0.00000000000E+00 0.  1.
     999901    1    3    3    0    0 -0.98268009239E-02 -0.65217287821E-01  0.82934363762E-01  0.88635657009E+00  0.88000000000E+00 0.  1.
        -11    1    4    4    0    0  0.64099569204E-02  0.46761004342E-01 -0.65991281616E-01  0.81134391259E-01  0.51100000000E-03 0. -1.
         11    1    4    4    0    0  0.12236291285E-01  0.36320317888E-01 -0.33212773591E-01  0.50717272861E-01  0.51100000000E-03 0.  1.
</event>
<event>
 8    1  0.1115874E+005  0.1043930E+01  0.7957747E-01            NaN
         13   -1    0    0    0    0  0.00000000000E+00  0.00000000000E+00  0.74505805969E-08  0.10566000000E+00  0.10566000000E+00 0. -1.
     999900   -1    0    0    0    0 -0.00000000000E+00 -0.00000000000E+00 -0.74505805969E-08  0.93827000000E+00  0.93827000000E+00 0.  1.
     999902    2    1    2    0    0  0.19079592741E-01  0.12007626600E-01  0.64039875062E-02  0.10204944498E+01  0.10202253168E+01 0.  0.
     999903    2    3    3    0    0  0.11373434327E+00 -0.59621443910E-01 -0.23503909752E-01  0.13202119314E+00  0.19670898590E-01 0.  0.
         14    1    1    2    0    0 -0.19079592741E-01 -0.12007626600E-01 -0.64039875062E-02  0.23435550169E-01  0.00000000000E+00 0. -1.
     999901    1    3    3    0    0 -0.94654750528E-01  0.71629070510E-01  0.29907897258E-01  0.88847325669E+00  0.88000000000E+00 0.  1.
        -11    1    4    4    0    0  0.10536304748E+00 -0.53613690610E-01 -0.16075299546E-01  0.11930832314E+00  0.51100000000E-03 0. -1.
         11    1    4    4    0    0  0.83712957901E-02 -0.60077532994E-02 -0.74286102055E-02  0.12712869995E-01  0.51100000000E-03 0.  1.
</event>
<event>
 8    1  0.1115874E+005  0.1043930E+01  0.7957747E-01            NaN
         13   -1    0    0    0    0  0.00000000000E+00  0.00000000000E+00  0.74505805969E-08  0.10566000000E+00  0.10566000000E+00 0.  1.
     999900   -1    0    0    0    0 -0.00000000000E+00 -0.00000000000E+00 -0.74505805969E-08  0.93827000000E+00  0.93827000000E+00 0. -1.
     999902    2    1    2    0    0 -0.16228787958E-01  0.13807681676E-01 -0.99512962515E-02  0.10204129013E+01  0.10201418702E+01 0.  0.
     999903    2    3    3    0    0 -0.93512276806E-02 -0.10054139436E+00  0.76925378138E-01  0.12874560433E+00  0.21491844788E-01 0.  0.
         14    1    1    2    0    0  0.16228787958E-01 -0.13807681676E-01  0.99512962515E-02  0.23517098650E-01  0.00000000000E+00 0.  1.
     999901    1    3    3    0    0 -0.68775602772E-02  0.11434907604E+00 -0.86876674390E-01  0.89166729702E+00  0.88000000000E+00 0. -1.
        -11    1    4    4    0    0 -0.78014434156E-02 -0.14516225390E-01  0.18292497046E-01  0.24626406318E-01  0.51100000000E-03 0. -1.
         11    1    4    4    0    0 -0.15497842650E-02 -0.86025168973E-01  0.58632881092E-01  0.10411919801E+00  0.51100000000E-03 0.  1.
</event>
<event>
 8    1  0.1115874E+005  0.1043930E+01  0.7957747E-01            NaN
         13   -1    0    0    0    0  0.00000000000E+00  0.00000000000E+00  0.74505805969E-08  0.10566000000E+00  0.10566000000E+00 0. -1.
     999900   -1    0    0    0    0 -0.00000000000E+00 -0.00000000000E+00 -0.74505805969E-08  0.93827000000E+00  0.93827000000E+00 0.  1.
     999902    2    1    2    0    0 -0.22428326786E-01 -0.77894271854E-02 -0.21275105662E-02  0.10200923969E+01  0.10198138394E+01 0.  0.
     999903    2    3    3    0    0  0.12378808937E+00 -0.13516984097E-01 -0.19329377808E-01  0.12784358103E+00  0.21544290084E-01 0.  0.
         14    1    1    2    0    0  0.22428326786E-01  0.77894271854E-02  0.21275105662E-02  0.23837603057E-01  0.00000000000E+00 0. -1.
     999901    1    3    3    0    0 -0.14621641616E+00  0.57275569117E-02  0.17201867242E-01  0.89224881591E+00  0.88000000000E+00 0.  1.
        -11    1    4    4    0    0  0.61670982907E-01 -0.17445103131E-01 -0.11366557890E-01  0.65093022017E-01  0.51100000000E-03 0.  1.
         11    1    4    4    0    0  0.62117106462E-01  0.39281190343E-02 -0.79628199187E-02  0.62750559013E-01  0.51100000000E-03 0. -1.
</event>
<event>
 8    1  0.1115874E+005  0.1043930E+01  0.7957747E-01            NaN
         13   -1    0    0    0    0  0.00000000000E+00  0.00000000000E+00  0.74505805969E-08  0.10566000000E+00  0.10566000000E+00 0.  1.
     999900   -1    0    0    0    0 -0.00000000000E+00 -0.00000000000E+00 -0.74505805969E-08  0.93827000000E+00  0.93827000000E+00 0. -1.
     999902    2    1    2    0    0 -0.10128044839E-01 -0.12024586828E-01  0.17135758083E-01  0.10206748460E+01  0.10204098878E+01 0.  0.
     999903    2    3    3    0    0  0.11559945619E+00  0.41206098396E-01 -0.33152473011E-01  0.12872764102E+00  0.20261842933E-01 0.  0.
         14    1    1    2    0    0  0.10128044839E-01  0.12024586828E-01 -0.17135758083E-01  0.23255153960E-01  0.00000000000E+00 0. -1.
     999901    1    3    3    0    0 -0.12572750103E+00 -0.53230685223E-01  0.50288231094E-01  0.89194720502E+00  0.88000000000E+00 0. -1.
        -11    1    4    4    0    0  0.90349657773E-01  0.29786235120E-01 -0.16980802499E-01  0.96637928563E-01  0.51100000000E-03 0.  1.
         11    1    4    4    0    0  0.25249798413E-01  0.11419863276E-01 -0.16171670513E-01  0.32089712453E-01  0.51100000000E-03 0. -1.
</event>
<event>
 8    1  0.1115874E+005  0.1043930E+01  0.7957747E-01            NaN
         13   -1    0    0    0    0  0.00000000000E+00  0.00000000000E+00  0.74505805969E-08  0.10566000000E+00  0.10566000000E+00 0. -1.
     999900   -1    0    0    0    0 -0.00000000000E+00 -0.00000000000E+00 -0.74505805969E-08  0.93827000000E+00  0.93827000000E+00 0.  1.
     999902    2    1    2    0    0  0.59255323244E-03 -0.24820305159E-01 -0.21012659676E-02  0.10190138609E+01  0.10187092003E+01 0.  0.
     999903    2    3    3    0    0 -0.13018740637E-01  0.79670177442E-02  0.12650235047E+00  0.12895815142E+00  0.19859485534E-01 0.  0.
         14    1    1    2    0    0 -0.59255323244E-03  0.24820305159E-01  0.21012659676E-02  0.24916139070E-01  0.00000000000E+00 0. -1.
     999901    1    3    3    0    0  0.13611293870E-01 -0.32787322903E-01 -0.12860361643E+00  0.89005570951E+00  0.88000000000E+00 0.  1.
        -11    1    4    4    0    0 -0.12787560921E-01 -0.19524646756E-02  0.96235169659E-01  0.97102022805E-01  0.51100000000E-03 0. -1.
         11    1    4    4    0    0 -0.23117971658E-03  0.99194824198E-02  0.30267180808E-01  0.31856128619E-01  0.51100000000E-03 0.  1.
</event>
<event>
 8    1  0.1115874E+005  0.1043930E+01  0.7957747E-01            NaN
         13   -1    0    0    0    0  0.00000000000E+00  0.00000000000E+00  0.74505805969E-08  0.10566000000E+00  0.10566000000E+00 0.  1.
     999900   -1    0    0    0    0 -0.00000000000E+00 -0.00000000000E+00 -0.74505805969E-08  0.93827000000E+00  0.93827000000E+00 0.  1.
     999902    2    1    2    0    0  0.31860388643E-02  0.75373942541E-03 -0.22283938209E-01  0.10214068371E+01  0.10211584764E+01 0.  0.
     999903    2    3    3    0    0 -0.11020771798E+00  0.39564044970E-01  0.54207822094E-01  0.12999482609E+00  0.15783284763E-01 0.  0.
         14    1    1    2    0    0 -0.31860388643E-02 -0.75373942541E-03  0.22283938209E-01  0.22523162941E-01  0.00000000000E+00 0.  1.
     999901    1    3    3    0    0  0.11339375684E+00 -0.38810305545E-01 -0.76491760303E-01  0.89141201097E+00  0.88000000000E+00 0.  1.
        -11    1    4    4    0    0 -0.23308687150E-01  0.89799006215E-02  0.18931540672E-01  0.31346417101E-01  0.51100000000E-03 0. -1.
         11    1    4    4    0    0 -0.86899030825E-01  0.30584144348E-01  0.35276281422E-01  0.98648408988E-01  0.51100000000E-03 0.  1.
</event>
<event>
 8    1  0.1115874E+005  0.1043930E+01  0.7957747E-01            NaN
         13   -1    0    0    0    0  0.00000000000E+00  0.00000000000E+00  0.74505805969E-08  0.10566000000E+00  0.10566000000E+00 0.  1.
     999900   -1    0    0    0    0 -0.00000000000E+00 -0.00000000000E+00 -0.74505805969E-08  0.93827000000E+00  0.93827000000E+00 0.  1.
     999902    2    1    2    0    0 -0.34613166262E-02  0.23105058814E-01  0.16269492703E-02  0.10205105333E+01  0.10202417739E+01 0.  0.
     999903    2    3    3    0    0 -0.11146303640E+00 -0.40123529676E-01 -0.49422001861E-01  0.13019136511E+00  0.21756634963E-01 0.  0.
         14    1    1    2    0    0  0.34613166262E-02 -0.23105058814E-01 -0.16269492703E-02  0.23419466678E-01  0.00000000000E+00 0.  1.
     999901    1    3    3    0    0  0.10800171977E+00  0.63228588489E-01  0.51048951131E-01  0.89031916821E+00  0.88000000000E+00 0.  1.
        -11    1    4    4    0    0 -0.25949488353E-02 -0.28562433249E-02 -0.60983212887E-02  0.72348136762E-02  0.51100000000E-03 0. -1.
         11    1    4    4    0    0 -0.10886808756E+00 -0.37267286351E-01 -0.43323680572E-01  0.12295655143E+00  0.51100000000E-03 0.  1.
</event>
<event>
 8    1  0.1115874E+005  0.1043930E+01  0.7957747E-01            NaN
         13   -1    0    0    0    0  0.00000000000E+00  0.00000000000E+00  0.74505805969E-08  0.10566000000E+00  0.10566000000E+00 0.  1.
     999900   -1    0    0    0    0 -0.00000000000E+00 -0.00000000000E+00 -0.74505805969E-08  0.93827000000E+00  0.93827000000E+00 0.  1.
     999902    2    1    2    0    0 -0.20343596114E-02  0.13257142060E-01  0.20100434435E-01  0.10197656068E+01  0.10194792665E+01 0.  0.
     999903    2    3    3    0    0  0.18494711849E-01  0.11617901833E+00 -0.52964640352E-01  0.13052274877E+00  0.19781712580E-01 0.  0.
         14    1    1    2    0    0  0.20343596114E-02 -0.13257142060E-01 -0.20100434435E-01  0.24164393208E-01  0.00000000000E+00 0. -1.
     999901    1    3    3    0    0 -0.20529071461E-01 -0.10292187627E+00  0.73065074786E-01  0.88924285802E+00  0.88000000000E+00 0. -1.
        -11    1    4    4    0    0  0.20784976995E-01  0.73835441270E-01 -0.37498564304E-01  0.85382030323E-01  0.51100000000E-03 0. -1.
         11    1    4    4    0    0 -0.22902651455E-02  0.42343577060E-01 -0.15466076047E-01  0.45140718447E-01  0.51100000000E-03 0.  1.
</event>
<event>
 8    1  0.1115874E+005  0.1043930E+01  0.7957747E-01            NaN
         13   -1    0    0    0    0  0.00000000000E+00  0.00000000000E+00  0.74505805969E-08  0.10566000000E+00  0.10566000000E+00 0. -1.
     999900   -1    0    0    0    0 -0.00000000000E+00 -0.00000000000E+00 -0.74505805969E-08  0.93827000000E+00  0.93827000000E+00 0.  1.
     999902    2    1    2    0    0 -0.27756998475E-02 -0.35675402417E-02 -0.23148757373E-01  0.10203440546E+01  0.10200714156E+01 0.  0.
     999903    2    3    3    0    0 -0.45395619245E-01 -0.45003945771E-01  0.10938336832E+00  0.12843699801E+00  0.21100327272E-01 0.  0.
         14    1    1    2    0    0  0.27756998475E-02  0.35675402417E-02  0.23148757373E-01  0.23585945411E-01  0.00000000000E+00 0. -1.
     999901    1    3    3    0    0  0.42619919398E-01  0.41436405530E-01 -0.13253212569E+00  0.89190705658E+00  0.88000000000E+00 0.  1.
        -11    1    4    4    0    0  0.12024484547E-02 -0.50518349887E-02  0.43995087488E-02  0.68252265362E-02  0.51100000000E-03 0.  1.
         11    1    4    4    0    0 -0.46598067700E-01 -0.39952110783E-01  0.10498385957E+00  0.12161177147E+00  0.51100000000E-03 0. -1.
</event>
<event>
 8    1  0.1115874E+005  0.1043930E+01  0.7957747E-01            NaN
         13   -1    0    0    0    0  0.00000000000E+00  0.00000000000E+00  0.74505805969E-08  0.10566000000E+00  0.10566000000E+00 0.  1.
     999900   -1    0    0    0    0 -0.00000000000E+00 -0.00000000000E+00 -0.74505805969E-08  0.93827000000E+00  0.93827000000E+00 0. -1.
     999902    2    1    2    0    0  0.18733325815E-01 -0.80230724474E-02 -0.12586595139E-01  0.10199773474E+01  0.10196960624E+01 0.  0.
     999903    2    3    3    0    0  0.91004791097E-01 -0.53471542944E-01  0.75766605659E-01  0.13144202667E+00  0.19883408508E-01 0.  0.
         14    1    1    2    0    0 -0.18733325815E-01  0.80230724474E-02  0.12586595139E-01  0.23952652562E-01  0.00000000000E+00 0. -1.
     999901    1    3    3    0    0 -0.72271465282E-01  0.45448470497E-01 -0.88353200798E-01  0.88853532077E+00  0.88000000000E+00 0. -1.
        -11    1    4    4    0    0  0.71327115368E-01 -0.33765448637E-01  0.49497626479E-01  0.93155456397E-01  0.51100000000E-03 0.  1.
         11    1    4    4    0    0  0.19677675729E-01 -0.19706094307E-01  0.26268979181E-01  0.38286570271E-01  0.51100000000E-03 0. -1.
</event>
<event>
 8    1  0.1115874E+005  0.1043930E+01  0.7957747E-01            NaN
         13   -1    0    0    0    0  0.00000000000E+00  0.00000000000E+00  0.74505805969E-08  0.10566000000E+00  0.10566000000E+00 0. -1.
     999900   -1    0    0    0    0 -0.00000000000E+00 -0.00000000000E+00 -0.74505805969E-08  0.93827000000E+00  0.93827000000E+00 0. -1.
     999902    2    1    2    0    0 -0.47575010179E-03  0.20039076295E-01 -0.14621986391E-01  0.10191188452E+01  0.10188167780E+01 0.  0.
     999903    2    3    3    0    0 -0.66675440305E-01  0.42803743234E-01 -0.10315152116E+00  0.13191080444E+00  0.21964727094E-01 0.  0.
         14    1    1    2    0    0  0.47575010179E-03 -0.20039076295E-01  0.14621986391E-01  0.24811154809E-01  0.00000000000E+00 0. -1.
     999901    1    3    3    0    0  0.66199690204E-01 -0.22764666939E-01  0.88529534768E-01  0.88720804075E+00  0.88000000000E+00 0.  1.
        -11    1    4    4    0    0 -0.28590098622E-01  0.10525034733E-01 -0.26219475350E-01  0.40198160455E-01  0.51100000000E-03 0.  1.
         11    1    4    4    0    0 -0.38085341683E-01  0.32278708501E-01 -0.76932045809E-01  0.91712643987E-01  0.51100000000E-03 0. -1.
</event>
<event>
 8    1  0.1115874E+005  0.1043930E+01  0.7957747E-01            NaN
         13   -1    0    0    0    0  0.00000000000E+00  0.00000000000E+00  0.74505805969E-08  0.10566000000E+00  0.10566000000E+00 0. -1.
     999900   -1    0    0    0    0 -0.00000000000E+00 -0.00000000000E+00 -0.74505805969E-08  0.93827000000E+00  0.93827000000E+00 0. -1.
     999902    2    1    2    0    0 -0.11440044669E-01  0.11522884445E-01 -0.17009985272E-01  0.10204142375E+01  0.10201432375E+01 0.  0.
     999903    2    3    3    0    0  0.35640728428E-01 -0.10641128834E-01  0.12094139554E+00  0.12814834317E+00  0.20289937324E-01 0.  0.
         14    1    1    2    0    0  0.11440044669E-01 -0.11522884445E-01  0.17009985272E-01  0.23515762521E-01  0.00000000000E+00 0. -1.
     999901    1    3    3    0    0 -0.47080773097E-01  0.22164013279E-01 -0.13795138081E+00  0.89226589431E+00  0.88000000000E+00 0. -1.
        -11    1    4    4    0    0  0.20320140280E-01  0.32969720762E-02  0.46059747702E-01  0.50453340873E-01  0.51100000000E-03 0.  1.
         11    1    4    4    0    0  0.15320588148E-01 -0.13938100910E-01  0.74881647837E-01  0.77695002297E-01  0.51100000000E-03 0. -1.
</event>
<event>
 8    1  0.1115874E+005  0.1043930E+01  0.7957747E-01            NaN
         13   -1    0    0    0    0  0.00000000000E+00  0.00000000000E+00  0.74505805969E-08  0.10566000000E+00  0.10566000000E+00 0. -1.
     999900   -1    0    0    0    0 -0.00000000000E+00 -0.00000000000E+00 -0.74505805969E-08  0.93827000000E+00  0.93827000000E+00 0.  1.
     999902    2    1    2    0    0  0.66113689712E-02 -0.22834816485E-01  0.18268777827E-02  0.10200872542E+01  0.10198085750E+01 0.  0.
     999903    2    3    3    0    0 -0.45764460313E-01 -0.11596797119E+00 -0.40396758234E-01  0.13261903089E+00  0.20321247723E-01 0.  0.
         14    1    1    2    0    0 -0.66113689712E-02  0.22834816485E-01 -0.18268777827E-02  0.23842745773E-01  0.00000000000E+00 0. -1.
     999901    1    3    3    0    0  0.52375829284E-01  0.93133154702E-01  0.42223636017E-01  0.88746822334E+00  0.88000000000E+00 0. -1.
        -11    1    4    4    0    0 -0.36504938188E-02 -0.29850561526E-01 -0.53535233386E-02  0.30550015739E-01  0.51100000000E-03 0.  1.
         11    1    4    4    0    0 -0.42113966494E-01 -0.86117409661E-01 -0.35043234895E-01  0.10206901515E+00  0.51100000000E-03 0. -1.
</event>
<event>
 8    1  0.1115874E+005  0.1043930E+01  0.7957747E-01            NaN
         13   -1    0    0    0    0  0.00000000000E+00  0.00000000000E+00  0.74505805969E-08  0.10566000000E+00  0.10566000000E+00 0.  1.
     999900   -1    0    0    0    0 -0.00000000000E+00 -0.00000000000E+00 -0.74505805969E-08  0.93827000000E+00  0.93827000000E+00 0. -1.
     999902    2    1    2    0    0 -0.60113873033E-02  0.13373354417E-01  0.18838949500E-01  0.10200576435E+01  0.10197782635E+01 0.  0.
     999903    2    3    3    0    0  0.22596108865E-01  0.84373656619E-01  0.98349042527E-01  0.13316346345E+00  0.20747909884E-01 0.  0.
         14    1    1    2    0    0  0.60113873033E-02 -0.13373354417E-01 -0.18838949500E-01  0.23872356481E-01  0.00000000000E+00 0. -1.
     999901    1    3    3    0    0 -0.28607496169E-01 -0.71000302202E-01 -0.79510093027E-01  0.88689418007E+00  0.88000000000E+00 0. -1.
        -11    1    4    4    0    0  0.10612654407E-01  0.64194631946E-01  0.61890944620E-01  0.89801611072E-01  0.51100000000E-03 0. -1.
         11    1    4    4    0    0  0.11983454458E-01  0.20179024673E-01  0.36458097907E-01  0.43361852376E-01  0.51100000000E-03 0.  1.
</event>
<event>
 8    1  0.1115874E+005  0.1043930E+01  0.7957747E-01            NaN
         13   -1    0    0    0    0  0.00000000000E+00  0.00000000000E+00  0.74505805969E-08  0.10566000000E+00  0.10566000000E+00 0.  1.
     999900   -1    0    0    0    0 -0.00000000000E+00 -0.00000000000E+00 -0.74505805969E-08  0.93827000000E+00  0.93827000000E+00 0.  1.
     999902    2    1    2    0    0  0.29487042986E-02  0.22840744674E-01  0.61792895375E-02  0.10200851244E+01  0.10198063948E+01 0.  0.
     999903    2    3    3    0    0  0.96199428319E-01  0.27407348684E-01  0.83556233498E-01  0.13177000976E+00  0.19395838334E-01 0.  0.
         14    1    1    2    0    0 -0.29487042986E-02 -0.22840744674E-01 -0.61792895375E-02  0.23844875623E-01  0.00000000000E+00 0.  1.
     999901    1    3    3    0    0 -0.93250724020E-01 -0.45666040107E-02 -0.77376943960E-01  0.88831511462E+00  0.88000000000E+00 0.  1.
        -11    1    4    4    0    0  0.32885715975E-01  0.15155824551E-03  0.29251987899E-01  0.44016283374E-01  0.51100000000E-03 0. -1.
         11    1    4    4    0    0  0.63313712344E-01  0.27255790439E-01  0.54304245599E-01  0.87753726384E-01  0.51100000000E-03 0.  1.
</event>
<event>
 8    1  0.1115874E+005  0.1043930E+01  0.7957747E-01            NaN
         13   -1    0    0    0    0  0.00000000000E+00  0.00000000000E+00  0.74505805969E-08  0.10566000000E+00  0.10566000000E+00 0.  1.
     999900   -1    0    0    0    0 -0.00000000000E+00 -0.00000000000E+00 -0.74505805969E-08  0.93827000000E+00  0.93827000000E+00 0. -1.
     999902    2    1    2    0    0  0.18478898308E-01  0.14320880160E-01  0.26766865734E-02  0.10203987029E+01  0.10201273406E+01 0.  0.
     999903    2    3    3    0    0 -0.99368790608E-01 -0.71506334330E-01  0.31500886573E-01  0.12793849482E+00  0.19713959691E-01 0.  0.
         14    1    1    2    0    0 -0.18478898308E-01 -0.14320880160E-01 -0.26766865734E-02  0.23531297079E-01  0.00000000000E+00 0.  1.
     999901    1    3    3    0    0  0.11784768892E+00  0.85827214490E-01 -0.28824200000E-01  0.89246020810E+00  0.88000000000E+00 0.  1.
        -11    1    4    4    0    0 -0.16456334856E-01 -0.13055656937E-01 -0.19926113634E-02  0.21106699315E-01  0.51100000000E-03 0. -1.
         11    1    4    4    0    0 -0.82912455752E-01 -0.58450677394E-01  0.33493497937E-01  0.10683179551E+00  0.51100000000E-03 0.  1.
</event>
<event>
 8    1  0.1115874E+005  0.1043930E+01  0.7957747E-01            NaN
         13   -1    0    0    0    0  0.00000000000E+00  0.00000000000E+00  0.74505805969E-08  0.10566000000E+00  0.10566000000E+00 0. -1.
     999900   -1    0    0    0    0 -0.00000000000E+00 -0.00000000000E+00 -0.74505805969E-08  0.93827000000E+00  0.93827000000E+00 0. -1.
     999902    2    1    2    0    0  0.12231318702E-01 -0.19741419749E-01 -0.51427744645E-02  0.10201439339E+01  0.10198665937E+01 0.  0.
     999903    2    3    3    0    0  0.81779764806E-03 -0.77162746025E-01 -0.10421939818E+00  0.13265102997E+00  0.27925877408E-01 0.  0.
         14    1    1    2    0    0 -0.12231318702E-01  0.19741419749E-01  0.51427744645E-02  0.23786066091E-01  0.00000000000E+00 0. -1.
     999901    1    3    3    0    0  0.11413521054E-01  0.57421326276E-01  0.99076623712E-01  0.88749290394E+00  0.88000000000E+00 0.  1.
        -11    1    4    4    0    0  0.29853360338E-03 -0.36212147464E-01 -0.26762467306E-01  0.45032205404E-01  0.51100000000E-03 0.  1.
         11    1    4    4    0    0  0.51926404467E-03 -0.40950598562E-01 -0.77456930870E-01  0.87618824567E-01  0.51100000000E-03 0. -1.
</event>
<event>
 8    1  0.1115874E+005  0.1043930E+01  0.7957747E-01            NaN
         13   -1    0    0    0    0  0.00000000000E+00  0.00000000000E+00  0.74505805969E-08  0.10566000000E+00  0.10566000000E+00 0. -1.
     999900   -1    0    0    0    0 -0.00000000000E+00 -0.00000000000E+00 -0.74505805969E-08  0.93827000000E+00  0.93827000000E+00 0. -1.
     999902    2    1    2    0    0 -0.33694872974E-02  0.15181845413E-01  0.18775986880E-01  0.10195500993E+01  0.10192585665E+01 0.  0.
     999903    2    3    3    0    0  0.31041229032E-01  0.85267330210E-01  0.94722032541E-01  0.13283488322E+00  0.20946771837E-01 0.  0.
         14    1    1    2    0    0  0.33694872974E-02 -0.15181845413E-01 -0.18775986880E-01  0.24379900699E-01  0.00000000000E+00 0.  1.
     999901    1    3    3    0    0 -0.34410716330E-01 -0.70085484797E-01 -0.75946045661E-01  0.88671521608E+00  0.88000000000E+00 0. -1.
        -11    1    4    4    0    0  0.24715225574E-01  0.37336160096E-01  0.45717910936E-01  0.63993903829E-01  0.51100000000E-03 0.  1.
         11    1    4    4    0    0  0.63260034583E-02  0.47931170114E-01  0.49004121605E-01  0.68840979391E-01  0.51100000000E-03 0. -1.
</event>
<event>
 8    1  0.1115874E+005  0.1043930E+01  0.7957747E-01            NaN
         13   -1    0    0    0    0  0.00000000000E+00  0.00000000000E+00  0.74505805969E-08  0.10566000000E+00  0.10566000000E+00 0.  1.
     999900   -1    0    0    0    0 -0.00000000000E+00 -0.00000000000E+00 -0.74505805969E-08  0.93827000000E+00  0.93827000000E+00 0. -1.
     999902    2    1    2    0    0 -0.83728552134E-02  0.20888493277E-01 -0.49244819036E-02  0.10208934122E+01  0.10206334674E+01 0.  0.
     999903    2    3    3    0    0  0.82244104272E-01  0.98443924956E-01  0.25630976625E-01  0.13232157245E+00  0.19918647689E-01 0.  0.
         14    1    1    2    0    0  0.83728552134E-02 -0.20888493277E-01  0.49244819036E-02  0.23036587808E-01  0.00000000000E+00 0.  1.
     999901    1    3    3    0    0 -0.90616959485E-01 -0.77555431680E-01 -0.30555458529E-01  0.88857183974E+00  0.88000000000E+00 0. -1.
        -11    1    4    4    0    0  0.13746656054E-01  0.18441532588E-01 -0.29395795875E-02  0.23194027809E-01  0.51100000000E-03 0.  1.
         11    1    4    4    0    0  0.68497448218E-01  0.80002392369E-01  0.28570556212E-01  0.10912754465E+00  0.51100000000E-03 0. -1.
</event>
<event>
 8    1  0.1115874E+005  0.1043930E+01  0.7957747E-01            NaN
         13   -1    0    0    0    0  0.00000000000E+00  0.00000000000E+00  0.74505805969E-08  0.10566000000E+00  0.10566000000E+00 0. -1.
     999900   -1    0    0    0    0 -0.00000000000E+00 -0.00000000000E+00 -0.74505805969E-08  0.93827000000E+00  0.93827000000E+00 0. -1.
     999902    2    1    2    0    0  0.44424059659E-02  0.83479272696E-02 -0.20559363039E-01  0.10213001465E+01  0.10210494009E+01 0.  0.
     999903    2    3    3    0    0  0.12002585367E+00 -0.47845349731E-01  0.13208994176E-01  0.13132401216E+00  0.19394215660E-01 0.  0.
         14    1    1    2    0    0 -0.44424059659E-02 -0.83479272696E-02  0.20559363039E-01  0.22629853491E-01  0.00000000000E+00 0. -1.
     999901    1    3    3    0    0 -0.11558344771E+00  0.56193277001E-01 -0.33768357215E-01  0.88997613435E+00  0.88000000000E+00 0. -1.
        -11    1    4    4    0    0  0.90436842492E-01 -0.31787672427E-01  0.21540007049E-02  0.95886283890E-01  0.51100000000E-03 0.  1.
         11    1    4    4    0    0  0.29589011183E-01 -0.16057677304E-01  0.11054993472E-01  0.35437728269E-01  0.51100000000E-03 0. -1.
</event>
<event>
 8    1  0.1115874E+005  0.1043930E+01  0.7957747E-01            NaN
         13   -1    0    0    0    0  0.00000000000E+00  0.00000000000E+00  0.74505805969E-08  0.10566000000E+00  0.10566000000E+00 0. -1.
     999900   -1    0    0    0    0 -0.00000000000E+00 -0.00000000000E+00 -0.74505805969E-08  0.93827000000E+00  0.93827000000E+00 0.  1.
     999902    2    1    2    0    0 -0.21523138413E-02 -0.24299251261E-01 -0.59327488402E-04  0.10195355419E+01  0.10192436566E+01 0.  0.
     999903    2    3    3    0    0 -0.11620922060E+00 -0.54163098710E-01 -0.21224914884E-01  0.13142022874E+00  0.19559020797E-01 0.  0.
         14    1    1    2    0    0  0.21523138413E-02  0.24299251261E-01  0.59327488402E-04  0.24394458110E-01  0.00000000000E+00 0. -1.
     999901    1    3    3    0    0  0.11405690676E+00  0.29863847449E-01  0.21165587396E-01  0.88811531315E+00  0.88000000000E+00 0.  1.
        -11    1    4    4    0    0 -0.67951149273E-01 -0.25981992329E-01 -0.20285451627E-01  0.75526043731E-01  0.51100000000E-03 0.  1.
         11    1    4    4    0    0 -0.48258071331E-01 -0.28181106380E-01 -0.93946325658E-03  0.55894185007E-01  0.51100000000E-03 0. -1.
</event>
<event>
 8    1  0.1115874E+005  0.1043930E+01  0.7957747E-01            NaN
         13   -1    0    0    0    0  0.00000000000E+00  0.00000000000E+00  0.74505805969E-08  0.10566000000E+00  0.10566000000E+00 0.  1.
     999900   -1    0    0    0    0 -0.00000000000E+00 -0.00000000000E+00 -0.74505805969E-08  0.93827000000E+00  0.93827000000E+00 0.  1.
     999902    2    1    2    0    0  0.22880300726E-01  0.30488112191E-02 -0.11135808609E-01  0.10183017023E+01  0.10179791487E+01 0.  0.
     999903    2    3    3    0    0  0.13589845827E-01 -0.38643790501E-01 -0.12204532083E+00  0.13031211591E+00  0.20202988924E-01 0.  0.
         14    1    1    2    0    0 -0.22880300726E-01 -0.30488112191E-02  0.11135808609E-01  0.25628297730E-01  0.00000000000E+00 0.  1.
     999901    1    3    3    0    0  0.92904548989E-02  0.41692601720E-01  0.11090951222E+00  0.88798958636E+00  0.88000000000E+00 0. -1.
        -11    1    4    4    0    0  0.16644806534E-01 -0.24739643795E-01 -0.97208999026E-01  0.10168062830E+00  0.51100000000E-03 0.  1.
         11    1    4    4    0    0 -0.30549607070E-02 -0.13904146706E-01 -0.24836321804E-01  0.28631487601E-01  0.51100000000E-03 0. -1.
</event>
<event>
 8    1  0.1115874E+005  0.1043930E+01  0.7957747E-01            NaN
         13   -1    0    0    0    0  0.00000000000E+00  0.00000000000E+00  0.74505805969E-08  0.10566000000E+00  0.10566000000E+00 0.  1.
     999900   -1    0    0    0    0 -0.00000000000E+00 -0.00000000000E+00 -0.74505805969E-08  0.93827000000E+00  0.93827000000E+00 0.  1.
     999902    2    1    2    0    0  0.32588063371E-02 -0.46525362658E-02 -0.21928877684E-01  0.10212773713E+01  0.10210261150E+01 0.  0.
     999903    2    3    3    0    0 -0.95245375628E-01  0.78544634325E-01 -0.42616849610E-01  0.13164102126E+00  0.16499134751E-01 0.  0.
         14    1    1    2    0    0 -0.32588063371E-02  0.46525362658E-02  0.21928877684E-01  0.22652628742E-01  0.00000000000E+00 0.  1.
     999901    1    3    3    0    0  0.98504181965E-01 -0.83197170590E-01  0.20687971926E-01  0.88963635000E+00  0.88000000000E+00 0.  1.
        -11    1    4    4    0    0 -0.66536873225E-01  0.44881657229E-01 -0.25755861560E-01  0.84292017297E-01  0.51100000000E-03 0.  1.
         11    1    4    4    0    0 -0.28708502403E-01  0.33662977096E-01 -0.16860988050E-01  0.47349003962E-01  0.51100000000E-03 0. -1.
</event>
<event>
 8    1  0.1115874E+005  0.1043930E+01  0.7957747E-01            NaN
         13   -1    0    0    0    0  0.00000000000E+00  0.00000000000E+00  0.74505805969E-08  0.10566000000E+00  0.10566000000E+00 0.  1.
     999900   -1    0    0    0    0 -0.00000000000E+00 -0.00000000000E+00 -0.74505805969E-08  0.93827000000E+00  0.93827000000E+00 0. -1.
     999902    2    1    2    0    0 -0.18865333562E-01 -0.60360843772E-02 -0.13588717153E-01  0.10199094180E+01  0.10196265162E+01 0.  0.
     999903    2    3    3    0    0  0.10445403975E+00 -0.26932784439E-02  0.70002488126E-01  0.12738136143E+00  0.20193135667E-01 0.  0.
         14    1    1    2    0    0  0.18865333562E-01  0.60360843772E-02  0.13588717153E-01  0.24020581985E-01  0.00000000000E+00 0.  1.
     999901    1    3    3    0    0 -0.12331937331E+00 -0.33428059333E-02 -0.83591205278E-01  0.89252805658E+00  0.88000000000E+00 0. -1.
        -11    1    4    4    0    0  0.62994257898E-01 -0.47467597828E-03  0.53678375777E-01  0.82765518137E-01  0.51100000000E-03 0. -1.
         11    1    4    4    0    0  0.41459781852E-01 -0.22186024656E-02  0.16324112348E-01  0.44615843296E-01  0.51100000000E-03 0.  1.
</event>
<event>
 8    1  0.1115874E+005  0.1043930E+01  0.7957747E-01            NaN
         13   -1    0    0    0    0  0.00000000000E+00  0.00000000000E+00  0.74505805969E-08  0.10566000000E+00  0.10566000000E+00 0.  1.
     999900   -1    0    0    0    0 -0.00000000000E+00 -0.00000000000E+00 -0.74505805969E-08  0.93827000000E+00  0.93827000000E+00 0. -1.
     999902    2    1    2    0    0 -0.13697415566E-01  0.39554070523E-02 -0.19277726140E-01  0.10199530285E+01  0.10196711652E+01 0.  0.
     999903    2    3    3    0    0  0.95613420682E-01 -0.44463571474E-01 -0.73962569407E-01  0.13018694209E+00  0.18953701886E-01 0.  0.
         14    1    1    2    0    0  0.13697415566E-01 -0.39554070523E-02  0.19277726140E-01  0.23976971520E-01  0.00000000000E+00 0.  1.
     999901    1    3    3    0    0 -0.10931083625E+00  0.48418978526E-01  0.54684843267E-01  0.88976608639E+00  0.88000000000E+00 0.  1.
        -11    1    4    4    0    0  0.76927988665E-01 -0.37178856157E-01 -0.50239588810E-01  0.99118414990E-01  0.51100000000E-03 0.  1.
         11    1    4    4    0    0  0.18685432017E-01 -0.72847153169E-02 -0.23722980597E-01  0.31068527103E-01  0.51100000000E-03 0. -1.
</event>
<event>
 8    1  0.1115874E+005  0.1043930E+01  0.7957747E-01            NaN
         13   -1    0    0    0    0  0.00000000000E+00  0.00000000000E+00  0.74505805969E-08  0.10566000000E+00  0.10566000000E+00 0.  1.
     999900   -1    0    0    0    0 -0.00000000000E+00 -0.00000000000E+00 -0.74505805969E-08  0.93827000000E+00  0.93827000000E+00 0. -1.
     999902    2    1    2    0    0  0.22557176927E-01 -0.24479838067E-02 -0.65190912763E-02  0.10203224290E+01  0.10200492840E+01 0.  0.
     999903    2    3    3    0    0  0.45681350401E-03 -0.12931206003E+00  0.64732702969E-04  0.13092585459E+00  0.20487988284E-01 0.  0.
         14    1    1    2    0    0 -0.22557176927E-01  0.24479838067E-02  0.65190912763E-02  0.23607570961E-01  0.00000000000E+00 0.  1.
     999901    1    3    3    0    0  0.22100363423E-01  0.12686407622E+00 -0.65838239793E-02  0.88939657445E+00  0.88000000000E+00 0. -1.
        -11    1    4    4    0    0 -0.82358745583E-02 -0.10020190435E+00  0.12484220838E-03  0.10054117550E+00  0.51100000000E-03 0.  1.
         11    1    4    4    0    0  0.86926880623E-02 -0.29110155677E-01 -0.60109505408E-04  0.30384679091E-01  0.51100000000E-03 0. -1.
</event>
<event>
 8    1  0.1115874E+005  0.1043930E+01  0.7957747E-01            NaN
         13   -1    0    0    0    0  0.00000000000E+00  0.00000000000E+00  0.74505805969E-08  0.10566000000E+00  0.10566000000E+00 0. -1.
     999900   -1    0    0    0    0 -0.00000000000E+00 -0.00000000000E+00 -0.74505805969E-08  0.93827000000E+00  0.93827000000E+00 0. -1.
     999902    2    1    2    0    0 -0.15002576557E-01 -0.27167991053E-02  0.16894190902E-01  0.10211731991E+01  0.10209196005E+01 0.  0.
     999903    2    3    3    0    0  0.89933488173E-01 -0.91389130128E-01  0.14247572108E-01  0.13050975843E+00  0.19743311097E-01 0.  0.
         14    1    1    2    0    0  0.15002576557E-01  0.27167991053E-02 -0.16894190902E-01  0.22756800895E-01  0.00000000000E+00 0.  1.
     999901    1    3    3    0    0 -0.10493606473E+00  0.88672331023E-01  0.26466187937E-02  0.89066344068E+00  0.88000000000E+00 0.  1.
        -11    1    4    4    0    0  0.64567815283E-01 -0.56109668158E-01  0.28730806978E-02  0.85590965323E-01  0.51100000000E-03 0.  1.
         11    1    4    4    0    0  0.25365672891E-01 -0.35279461970E-01  0.11374491411E-01  0.44918793104E-01  0.51100000000E-03 0. -1.
</event>
<event>
 8    1  0.1115874E+005  0.1043930E+01  0.7957747E-01            NaN
         13   -1    0    0    0    0  0.00000000000E+00  0.00000000000E+00  0.74505805969E-08  0.10566000000E+00  0.10566000000E+00 0.  1.
     999900   -1    0    0    0    0 -0.00000000000E+00 -0.00000000000E+00 -0.74505805969E-08  0.93827000000E+00  0.93827000000E+00 0. -1.
     999902    2    1    2    0    0  0.93723403839E-02  0.61880802355E-02 -0.20417280891E-01  0.10206276726E+01  0.10203616259E+01 0.  0.
     999903    2    3    3    0    0  0.84100412932E-01 -0.80371043840E-01 -0.59768129396E-01  0.13235673646E+00  0.20339426044E-01 0.  0.
         14    1    1    2    0    0 -0.93723403839E-02 -0.61880802355E-02  0.20417280891E-01  0.23302327357E-01  0.00000000000E+00 0.  1.
     999901    1    3    3    0    0 -0.74728072548E-01  0.86559124076E-01  0.39350848505E-01  0.88827093618E+00  0.88000000000E+00 0.  1.
        -11    1    4    4    0    0  0.39627193364E-01 -0.27828205388E-01 -0.32463964259E-01  0.58300030578E-01  0.51100000000E-03 0. -1.
         11    1    4    4    0    0  0.44473219569E-01 -0.52542838452E-01 -0.27304165137E-01  0.74056705883E-01  0.51100000000E-03 0.  1.
</event>
<event>
 8    1  0.1206753E+005  0.1043930E+01  0.7957747E-01            NaN
         13   -1    0    0    0    0  0.00000000000E+00  0.00000000000E+00  0.74505805969E-08  0.10566000000E+00  0.10566000000E+00 0. -1.
     999900   -1    0    0    0    0 -0.00000000000E+00 -0.00000000000E+00 -0.74505805969E-08  0.93827000000E+00  0.93827000000E+00 0.  1.
     999902    2    1    2    0    0 -0.55752609058E-02  0.24680460531E-01 -0.13510774003E-02  0.10185916086E+01  0.10182764021E+01 0.  0.
     999903    2    3    3    0    0  0.96737132258E-01 -0.21122763382E-01 -0.78765143905E-01  0.12810932426E+00  0.20094954033E-01 0.  0.
         14    1    1    2    0    0  0.55752609058E-02 -0.24680460531E-01  0.13510774003E-02  0.25338391352E-01  0.00000000000E+00 0.  1.
     999901    1    3    3    0    0 -0.10231239316E+00  0.45803223913E-01  0.77414066505E-01  0.89048228439E+00  0.88000000000E+00 0. -1.
        -11    1    4    4    0    0  0.57223768135E-01 -0.25061935555E-02 -0.47070118491E-01  0.74139718245E-01  0.51100000000E-03 0.  1.
         11    1    4    4    0    0  0.39513364123E-01 -0.18616569826E-01 -0.31695025414E-01  0.53969606015E-01  0.51100000000E-03 0. -1.
</event>
<event>
 8    1  0.1115874E+005  0.1043930E+01  0.7957747E-01            NaN
         13   -1    0    0    0    0  0.00000000000E+00  0.00000000000E+00  0.74505805969E-08  0.10566000000E+00  0.10566000000E+00 0. -1.
     999900   -1    0    0    0    0 -0.00000000000E+00 -0.00000000000E+00 -0.74505805969E-08  0.93827000000E+00  0.93827000000E+00 0. -1.
     999902    2    1    2    0    0  0.13521353182E-01 -0.13626527125E-01  0.13563240308E-01  0.10204253043E+01  0.10201545623E+01 0.  0.
     999903    2    3    3    0    0  0.59179205644E-01  0.61058320229E-02 -0.11371506723E+00  0.12987840879E+00  0.19945550627E-01 0.  0.
         14    1    1    2    0    0 -0.13521353182E-01  0.13626527125E-01 -0.13563240308E-01  0.23504695723E-01  0.00000000000E+00 0.  1.
     999901    1    3    3    0    0 -0.45657852462E-01 -0.19732359148E-01  0.12727830754E+00  0.89054689549E+00  0.88000000000E+00 0.  1.
        -11    1    4    4    0    0  0.44320596930E-02 -0.70629974244E-03 -0.25016265439E-01  0.25420792080E-01  0.51100000000E-03 0. -1.
         11    1    4    4    0    0  0.54747145951E-01  0.68121317654E-02 -0.88698801790E-01  0.10445761671E+00  0.51100000000E-03 0.  1.
</event>
<event>
 8    1  0.1115874E+005  0.1043930E+01  0.7957747E-01            NaN
         13   -1    0    0    0    0  0.00000000000E+00  0.00000000000E+00  0.74505805969E-08  0.10566000000E+00  0.10566000000E+00 0. -1.
     999900   -1    0    0    0    0 -0.00000000000E+00 -0.00000000000E+00 -0.74505805969E-08  0.93827000000E+00  0.93827000000E+00 0.  1.
     999902    2    1    2    0    0  0.77117585740E-02 -0.14884159837E-01  0.16508576206E-01  0.10204025156E+01  0.10201312422E+01 0.  0.
     999903    2    3    3    0    0  0.34126901953E-02 -0.12812472500E+00 -0.24852063925E-01  0.13217247211E+00  0.20599652706E-01 0.  0.
         14    1    1    2    0    0 -0.77117585740E-02  0.14884159837E-01 -0.16508576206E-01  0.23527484411E-01  0.00000000000E+00 0.  1.
     999901    1    3    3    0    0  0.42990683787E-02  0.11324056516E+00  0.41360640132E-01  0.88823004348E+00  0.88000000000E+00 0. -1.
        -11    1    4    4    0    0 -0.45992605964E-02 -0.64884728222E-01 -0.42903057480E-02  0.65190865916E-01  0.51100000000E-03 0. -1.
         11    1    4    4    0    0  0.80119507917E-02 -0.63239996777E-01 -0.20561758177E-01  0.66981606193E-01  0.51100000000E-03 0.  1.
</event>
<event>
 8    1  0.1115874E+005  0.1043930E+01  0.7957747E-01            NaN
         13   -1    0    0    0    0  0.00000000000E+00  0.00000000000E+00  0.74505805969E-08  0.10566000000E+00  0.10566000000E+00 0. -1.
     999900   -1    0    0    0    0 -0.00000000000E+00 -0.00000000000E+00 -0.74505805969E-08  0.93827000000E+00  0.93827000000E+00 0. -1.
     999902    2    1    2    0    0  0.94446141014E-02  0.10306854281E-01 -0.86696679310E-02  0.10274802242E+01  0.10273485368E+01 0.  0.
     999903    2    3    3    0    0 -0.84949484325E-02 -0.13239791675E+00 -0.20061529167E-01  0.13573123821E+00  0.20472702940E-01 0.  0.
         14    1    1    2    0    0 -0.94446141014E-02 -0.10306854281E-01  0.86696679310E-02  0.16449775765E-01  0.00000000000E+00 0.  1.
     999901    1    3    3    0    0  0.17939562534E-01  0.14270477103E+00  0.11391861236E-01  0.89174898603E+00  0.88000000000E+00 0.  1.
        -11    1    4    4    0    0  0.35770417669E-02 -0.78387066427E-02 -0.41584419209E-02  0.95809347060E-02  0.51100000000E-03 0. -1.
         11    1    4    4    0    0 -0.12071990199E-01 -0.12455921010E+00 -0.15903087246E-01  0.12615030350E+00  0.51100000000E-03 0.  1.
</event>
<event>
 8    1  0.1115874E+005  0.1043930E+01  0.7957747E-01            NaN
         13   -1    0    0    0    0  0.00000000000E+00  0.00000000000E+00  0.74505805969E-08  0.10566000000E+00  0.10566000000E+00 0. -1.
     999900   -1    0    0    0    0 -0.00000000000E+00 -0.00000000000E+00 -0.74505805969E-08  0.93827000000E+00  0.93827000000E+00 0.  1.
     999902    2    1    2    0    0 -0.21022889031E-01  0.33387637625E-02  0.11205353111E-01  0.10198744571E+01  0.10195907214E+01 0.  0.
     999903    2    3    3    0    0  0.47534010091E-01  0.77799159278E-01  0.91208113398E-01  0.13046744082E+00  0.19764662047E-01 0.  0.
         14    1    1    2    0    0  0.21022889031E-01 -0.33387637625E-02 -0.11205353111E-01  0.24055542917E-01  0.00000000000E+00 0.  1.
     999901    1    3    3    0    0 -0.68556899122E-01 -0.74460395515E-01 -0.80002760287E-01  0.88940701626E+00  0.88000000000E+00 0.  1.
        -11    1    4    4    0    0  0.49301807712E-02  0.24522184011E-01  0.26431913935E-01  0.36394386743E-01  0.51100000000E-03 0. -1.
         11    1    4    4    0    0  0.42603829320E-01  0.53276975266E-01  0.64776199464E-01  0.94073054081E-01  0.51100000000E-03 0.  1.
</event>
<event>
 8    1  0.1115874E+005  0.1043930E+01  0.7957747E-01            NaN
         13   -1    0    0    0    0  0.00000000000E+00  0.00000000000E+00  0.74505805969E-08  0.10566000000E+00  0.10566000000E+00 0. -1.
     999900   -1    0    0    0    0 -0.00000000000E+00 -0.00000000000E+00 -0.74505805969E-08  0.93827000000E+00  0.93827000000E+00 0.  1.
     999902    2    1    2    0    0 -0.12284749270E-01 -0.43155061491E-02 -0.20990403385E-01  0.10192290751E+01  0.10189297188E+01 0.  0.
     999903    2    3    3    0    0 -0.18795372006E-02 -0.97110292515E-01 -0.86916778942E-01  0.13183658705E+00  0.19809534308E-01 0.  0.
         14    1    1    2    0    0  0.12284749270E-01  0.43155061491E-02  0.20990403385E-01  0.24700924926E-01  0.00000000000E+00 0. -1.
     999901    1    3    3    0    0 -0.10405212069E-01  0.92794786366E-01  0.65926375557E-01  0.88739248803E+00  0.88000000000E+00 0.  1.
        -11    1    4    4    0    0 -0.79266314522E-02 -0.19474748055E-01 -0.22218356981E-01  0.30594342711E-01  0.51100000000E-03 0.  1.
         11    1    4    4    0    0  0.60470942516E-02 -0.77635544460E-01 -0.64698421962E-01  0.10124224433E+00  0.51100000000E-03 0. -1.
</event>
<event>
 8    1  0.1115874E+005  0.1043930E+01  0.7957747E-01            NaN
         13   -1    0    0    0    0  0.00000000000E+00  0.00000000000E+00  0.74505805969E-08  0.10566000000E+00  0.10566000000E+00 0.  1.
     999900   -1    0    0    0    0 -0.00000000000E+00 -0.00000000000E+00 -0.74505805969E-08  0.93827000000E+00  0.93827000000E+00 0.  1.
     999902    2    1    2    0    0  0.15218425918E-01  0.45433472010E-02 -0.19057190749E-01  0.10191223598E+01  0.10188203793E+01 0.  0.
     999903    2    3    3    0    0  0.74340094043E-01 -0.39478372465E-01 -0.10019790529E+00  0.13232074786E+00  0.19600219775E-01 0.  0.
         14    1    1    2    0    0 -0.15218425918E-01 -0.45433472010E-02  0.19057190749E-01  0.24807640163E-01  0.00000000000E+00 0.  1.
     999901    1    3    3    0    0 -0.59121668125E-01  0.44021719666E-01  0.81140714544E-01  0.88680161197E+00  0.88000000000E+00 0. -1.
        -11    1    4    4    0    0  0.67878337879E-01 -0.32463419870E-01 -0.79153167512E-01  0.10921001525E+00  0.51100000000E-03 0. -1.
         11    1    4    4    0    0  0.64617561637E-02 -0.70149525947E-02 -0.21044737780E-01  0.23110732612E-01  0.51100000000E-03 0.  1.
</event>
<event>
 8    1  0.1115874E+005  0.1043930E+01  0.7957747E-01            NaN
         13   -1    0    0    0    0  0.00000000000E+00  0.00000000000E+00  0.74505805969E-08  0.10566000000E+00  0.10566000000E+00 0.  1.
     999900   -1    0    0    0    0 -0.00000000000E+00 -0.00000000000E+00 -0.74505805969E-08  0.93827000000E+00  0.93827000000E+00 0. -1.
     999902    2    1    2    0    0 -0.12602310574E-01 -0.13152435772E-01 -0.17449632619E-01  0.10187051219E+01  0.10183927684E+01 0.  0.
     999903    2    3    3    0    0  0.76636161265E-01 -0.34725754787E-01 -0.97646274556E-01  0.13030182700E+00  0.19099526828E-01 0.  0.
         14    1    1    2    0    0  0.12602310574E-01  0.13152435772E-01  0.17449632619E-01  0.25224878138E-01  0.00000000000E+00 0.  1.
     999901    1    3    3    0    0 -0.89238471839E-01  0.21573319016E-01  0.80196641937E-01  0.88840329487E+00  0.88000000000E+00 0.  1.
        -11    1    4    4    0    0  0.39000903700E-01 -0.74720728769E-02 -0.41972441387E-01  0.57782777014E-01  0.51100000000E-03 0.  1.
         11    1    4    4    0    0  0.37635257565E-01 -0.27253681911E-01 -0.55673833169E-01  0.72519049983E-01  0.51100000000E-03 0. -1.
</event>
<event>
 8    1  0.1115874E+005  0.1043930E+01  0.7957747E-01            NaN
         13   -1    0    0    0    0  0.00000000000E+00  0.00000000000E+00  0.74505805969E-08  0.10566000000E+00  0.10566000000E+00 0. -1.
     999900   -1    0    0    0    0 -0.00000000000E+00 -0.00000000000E+00 -0.74505805969E-08  0.93827000000E+00  0.93827000000E+00 0.  1.
     999902    2    1    2    0    0  0.22247707083E-01  0.11055473271E-01 -0.18247944296E-02  0.10190198849E+01  0.10187153734E+01 0.  0.
     999903    2    3    3    0    0 -0.91297307822E-01 -0.51580006717E-01  0.68298201002E-01  0.12675708266E+00  0.20174692976E-01 0.  0.
         14    1    1    2    0    0 -0.22247707083E-01 -0.11055473271E-01  0.18247944296E-02  0.24910115102E-01  0.00000000000E+00 0. -1.
     999901    1    3    3    0    0  0.11354501491E+00  0.62635479988E-01 -0.70122995432E-01  0.89226280223E+00  0.88000000000E+00 0.  1.
        -11    1    4    4    0    0 -0.42889559881E-01 -0.29704243400E-01  0.23313680657E-01  0.57145824428E-01  0.51100000000E-03 0.  1.
         11    1    4    4    0    0 -0.48407747941E-01 -0.21875763316E-01  0.44984520345E-01  0.69611258235E-01  0.51100000000E-03 0. -1.
</event>
<event>
 8    1  0.1115874E+005  0.1043930E+01  0.7957747E-01            NaN
         13   -1    0    0    0    0  0.00000000000E+00  0.00000000000E+00  0.74505805969E-08  0.10566000000E+00  0.10566000000E+00 0. -1.
     999900   -1    0    0    0    0 -0.00000000000E+00 -0.00000000000E+00 -0.74505805969E-08  0.93827000000E+00  0.93827000000E+00 0. -1.
     999902    2    1    2    0    0 -0.25201000237E-02  0.14589337128E-01  0.18434480373E-01  0.10202861905E+01  0.10200121964E+01 0.  0.
     999903    2    3    3    0    0  0.91697996838E-01  0.51448247128E-01  0.78183440102E-01  0.13247676993E+00  0.19544807735E-01 0.  0.
         14    1    1    2    0    0  0.25201000237E-02 -0.14589337128E-01 -0.18434480373E-01  0.23643809520E-01  0.00000000000E+00 0.  1.
     999901    1    3    3    0    0 -0.94218096861E-01 -0.36858910000E-01 -0.59748959729E-01  0.88780942055E+00  0.88000000000E+00 0. -1.
        -11    1    4    4    0    0  0.81399505554E-01  0.45479507353E-01  0.76154428989E-01  0.12039112621E+00  0.51100000000E-03 0. -1.
         11    1    4    4    0    0  0.10298491284E-01  0.59687397749E-02  0.20290111128E-02  0.12085643728E-01  0.51100000000E-03 0.  1.
</event>
<event>
 8    1  0.1115874E+005  0.1043930E+01  0.7957747E-01            NaN
         13   -1    0    0    0    0  0.00000000000E+00  0.00000000000E+00  0.74505805969E-08  0.10566000000E+00  0.10566000000E+00 0.  1.
     999900   -1    0    0    0    0 -0.00000000000E+00 -0.00000000000E+00 -0.74505805969E-08  0.93827000000E+00  0.93827000000E+00 0. -1.
     999902    2    1    2    0    0  0.15556799748E-01 -0.14708605799E-01 -0.96364245681E-02  0.10204519724E+01  0.10201818515E+01 0.  0.
     999903    2    3    3    0    0  0.78964404712E-01 -0.35675744938E-01  0.96674034268E-01  0.13154137003E+00  0.21192619938E-01 0.  0.
         14    1    1    2    0    0 -0.15556799748E-01  0.14708605799E-01  0.96364245681E-02  0.23478027630E-01  0.00000000000E+00 0. -1.
     999901    1    3    3    0    0 -0.63407604964E-01  0.20967139140E-01 -0.10631045884E+00  0.88891060234E+00  0.88000000000E+00 0. -1.
        -11    1    4    4    0    0  0.30282570782E-01 -0.15848528525E-01  0.53639598425E-01  0.63605641179E-01  0.51100000000E-03 0. -1.
         11    1    4    4    0    0  0.48681833930E-01 -0.19827216413E-01  0.43034435843E-01  0.67935728853E-01  0.51100000000E-03 0.  1.
</event>
<event>
 8    1  0.1115874E+005  0.1043930E+01  0.7957747E-01            NaN
         13   -1    0    0    0    0  0.00000000000E+00  0.00000000000E+00  0.74505805969E-08  0.10566000000E+00  0.10566000000E+00 0.  1.
     999900   -1    0    0    0    0 -0.00000000000E+00 -0.00000000000E+00 -0.74505805969E-08  0.93827000000E+00  0.93827000000E+00 0.  1.
     999902    2    1    2    0    0  0.23498441150E-01  0.24803489998E-02 -0.51316378645E-02  0.10197502032E+01  0.10194634934E+01 0.  0.
     999903    2    3    3    0    0 -0.76490882452E-01 -0.64065436157E-01 -0.78657346528E-01  0.12855312272E+00  0.19588057366E-01 0.  0.
         14    1    1    2    0    0 -0.23498441150E-01 -0.24803489998E-02  0.51316378645E-02  0.24179796832E-01  0.00000000000E+00 0. -1.
     999901    1    3    3    0    0  0.99989323602E-01  0.66545785157E-01  0.73525708663E-01  0.89119708044E+00  0.88000000000E+00 0. -1.
        -11    1    4    4    0    0 -0.36163903061E-01 -0.39699433954E-01 -0.33543578963E-01  0.63319078891E-01  0.51100000000E-03 0. -1.
         11    1    4    4    0    0 -0.40326979391E-01 -0.24366002202E-01 -0.45113767565E-01  0.65234043834E-01  0.51100000000E-03 0.  1.
</event>
<event>
 8    1  0.1115874E+005  0.1043930E+01  0.7957747E-01            NaN
         13   -1    0    0    0    0  0.00000000000E+00  0.00000000000E+00  0.74505805969E-08  0.10566000000E+00  0.10566000000E+00 0.  1.
     999900   -1    0    0    0    0 -0.00000000000E+00 -0.00000000000E+00 -0.74505805969E-08  0.93827000000E+00  0.93827000000E+00 0.  1.
     999902    2    1    2    0    0 -0.18141087598E-01  0.11537614081E-01 -0.73695804459E-02  0.10212027847E+01  0.10209498525E+01 0.  0.
     999903    2    3    3    0    0 -0.13060557526E+00  0.41855938314E-02  0.20114325283E-01  0.13358931127E+00  0.19135896098E-01 0.  0.
         14    1    1    2    0    0  0.18141087598E-01 -0.11537614081E-01  0.73695804459E-02  0.22727215269E-01  0.00000000000E+00 0.  1.
     999901    1    3    3    0    0  0.11246448767E+00  0.73520202496E-02 -0.27483905729E-01  0.88761347346E+00  0.88000000000E+00 0.  1.
        -11    1    4    4    0    0 -0.25035488645E-01 -0.45119286693E-02 -0.14594022659E-02  0.25485764026E-01  0.51100000000E-03 0. -1.
         11    1    4    4    0    0 -0.10557008662E+00  0.86975225007E-02  0.21573727549E-01  0.10810354725E+00  0.51100000000E-03 0.  1.
</event>
<event>
 8    1  0.1115874E+005  0.1043930E+01  0.7957747E-01            NaN
         13   -1    0    0    0    0  0.00000000000E+00  0.00000000000E+00  0.74505805969E-08  0.10566000000E+00  0.10566000000E+00 0. -1.
     999900   -1    0    0    0    0 -0.00000000000E+00 -0.00000000000E+00 -0.74505805969E-08  0.93827000000E+00  0.93827000000E+00 0. -1.
     999902    2    1    2    0    0  0.18101611815E-02 -0.21638146970E-01  0.67635674918E-02  0.10211872664E+01  0.10209339847E+01 0.  0.
     999903    2    3    3    0    0  0.45484252672E-01  0.85708449738E-01  0.84382664358E-01  0.13020160863E+00  0.20427169380E-01 0.  0.
         14    1    1    2    0    0 -0.18101611815E-02  0.21638146970E-01 -0.67635674918E-02  0.22742733631E-01  0.00000000000E+00 0.  1.
     999901    1    3    3    0    0 -0.43674091491E-01 -0.10734659671E+00 -0.77619096867E-01  0.89098565774E+00  0.88000000000E+00 0. -1.
        -11    1    4    4    0    0  0.44046745027E-01  0.77071201656E-01  0.68765414515E-01  0.11228993377E+00  0.51100000000E-03 0.  1.
         11    1    4    4    0    0  0.14375076450E-02  0.86372480818E-02  0.15617249843E-01  0.17911674861E-01  0.51100000000E-03 0. -1.
</event>
<event>
 8    1  0.1115874E+005  0.1043930E+01  0.7957747E-01            NaN
         13   -1    0    0    0    0  0.00000000000E+00  0.00000000000E+00  0.74505805969E-08  0.10566000000E+00  0.10566000000E+00 0. -1.
     999900   -1    0    0    0    0 -0.00000000000E+00 -0.00000000000E+00 -0.74505805969E-08  0.93827000000E+00  0.93827000000E+00 0.  1.
     999902    2    1    2    0    0 -0.34054509853E-02 -0.20977176148E-01  0.10534338952E-01  0.10202105710E+01  0.10199348008E+01 0.  0.
     999903    2    3    3    0    0  0.54073027193E-01  0.11414431668E+00  0.53145988342E-02  0.12802850495E+00  0.20254278989E-01 0.  0.
         14    1    1    2    0    0  0.34054509853E-02  0.20977176148E-01 -0.10534338952E-01  0.23719429013E-01  0.00000000000E+00 0.  1.
     999901    1    3    3    0    0 -0.57478478179E-01 -0.13512149283E+00  0.52197401177E-02  0.89218206604E+00  0.88000000000E+00 0. -1.
        -11    1    4    4    0    0  0.23801704343E-01  0.28824662510E-01  0.13229467140E-02  0.37408469729E-01  0.51100000000E-03 0.  1.
         11    1    4    4    0    0  0.30271322850E-01  0.85319654172E-01  0.39916521202E-02  0.90620035217E-01  0.51100000000E-03 0. -1.
</event>
<event>
 8    1  0.1115874E+005  0.1043930E+01  0.7957747E-01            NaN
         13   -1    0    0    0    0  0.00000000000E+00  0.00000000000E+00  0.74505805969E-08  0.10566000000E+00  0.10566000000E+00 0.  1.
     999900   -1    0    0    0    0 -0.00000000000E+00 -0.00000000000E+00 -0.74505805969E-08  0.93827000000E+00  0.93827000000E+00 0. -1.
     999902    2    1    2    0    0  0.12718925045E-02  0.18373810456E-01  0.14966272538E-01  0.10201980819E+01  0.10199220178E+01 0.  0.
     999903    2    3    3    0    0 -0.50416063624E-01 -0.10339966967E-01  0.11980782273E+00  0.13200447890E+00  0.20556596863E-01 0.  0.
         14    1    1    2    0    0 -0.12718925045E-02 -0.18373810456E-01 -0.14966272538E-01  0.23731918061E-01  0.00000000000E+00 0. -1.
     999901    1    3    3    0    0  0.51687956129E-01  0.28713777423E-01 -0.10484155020E+00  0.88819360303E+00  0.88000000000E+00 0. -1.
        -11    1    4    4    0    0 -0.26438296669E-01 -0.97637879629E-02  0.42001174270E-01  0.50583345551E-01  0.51100000000E-03 0.  1.
         11    1    4    4    0    0 -0.23977766955E-01 -0.57617900445E-03  0.77806648464E-01  0.81421133354E-01  0.51100000000E-03 0. -1.
</event>
<event>
 8    1  0.1115874E+005  0.1043930E+01  0.7957747E-01            NaN
         13   -1    0    0    0    0  0.00000000000E+00  0.00000000000E+00  0.74505805969E-08  0.10566000000E+00  0.10566000000E+00 0. -1.
     999900   -1    0    0    0    0 -0.00000000000E+00 -0.00000000000E+00 -0.74505805969E-08  0.93827000000E+00  0.93827000000E+00 0. -1.
     999902    2    1    2    0    0 -0.78130182140E-03 -0.22532941208E-01 -0.71912463961E-02  0.10202644576E+01  0.10199899537E+01 0.  0.
     999903    2    3    3    0    0  0.77515097000E-01  0.97905284544E-01 -0.21840364886E-01  0.12849638857E+00  0.20982977184E-01 0.  0.
         14    1    1    2    0    0  0.78130182140E-03  0.22532941208E-01  0.71912463961E-02  0.23665542393E-01  0.00000000000E+00 0. -1.
     999901    1    3    3    0    0 -0.78296398821E-01 -0.12043822575E+00  0.14649118490E-01  0.89176806904E+00  0.88000000000E+00 0.  1.
        -11    1    4    4    0    0  0.54480742130E-01  0.81035547941E-01 -0.12462911969E-01  0.98440319934E-01  0.51100000000E-03 0. -1.
         11    1    4    4    0    0  0.23034354870E-01  0.16869736603E-01 -0.93774529170E-02  0.30056068631E-01  0.51100000000E-03 0.  1.
</event>
<event>
 8    1  0.1115874E+005  0.1043930E+01  0.7957747E-01            NaN
         13   -1    0    0    0    0  0.00000000000E+00  0.00000000000E+00  0.74505805969E-08  0.10566000000E+00  0.10566000000E+00 0.  1.
     999900   -1    0    0    0    0 -0.00000000000E+00 -0.00000000000E+00 -0.74505805969E-08  0.93827000000E+00  0.93827000000E+00 0. -1.
     999902    2    1    2    0    0  0.23749124297E-01  0.50313147967E-02 -0.22612670107E-02  0.10195486883E+01  0.10192571213E+01 0.  0.
     999903    2    3    3    0    0  0.26368889699E-01 -0.58253282603E-01 -0.11237003749E+00  0.13042791763E+00  0.17194565778E-01 0.  0.
         14    1    1    2    0    0 -0.23749124297E-01 -0.50313147967E-02  0.22612670107E-02  0.24381311736E-01  0.00000000000E+00 0.  1.
     999901    1    3    3    0    0 -0.26197654014E-02  0.63284597400E-01  0.11010877048E+00  0.88912077064E+00  0.88000000000E+00 0.  1.
        -11    1    4    4    0    0  0.48213075726E-02 -0.25420936049E-01 -0.56386617436E-01  0.62041766119E-01  0.51100000000E-03 0. -1.
         11    1    4    4    0    0  0.21547582126E-01 -0.32832346554E-01 -0.55983420058E-01  0.68386151508E-01  0.51100000000E-03 0.  1.
</event>
<event>
 8    1  0.1115874E+005  0.1043930E+01  0.7957747E-01            NaN
         13   -1    0    0    0    0  0.00000000000E+00  0.00000000000E+00  0.74505805969E-08  0.10566000000E+00  0.10566000000E+00 0.  1.
     999900   -1    0    0    0    0 -0.00000000000E+00 -0.00000000000E+00 -0.74505805969E-08  0.93827000000E+00  0.93827000000E+00 0.  1.
     999902    2    1    2    0    0 -0.66011245795E-02 -0.22113999591E-01  0.19398377427E-01  0.10137820171E+01  0.10133336457E+01 0.  0.
     999903    2    3    3    0    0 -0.11523098138E+00 -0.46789863661E-01  0.10061936777E-01  0.12671014115E+00  0.22062340926E-01 0.  0.
         14    1    1    2    0    0  0.66011245795E-02  0.22113999591E-01 -0.19398377427E-01  0.30147982858E-01  0.00000000000E+00 0. -1.
     999901    1    3    3    0    0  0.10862985680E+00  0.24675864070E-01  0.93364406499E-02  0.88707187599E+00  0.88000000000E+00 0. -1.
        -11    1    4    4    0    0 -0.34697789852E-02  0.23128603786E-02 -0.20218626681E-03  0.42060301501E-02  0.51100000000E-03 0.  1.
         11    1    4    4    0    0 -0.11176120239E+00 -0.49102724040E-01  0.10264123044E-01  0.12250411100E+00  0.51100000000E-03 0. -1.
</event>
<event>
 8    1  0.1115874E+005  0.1043930E+01  0.7957747E-01            NaN
         13   -1    0    0    0    0  0.00000000000E+00  0.00000000000E+00  0.74505805969E-08  0.10566000000E+00  0.10566000000E+00 0.  1.
     999900   -1    0    0    0    0 -0.00000000000E+00 -0.00000000000E+00 -0.74505805969E-08  0.93827000000E+00  0.93827000000E+00 0. -1.
     999902    2    1    2    0    0  0.13960549103E-02 -0.20379208025E-01 -0.12218819078E-01  0.10201274659E+01  0.10198497370E+01 0.  0.
     999903    2    3    3    0    0 -0.26011581846E-01 -0.14050395994E-01 -0.12737235149E+00  0.13217951224E+00  0.19331102229E-01 0.  0.
         14    1    1    2    0    0 -0.13960549103E-02  0.20379208025E-01  0.12218819078E-01  0.23802534081E-01  0.00000000000E+00 0. -1.
     999901    1    3    3    0    0  0.27407636757E-01 -0.63288120301E-02  0.11515353242E+00  0.88794795368E+00  0.88000000000E+00 0.  1.
        -11    1    4    4    0    0 -0.18952557820E-01  0.66910307937E-03 -0.66277829060E-01  0.68939530697E-01  0.51100000000E-03 0. -1.
         11    1    4    4    0    0 -0.70590240260E-02 -0.14719499074E-01 -0.61094522433E-01  0.63239981543E-01  0.51100000000E-03 0.  1.
</event>
<event>
 8    1  0.1115874E+005  0.1043930E+01  0.7957747E-01            NaN
         13   -1    0    0    0    0  0.00000000000E+00  0.00000000000E+00  0.74505805969E-08  0.10566000000E+00  0.10566000000E+00 0.  1.
     999900   -1    0    0    0    0 -0.00000000000E+00 -0.00000000000E+00 -0.74505805969E-08  0.93827000000E+00  0.93827000000E+00 0. -1.
     999902    2    1    2    0    0 -0.18692461935E-01  0.12760564559E-01  0.57975187643E-02  0.10205665378E+01  0.10202990771E+01 0.  0.
     999903    2    3    3    0    0  0.59730991941E-01 -0.10587694482E+00 -0.35578154493E-01  0.12818935127E+00  0.19722724404E-01 0.  0.
         14    1    1    2    0    0  0.18692461935E-01 -0.12760564559E-01 -0.57975187643E-02  0.23363462176E-01  0.00000000000E+00 0. -1.
     999901    1    3    3    0    0 -0.78423453875E-01  0.11863750938E+00  0.41375673258E-01  0.89237718656E+00  0.88000000000E+00 0. -1.
        -11    1    4    4    0    0  0.16027962696E-01 -0.30137082701E-01 -0.99186267448E-03  0.34152368211E-01  0.51100000000E-03 0.  1.
         11    1    4    4    0    0  0.43703029244E-01 -0.75739862122E-01 -0.34586291819E-01  0.94036983055E-01  0.51100000000E-03 0. -1.
</event>
<event>
 8    1  0.1115874E+005  0.1043930E+01  0.7957747E-01            NaN
         13   -1    0    0    0    0  0.00000000000E+00  0.00000000000E+00  0.74505805969E-08  0.10566000000E+00  0.10566000000E+00 0. -1.
     999900   -1    0    0    0    0 -0.00000000000E+00 -0.00000000000E+00 -0.74505805969E-08  0.93827000000E+00  0.93827000000E+00 0. -1.
     999902    2    1    2    0    0  0.12728919537E-01 -0.12803798049E-01  0.15683176647E-01  0.10200150535E+01  0.10197346639E+01 0.  0.
     999903    2    3    3    0    0 -0.12403574591E+00 -0.42112649637E-02  0.30476253442E-01  0.12928656485E+00  0.19586036158E-01 0.  0.
         14    1    1    2    0    0 -0.12728919537E-01  0.12803798049E-01 -0.15683176647E-01  0.23914946515E-01  0.00000000000E+00 0.  1.
     999901    1    3    3    0    0  0.13676466544E+00 -0.85925330853E-02 -0.14793076794E-01  0.89072848863E+00  0.88000000000E+00 0.  1.
        -11    1    4    4    0    0 -0.77503046643E-01  0.24461917142E-03  0.28223415732E-01  0.82483964466E-01  0.51100000000E-03 0.  1.
         11    1    4    4    0    0 -0.46532699265E-01 -0.44558841351E-02  0.22528377096E-02  0.46802600388E-01  0.51100000000E-03 0. -1.
</event>
<event>
 8    1  0.1115874E+005  0.1043930E+01  0.7957747E-01            NaN
         13   -1    0    0    0    0  0.00000000000E+00  0.00000000000E+00  0.74505805969E-08  0.10566000000E+00  0.10566000000E+00 0.  1.
     999900   -1    0    0    0    0 -0.00000000000E+00 -0.00000000000E+00 -0.74505805969E-08  0.93827000000E+00  0.93827000000E+00 0. -1.
     999902    2    1    2    0    0  0.10757402319E-01 -0.10074554217E-01 -0.18501981533E-01  0.10202753669E+01  0.10200011189E+01 0.  0.
     999903    2    3    3    0    0  0.45314745216E-01 -0.76663980141E-01  0.92799997884E-01  0.13009758002E+00  0.19563965233E-01 0.  0.
         14    1    1    2    0    0 -0.10757402319E-01  0.10074554217E-01  0.18501981533E-01  0.23654633119E-01  0.00000000000E+00 0.  1.
     999901    1    3    3    0    0 -0.34557342896E-01  0.66589425923E-01 -0.11130197942E+00  0.89017778686E+00  0.88000000000E+00 0. -1.
        -11    1    4    4    0    0  0.31535234214E-01 -0.39163496587E-01  0.42350385872E-01  0.65742427446E-01  0.51100000000E-03 0.  1.
         11    1    4    4    0    0  0.13779511002E-01 -0.37500483553E-01  0.50449612012E-01  0.64355152578E-01  0.51100000000E-03 0. -1.
</event>
<event>
 8    1  0.1115874E+005  0.1043930E+01  0.7957747E-01            NaN
         13   -1    0    0    0    0  0.00000000000E+00  0.00000000000E+00  0.74505805969E-08  0.10566000000E+00  0.10566000000E+00 0. -1.
     999900   -1    0    0    0    0 -0.00000000000E+00 -0.00000000000E+00 -0.74505805969E-08  0.93827000000E+00  0.93827000000E+00 0. -1.
     999902    2    1    2    0    0 -0.76991750302E-02 -0.13804656438E-02 -0.22636360151E-01  0.10199803073E+01  0.10196990926E+01 0.  0.
     999903    2    3    3    0    0  0.61133583076E-01  0.12026078338E-01 -0.11501278363E+00  0.13237054637E+00  0.20299744039E-01 0.  0.
         14    1    1    2    0    0  0.76991750302E-02  0.13804656438E-02  0.22636360151E-01  0.23949692742E-01  0.00000000000E+00 0. -1.
     999901    1    3    3    0    0 -0.68832758106E-01 -0.13406543982E-01  0.92376423478E-01  0.88760976089E+00  0.88000000000E+00 0.  1.
        -11    1    4    4    0    0  0.24279980692E-01 -0.19058311139E-02 -0.29805478368E-01  0.38493860762E-01  0.51100000000E-03 0.  1.
         11    1    4    4    0    0  0.36853602384E-01  0.13931909452E-01 -0.85207305262E-01  0.93876685607E-01  0.51100000000E-03 0. -1.
</event>
<event>
 8    1  0.1115874E+005  0.1043930E+01  0.7957747E-01            NaN
         13   -1    0    0    0    0  0.00000000000E+00  0.00000000000E+00  0.74505805969E-08  0.10566000000E+00  0.10566000000E+00 0. -1.
     999900   -1    0    0    0    0 -0.00000000000E+00 -0.00000000000E+00 -0.74505805969E-08  0.93827000000E+00  0.93827000000E+00 0.  1.
     999902    2    1    2    0    0  0.11232970607E-01  0.11234042890E-01 -0.17435339186E-01  0.10203424100E+01  0.10200697326E+01 0.  0.
     999903    2    3    3    0    0  0.27840755316E-01  0.57244440281E-01 -0.11530947997E+00  0.13356615718E+00  0.22172247815E-01 0.  0.
         14    1    1    2    0    0 -0.11232970607E-01 -0.11234042890E-01  0.17435339186E-01  0.23587589975E-01  0.00000000000E+00 0. -1.
     999901    1    3    3    0    0 -0.16607784708E-01 -0.46010397391E-01  0.97874140781E-01  0.88677625285E+00  0.88000000000E+00 0. -1.
        -11    1    4    4    0    0  0.31466477973E-01  0.50900756746E-01 -0.98901670006E-01  0.11559769775E+00  0.51100000000E-03 0.  1.
         11    1    4    4    0    0 -0.36257226578E-02  0.63436835354E-02 -0.16407809961E-01  0.17968459431E-01  0.51100000000E-03 0. -1.
</event>
<event>
 8    1  0.1115874E+005  0.1043930E+01  0.7957747E-01            NaN
         13   -1    0    0    0    0  0.00000000000E+00  0.00000000000E+00  0.74505805969E-08  0.10566000000E+00  0.10566000000E+00 0.  1.
     999900   -1    0    0    0    0 -0.00000000000E+00 -0.00000000000E+00 -0.74505805969E-08  0.93827000000E+00  0.93827000000E+00 0.  1.
     999902    2    1    2    0    0  0.21005206002E-01  0.10795178860E-01 -0.57635279071E-02  0.10196200675E+01  0.10193302258E+01 0.  0.
     999903    2    3    3    0    0  0.75706296365E-01  0.42688071594E-01 -0.98182237178E-01  0.13251771502E+00  0.19169724340E-01 0.  0.
         14    1    1    2    0    0 -0.21005206002E-01 -0.10795178860E-01  0.57635279071E-02  0.24309932533E-01  0.00000000000E+00 0.  1.
     999901    1    3    3    0    0 -0.54701090363E-01 -0.31892892734E-01  0.92418709271E-01  0.88710235245E+00  0.88000000000E+00 0. -1.
        -11    1    4    4    0    0  0.33487956903E-01  0.24156564273E-01 -0.34005028759E-01  0.53493793630E-01  0.51100000000E-03 0.  1.
         11    1    4    4    0    0  0.42218339462E-01  0.18531507321E-01 -0.64177208419E-01  0.79023921391E-01  0.51100000000E-03 0. -1.
</event>
<event>
 8    1  0.1115874E+005  0.1043930E+01  0.7957747E-01            NaN
         13   -1    0    0    0    0  0.00000000000E+00  0.00000000000E+00  0.74505805969E-08  0.10566000000E+00  0.10566000000E+00 0.  1.
     999900   -1    0    0    0    0 -0.00000000000E+00 -0.00000000000E+00 -0.74505805969E-08  0.93827000000E+00  0.93827000000E+00 0.  1.
     999902    2    1    2    0    0 -0.22117904847E-01  0.41309439464E-02 -0.11046092797E-01  0.10188644344E+01  0.10185560628E+01 0.  0.
     999903    2    3    3    0    0 -0.40167405720E-01 -0.10842154670E+00 -0.57082473174E-01  0.13031888354E+00  0.18866647625E-01 0.  0.
         14    1    1    2    0    0  0.22117904847E-01 -0.41309439464E-02  0.11046092797E-01  0.25065565598E-01  0.00000000000E+00 0. -1.
     999901    1    3    3    0    0  0.18049500874E-01  0.11255249065E+00  0.46036380378E-01  0.88854555086E+00  0.88000000000E+00 0. -1.
        -11    1    4    4    0    0 -0.23979614587E-01 -0.45688745608E-01 -0.32714611535E-01  0.61098202263E-01  0.51100000000E-03 0.  1.
         11    1    4    4    0    0 -0.16187791133E-01 -0.62732801094E-01 -0.24367861640E-01  0.69220681279E-01  0.51100000000E-03 0. -1.
</event>
<event>
 8    1  0.1115874E+005  0.1043930E+01  0.7957747E-01            NaN
         13   -1    0    0    0    0  0.00000000000E+00  0.00000000000E+00  0.74505805969E-08  0.10566000000E+00  0.10566000000E+00 0.  1.
     999900   -1    0    0    0    0 -0.00000000000E+00 -0.00000000000E+00 -0.74505805969E-08  0.93827000000E+00  0.93827000000E+00 0. -1.
     999902    2    1    2    0    0  0.12249131260E-01 -0.13139551078E-01  0.15144668442E-01  0.10204342557E+01  0.10201637222E+01 0.  0.
     999903    2    3    3    0    0  0.78801423334E-01  0.79637458142E-01 -0.62289533609E-01  0.12968578575E+00  0.19662857641E-01 0.  0.
         14    1    1    2    0    0 -0.12249131260E-01  0.13139551078E-01 -0.15144668442E-01  0.23495744325E-01  0.00000000000E+00 0. -1.
     999901    1    3    3    0    0 -0.66552292074E-01 -0.92777009220E-01  0.77434202051E-01  0.89074846992E+00  0.88000000000E+00 0.  1.
        -11    1    4    4    0    0  0.19020459809E-02 -0.14872043195E-04 -0.42368349731E-02  0.46722469627E-02  0.51100000000E-03 0. -1.
         11    1    4    4    0    0  0.76899377353E-01  0.79652330185E-01 -0.58052698636E-01  0.12501353879E+00  0.51100000000E-03 0.  1.
</event>
<event>
 8    1  0.1115874E+005  0.1043930E+01  0.7957747E-01            NaN
         13   -1    0    0    0    0  0.00000000000E+00  0.00000000000E+00  0.74505805969E-08  0.10566000000E+00  0.10566000000E+00 0. -1.
     999900   -1    0    0    0    0 -0.00000000000E+00 -0.00000000000E+00 -0.74505805969E-08  0.93827000000E+00  0.93827000000E+00 0. -1.
     999902    2    1    2    0    0 -0.24381804261E-02 -0.18641650137E-01 -0.17163622420E-01  0.10184732567E+01  0.10181550613E+01 0.  0.
     999903    2    3    3    0    0  0.24169261319E-01 -0.12477761552E+00  0.23683662624E-01  0.13075635377E+00  0.19562761765E-01 0.  0.
         14    1    1    2    0    0  0.24381804261E-02  0.18641650137E-01  0.17163622420E-01  0.25456743276E-01  0.00000000000E+00 0.  1.
     999901    1    3    3    0    0 -0.26607441745E-01  0.10613596538E+00 -0.40847285044E-01  0.88771690296E+00  0.88000000000E+00 0.  1.
        -11    1    4    4    0    0  0.22625842416E-01 -0.77817373510E-01  0.20860218025E-01  0.83683225213E-01  0.51100000000E-03 0. -1.
         11    1    4    4    0    0  0.15434189032E-02 -0.46960242008E-01  0.28234445986E-02  0.47073128553E-01  0.51100000000E-03 0.  1.
</event>
<event>
 8    1  0.1115874E+005  0.1043930E+01  0.7957747E-01            NaN
         13   -1    0    0    0    0  0.00000000000E+00  0.00000000000E+00  0.74505805969E-08  0.10566000000E+00  0.10566000000E+00 0. -1.
     999900   -1    0    0    0    0 -0.00000000000E+00 -0.00000000000E+00 -0.74505805969E-08  0.93827000000E+00  0.93827000000E+00 0.  1.
     999902    2    1    2    0    0  0.64680227532E-02  0.34830189583E-02 -0.23244342190E-01  0.10195524246E+01  0.10192609481E+01 0.  0.
     999903    2    3    3    0    0  0.48188457016E-01  0.10995684766E+00  0.44256121802E-01  0.12958973802E+00  0.20548969445E-01 0.  0.
         14    1    1    2    0    0 -0.64680227532E-02 -0.34830189583E-02  0.23244342190E-01  0.24377575418E-01  0.00000000000E+00 0. -1.
     999901    1    3    3    0    0 -0.41720434263E-01 -0.10647382871E+00 -0.67500463992E-01  0.88996268656E+00  0.88000000000E+00 0. -1.
        -11    1    4    4    0    0  0.36122092794E-01  0.81443398826E-01  0.42120011610E-01  0.98550440381E-01  0.51100000000E-03 0. -1.
         11    1    4    4    0    0  0.12066364222E-01  0.28513448838E-01  0.21361101915E-02  0.31039297639E-01  0.51100000000E-03 0.  1.
</event>
<event>
 8    1  0.1115874E+005  0.1043930E+01  0.7957747E-01            NaN
         13   -1    0    0    0    0  0.00000000000E+00  0.00000000000E+00  0.74505805969E-08  0.10566000000E+00  0.10566000000E+00 0.  1.
     999900   -1    0    0    0    0 -0.00000000000E+00 -0.00000000000E+00 -0.74505805969E-08  0.93827000000E+00  0.93827000000E+00 0. -1.
     999902    2    1    2    0    0  0.20506050008E-01 -0.54205885272E-02  0.96303885225E-02  0.10206356820E+01  0.10203698203E+01 0.  0.
     999903    2    3    3    0    0  0.81201746151E-01  0.10038992322E+00 -0.17405515798E-01  0.13181018056E+00  0.19977774099E-01 0.  0.
         14    1    1    2    0    0 -0.20506050008E-01  0.54205885272E-02 -0.96303885225E-02  0.23294317977E-01  0.00000000000E+00 0. -1.
     999901    1    3    3    0    0 -0.60695696143E-01 -0.10581051174E+00  0.27035904320E-01  0.88882550146E+00  0.88000000000E+00 0.  1.
        -11    1    4    4    0    0  0.32875028121E-01  0.42520916182E-01  0.25750820280E-02  0.53811596849E-01  0.51100000000E-03 0.  1.
         11    1    4    4    0    0  0.48326718030E-01  0.57869007035E-01 -0.19980597826E-01  0.77998583713E-01  0.51100000000E-03 0. -1.
</event>
<event>
 8    1  0.1115874E+005  0.1043930E+01  0.7957747E-01            NaN
         13   -1    0    0    0    0  0.00000000000E+00  0.00000000000E+00  0.74505805969E-08  0.10566000000E+00  0.10566000000E+00 0.  1.
     999900   -1    0    0    0    0 -0.00000000000E+00 -0.00000000000E+00 -0.74505805969E-08  0.93827000000E+00  0.93827000000E+00 0.  1.
     999902    2    1    2    0    0  0.11691437974E-01  0.18421827176E-01 -0.97045869867E-02  0.10200504597E+01  0.10197709095E+01 0.  0.
     999903    2    3    3    0    0 -0.82051642175E-01 -0.16198870498E-01  0.94982453367E-01  0.12822887761E+00  0.20642267728E-01 0.  0.
         14    1    1    2    0    0 -0.11691437974E-01 -0.18421827176E-01  0.97045869867E-02  0.23879540343E-01  0.00000000000E+00 0.  1.
     999901    1    3    3    0    0  0.93743080149E-01  0.34620697675E-01 -0.10468704035E+00  0.89182158205E+00  0.88000000000E+00 0.  1.
        -11    1    4    4    0    0 -0.26548488732E-01 -0.94454342595E-02  0.45720227465E-01  0.53708833564E-01  0.51100000000E-03 0. -1.
         11    1    4    4    0    0 -0.55503153443E-01 -0.67534362389E-02  0.49262225902E-01  0.74520044048E-01  0.51100000000E-03 0.  1.
</event>
<event>
 8    1  0.1115874E+005  0.1043930E+01  0.7957747E-01            NaN
         13   -1    0    0    0    0  0.00000000000E+00  0.00000000000E+00  0.74505805969E-08  0.10566000000E+00  0.10566000000E+00 0.  1.
     999900   -1    0    0    0    0 -0.00000000000E+00 -0.00000000000E+00 -0.74505805969E-08  0.93827000000E+00  0.93827000000E+00 0.  1.
     999902    2    1    2    0    0 -0.13911772303E-02 -0.15137018049E-01  0.18146591664E-01  0.10202580022E+01  0.10199833467E+01 0.  0.
     999903    2    3    3    0    0 -0.90425720113E-01 -0.57003890538E-02  0.94327935032E-01  0.13244056780E+00  0.20819206976E-01 0.  0.
         14    1    1    2    0    0  0.13911772303E-02  0.15137018049E-01 -0.18146591664E-01  0.23671997772E-01  0.00000000000E+00 0. -1.
     999901    1    3    3    0    0  0.89034542883E-01 -0.94366289951E-02 -0.76181343368E-01  0.88781743443E+00  0.88000000000E+00 0. -1.
        -11    1    4    4    0    0 -0.25230173210E-01  0.73588109123E-02  0.30596555427E-01  0.40337625900E-01  0.51100000000E-03 0.  1.
         11    1    4    4    0    0 -0.65195546903E-01 -0.13059199966E-01  0.63731379605E-01  0.92102941902E-01  0.51100000000E-03 0. -1.
</event>
<event>
 8    1  0.1115874E+005  0.1043930E+01  0.7957747E-01            NaN
         13   -1    0    0    0    0  0.00000000000E+00  0.00000000000E+00  0.74505805969E-08  0.10566000000E+00  0.10566000000E+00 0. -1.
     999900   -1    0    0    0    0 -0.00000000000E+00 -0.00000000000E+00 -0.74505805969E-08  0.93827000000E+00  0.93827000000E+00 0.  1.
     999902    2    1    2    0    0 -0.84095440669E-02  0.17435171940E-01  0.11412869546E-01  0.10214587018E+01  0.10212114963E+01 0.  0.
     999903    2    3    3    0    0  0.34234195100E-01  0.65186768824E-01  0.10981412457E+00  0.13366282971E+00  0.19629445913E-01 0.  0.
         14    1    1    2    0    0  0.84095440669E-02 -0.17435171940E-01 -0.11412869546E-01  0.22471298211E-01  0.00000000000E+00 0.  1.
     999901    1    3    3    0    0 -0.42643739166E-01 -0.47751596884E-01 -0.98401255022E-01  0.88779587208E+00  0.88000000000E+00 0. -1.
        -11    1    4    4    0    0  0.15238793774E-01  0.29728654222E-01  0.33045879658E-01  0.46992605811E-01  0.51100000000E-03 0.  1.
         11    1    4    4    0    0  0.18995401325E-01  0.35458114602E-01  0.76768244911E-01  0.86670223897E-01  0.51100000000E-03 0. -1.
</event>
<event>
 8    1  0.1115874E+005  0.1043930E+01  0.7957747E-01            NaN
         13   -1    0    0    0    0  0.00000000000E+00  0.00000000000E+00  0.74505805969E-08  0.10566000000E+00  0.10566000000E+00 0. -1.
     999900   -1    0    0    0    0 -0.00000000000E+00 -0.00000000000E+00 -0.74505805969E-08  0.93827000000E+00  0.93827000000E+00 0.  1.
     999902    2    1    2    0    0  0.12105137034E-01 -0.11564806524E-01 -0.16302946732E-01  0.10205619628E+01  0.10202943961E+01 0.  0.
     999903    2    3    3    0    0 -0.60698343848E-01  0.97800447696E-01  0.51652517841E-01  0.12821726992E+00  0.22857584995E-01 0.  0.
         14    1    1    2    0    0 -0.12105137034E-01  0.11564806524E-01  0.16302946732E-01  0.23368037245E-01  0.00000000000E+00 0. -1.
     999901    1    3    3    0    0  0.72803480883E-01 -0.10936525422E+00 -0.67955464572E-01  0.89234469283E+00  0.88000000000E+00 0.  1.
        -11    1    4    4    0    0  0.11693415364E-02  0.54296481302E-02  0.55263094643E-02  0.78517294746E-02  0.51100000000E-03 0. -1.
         11    1    4    4    0    0 -0.61867685385E-01  0.92370799566E-01  0.46126208377E-01  0.12036554045E+00  0.51100000000E-03 0.  1.
</event>
<event>
 8    1  0.1115874E+005  0.1043930E+01  0.7957747E-01            NaN
         13   -1    0    0    0    0  0.00000000000E+00  0.00000000000E+00  0.74505805969E-08  0.10566000000E+00  0.10566000000E+00 0. -1.
     999900   -1    0    0    0    0 -0.00000000000E+00 -0.00000000000E+00 -0.74505805969E-08  0.93827000000E+00  0.93827000000E+00 0. -1.
     999902    2    1    2    0    0 -0.33426499124E-02 -0.18198527495E-01 -0.15792596769E-01  0.10196037626E+01  0.10193135273E+01 0.  0.
     999903    2    3    3    0    0  0.59062806175E-01  0.10887137666E+00  0.22213016987E-01  0.12747954025E+00  0.20401552131E-01 0.  0.
         14    1    1    2    0    0  0.33426499124E-02  0.18198527495E-01  0.15792596769E-01  0.24326237361E-01  0.00000000000E+00 0. -1.
     999901    1    3    3    0    0 -0.62405456087E-01 -0.12706990416E+00 -0.38005613756E-01  0.89212422239E+00  0.88000000000E+00 0. -1.
        -11    1    4    4    0    0  0.33683898891E-01  0.43568516686E-01  0.14788064982E-01  0.57024281474E-01  0.51100000000E-03 0. -1.
         11    1    4    4    0    0  0.25378907283E-01  0.65302859979E-01  0.74249520047E-02  0.70455258779E-01  0.51100000000E-03 0.  1.
</event>
<event>
 8    1  0.1115874E+005  0.1043930E+01  0.7957747E-01            NaN
         13   -1    0    0    0    0  0.00000000000E+00  0.00000000000E+00  0.74505805969E-08  0.10566000000E+00  0.10566000000E+00 0.  1.
     999900   -1    0    0    0    0 -0.00000000000E+00 -0.00000000000E+00 -0.74505805969E-08  0.93827000000E+00  0.93827000000E+00 0. -1.
     999902    2    1    2    0    0  0.28702941108E-02  0.17301616640E-01  0.16359084704E-01  0.10199465853E+01  0.10196645687E+01 0.  0.
     999903    2    3    3    0    0  0.34544873334E-01  0.52378444032E-01 -0.11153919966E+00  0.12944580828E+00  0.19451852041E-01 0.  0.
         14    1    1    2    0    0 -0.28702941108E-02 -0.17301616640E-01 -0.16359084704E-01  0.23983414665E-01  0.00000000000E+00 0.  1.
     999901    1    3    3    0    0 -0.31674579223E-01 -0.35076827392E-01  0.12789828437E+00  0.89050077705E+00  0.88000000000E+00 0.  1.
        -11    1    4    4    0    0  0.10874651974E-01  0.28141505951E-01 -0.67026572368E-01  0.73505271492E-01  0.51100000000E-03 0.  1.
         11    1    4    4    0    0  0.23670221360E-01  0.24236938081E-01 -0.44512627294E-01  0.55940536790E-01  0.51100000000E-03 0. -1.
</event>
<event>
 8    1  0.1115874E+005  0.1043930E+01  0.7957747E-01            NaN
         13   -1    0    0    0    0  0.00000000000E+00  0.00000000000E+00  0.74505805969E-08  0.10566000000E+00  0.10566000000E+00 0.  1.
     999900   -1    0    0    0    0 -0.00000000000E+00 -0.00000000000E+00 -0.74505805969E-08  0.93827000000E+00  0.93827000000E+00 0. -1.
     999902    2    1    2    0    0  0.21360835185E-01 -0.55145631560E-02 -0.11859491647E-01  0.10188831793E+01  0.10185752745E+01 0.  0.
     999903    2    3    3    0    0 -0.44024785526E-01  0.10809150344E+00 -0.49710386519E-01  0.12836967123E+00  0.19639121834E-01 0.  0.
         14    1    1    2    0    0 -0.21360835185E-01  0.55145631560E-02  0.11859491647E-01  0.25046820731E-01  0.00000000000E+00 0.  1.
     999901    1    3    3    0    0  0.65385620711E-01 -0.11360606660E+00  0.37850894872E-01  0.89051350804E+00  0.88000000000E+00 0.  1.
        -11    1    4    4    0    0 -0.13896317943E-01  0.55265124162E-01 -0.17877749583E-01  0.59726180626E-01  0.51100000000E-03 0. -1.
         11    1    4    4    0    0 -0.30128467583E-01  0.52826379278E-01 -0.31832636936E-01  0.68643490601E-01  0.51100000000E-03 0.  1.
</event>
<event>
 8    1  0.1115874E+005  0.1043930E+01  0.7957747E-01            NaN
         13   -1    0    0    0    0  0.00000000000E+00  0.00000000000E+00  0.74505805969E-08  0.10566000000E+00  0.10566000000E+00 0. -1.
     999900   -1    0    0    0    0 -0.00000000000E+00 -0.00000000000E+00 -0.74505805969E-08  0.93827000000E+00  0.93827000000E+00 0. -1.
     999902    2    1    2    0    0  0.98095428451E-02  0.21605714572E-01 -0.30346488578E-02  0.10200083962E+01  0.10197278486E+01 0.  0.
     999903    2    3    3    0    0  0.38217779187E-01  0.55920986152E-01 -0.11174495778E+00  0.13220070477E+00  0.20058300379E-01 0.  0.
         14    1    1    2    0    0 -0.98095428451E-02 -0.21605714572E-01  0.30346488578E-02  0.23921603765E-01  0.00000000000E+00 0.  1.
     999901    1    3    3    0    0 -0.28408236342E-01 -0.34315271580E-01  0.10871030892E+00  0.88780769146E+00  0.88000000000E+00 0.  1.
        -11    1    4    4    0    0  0.90181868323E-02  0.19781617582E-01 -0.20893096174E-01  0.30156635698E-01  0.51100000000E-03 0.  1.
         11    1    4    4    0    0  0.29199592355E-01  0.36139368570E-01 -0.90851861609E-01  0.10204406907E+00  0.51100000000E-03 0. -1.
</event>
<event>
 8    1  0.1115874E+005  0.1043930E+01  0.7957747E-01            NaN
         13   -1    0    0    0    0  0.00000000000E+00  0.00000000000E+00  0.74505805969E-08  0.10566000000E+00  0.10566000000E+00 0.  1.
     999900   -1    0    0    0    0 -0.00000000000E+00 -0.00000000000E+00 -0.74505805969E-08  0.93827000000E+00  0.93827000000E+00 0. -1.
     999902    2    1    2    0    0  0.30471483688E-02  0.71267010270E-02  0.21560913893E-01  0.10210182565E+01  0.10207611534E+01 0.  0.
     999903    2    3    3    0    0 -0.11873270327E+00  0.54827057500E-02 -0.48131917908E-01  0.12990090972E+00  0.20737645419E-01 0.  0.
         14    1    1    2    0    0 -0.30471483688E-02 -0.71267010270E-02 -0.21560913893E-01  0.22911743465E-01  0.00000000000E+00 0. -1.
     999901    1    3    3    0    0  0.12177985164E+00  0.16439952770E-02  0.69692831801E-01  0.89111734681E+00  0.88000000000E+00 0. -1.
        -11    1    4    4    0    0 -0.49068747099E-01 -0.52447695418E-02 -0.12450044010E-01  0.50897094871E-01  0.51100000000E-03 0.  1.
         11    1    4    4    0    0 -0.69663956169E-01  0.10727475292E-01 -0.35681873898E-01  0.79003814852E-01  0.51100000000E-03 0. -1.
</event>
<event>
 8    1  0.1115874E+005  0.1043930E+01  0.7957747E-01            NaN
         13   -1    0    0    0    0  0.00000000000E+00  0.00000000000E+00  0.74505805969E-08  0.10566000000E+00  0.10566000000E+00 0. -1.
     999900   -1    0    0    0    0 -0.00000000000E+00 -0.00000000000E+00 -0.74505805969E-08  0.93827000000E+00  0.93827000000E+00 0. -1.
     999902    2    1    2    0    0 -0.16495201524E-01 -0.15241769198E-01  0.14253192988E-01  0.10173300618E+01  0.10169822506E+01 0.  0.
     999903    2    3    3    0    0  0.10664616715E+00 -0.44878280392E-01  0.49755318422E-01  0.12755339298E+00  0.20169564461E-01 0.  0.
         14    1    1    2    0    0  0.16495201524E-01  0.15241769198E-01 -0.14253192988E-01  0.26599938194E-01  0.00000000000E+00 0. -1.
     999901    1    3    3    0    0 -0.12314136868E+00  0.29636511194E-01 -0.35502125434E-01  0.88977666883E+00  0.88000000000E+00 0. -1.
        -11    1    4    4    0    0  0.62032650422E-01 -0.32320133035E-01  0.21107403094E-01  0.73064521515E-01  0.51100000000E-03 0. -1.
         11    1    4    4    0    0  0.44613516730E-01 -0.12558147357E-01  0.28647915327E-01  0.54488871466E-01  0.51100000000E-03 0.  1.
</event>
<event>
 8    1  0.1115874E+005  0.1043930E+01  0.7957747E-01            NaN
         13   -1    0    0    0    0  0.00000000000E+00  0.00000000000E+00  0.74505805969E-08  0.10566000000E+00  0.10566000000E+00 0. -1.
     999900   -1    0    0    0    0 -0.00000000000E+00 -0.00000000000E+00 -0.74505805969E-08  0.93827000000E+00  0.93827000000E+00 0. -1.
     999902    2    1    2    0    0 -0.20148000054E-02  0.21953104501E-01 -0.17485128373E-02  0.10218154004E+01  0.10215760652E+01 0.  0.
     999903    2    3    3    0    0 -0.13905394895E-01 -0.19960481808E-01  0.12753570624E+00  0.13130288270E+00  0.19578299121E-01 0.  0.
         14    1    1    2    0    0  0.20148000054E-02 -0.21953104501E-01  0.17485128373E-02  0.22114599554E-01  0.00000000000E+00 0. -1.
     999901    1    3    3    0    0  0.11890594890E-01  0.41913586309E-01 -0.12928421908E+00  0.89051251775E+00  0.88000000000E+00 0. -1.
        -11    1    4    4    0    0  0.16323400462E-02 -0.79811908311E-02  0.15079376794E-01  0.17146797561E-01  0.51100000000E-03 0. -1.
         11    1    4    4    0    0 -0.15537734941E-01 -0.11979290977E-01  0.11245632945E+00  0.11415608514E+00  0.51100000000E-03 0.  1.
</event>
<event>
 8    1  0.1115874E+005  0.1043930E+01  0.7957747E-01            NaN
         13   -1    0    0    0    0  0.00000000000E+00  0.00000000000E+00  0.74505805969E-08  0.10566000000E+00  0.10566000000E+00 0. -1.
     999900   -1    0    0    0    0 -0.00000000000E+00 -0.00000000000E+00 -0.74505805969E-08  0.93827000000E+00  0.93827000000E+00 0.  1.
     999902    2    1    2    0    0  0.23393958655E-01  0.13611551017E-02 -0.18311657400E-02  0.10204250386E+01  0.10201542903E+01 0.  0.
     999903    2    3    3    0    0  0.35389640342E-01 -0.11833452548E+00  0.39379304808E-01  0.13128542341E+00  0.20727908460E-01 0.  0.
         14    1    1    2    0    0 -0.23393958655E-01 -0.13611551017E-02  0.18311657400E-02  0.23504961450E-01  0.00000000000E+00 0.  1.
     999901    1    3    3    0    0 -0.11995681687E-01  0.11969568058E+00 -0.41210470548E-01  0.88913961514E+00  0.88000000000E+00 0.  1.
        -11    1    4    4    0    0  0.26562113224E-01 -0.10750376658E+00  0.38634348968E-01  0.11728375732E+00  0.51100000000E-03 0. -1.
         11    1    4    4    0    0  0.88275271180E-02 -0.10830758894E-01  0.74495584014E-03  0.14001666095E-01  0.51100000000E-03 0.  1.
</event>
<event>
 8    1  0.1115874E+005  0.1043930E+01  0.7957747E-01            NaN
         13   -1    0    0    0    0  0.00000000000E+00  0.00000000000E+00  0.74505805969E-08  0.10566000000E+00  0.10566000000E+00 0.  1.
     999900   -1    0    0    0    0 -0.00000000000E+00 -0.00000000000E+00 -0.74505805969E-08  0.93827000000E+00  0.93827000000E+00 0.  1.
     999902    2    1    2    0    0  0.12232623205E-01 -0.23002974037E-01  0.12426758764E-01  0.10150648269E+01  0.10146543276E+01 0.  0.
     999903    2    3    3    0    0 -0.73266819436E-01 -0.10203987740E+00  0.77261894727E-02  0.12738296827E+00  0.19661210327E-01 0.  0.
         14    1    1    2    0    0 -0.12232623205E-01  0.23002974037E-01 -0.12426758764E-01  0.28865173106E-01  0.00000000000E+00 0. -1.
     999901    1    3    3    0    0  0.85499442642E-01  0.79036903358E-01  0.47005692915E-02  0.88768185863E+00  0.88000000000E+00 0. -1.
        -11    1    4    4    0    0 -0.61957495603E-01 -0.85980334803E-01 -0.75504803344E-03  0.10598198174E+00  0.51100000000E-03 0. -1.
         11    1    4    4    0    0 -0.11309323833E-01 -0.16059542592E-01  0.84812375061E-02  0.21400986530E-01  0.51100000000E-03 0.  1.
</event>
<event>
 8    1  0.1115874E+005  0.1043930E+01  0.7957747E-01            NaN
         13   -1    0    0    0    0  0.00000000000E+00  0.00000000000E+00  0.74505805969E-08  0.10566000000E+00  0.10566000000E+00 0. -1.
     999900   -1    0    0    0    0 -0.00000000000E+00 -0.00000000000E+00 -0.74505805969E-08  0.93827000000E+00  0.93827000000E+00 0. -1.
     999902    2    1    2    0    0  0.15399838985E-01 -0.16521597695E-01  0.49853348826E-02  0.10208005427E+01  0.10205384736E+01 0.  0.
     999903    2    3    3    0    0 -0.52700291752E-01  0.99228569346E-01  0.60983021835E-01  0.12885241084E+00  0.16136452609E-01 0.  0.
         14    1    1    2    0    0 -0.15399838985E-01  0.16521597695E-01 -0.49853348826E-02  0.23129457301E-01  0.00000000000E+00 0. -1.
     999901    1    3    3    0    0  0.68100130737E-01 -0.11575016704E+00 -0.55997686953E-01  0.89194813186E+00  0.88000000000E+00 0.  1.
        -11    1    4    4    0    0 -0.48110803290E-01  0.77696895716E-01  0.46982504585E-01  0.10275735426E+00  0.51100000000E-03 0.  1.
         11    1    4    4    0    0 -0.45894884624E-02  0.21531673630E-01  0.14000517250E-01  0.26095056580E-01  0.51100000000E-03 0. -1.
</event>
<event>
 8    1  0.1115874E+005  0.1043930E+01  0.7957747E-01            NaN
         13   -1    0    0    0    0  0.00000000000E+00  0.00000000000E+00  0.74505805969E-08  0.10566000000E+00  0.10566000000E+00 0.  1.
     999900   -1    0    0    0    0 -0.00000000000E+00 -0.00000000000E+00 -0.74505805969E-08  0.93827000000E+00  0.93827000000E+00 0. -1.
     999902    2    1    2    0    0  0.17571181872E-01  0.11828341116E-01  0.10856086090E-01  0.10201285149E+01  0.10198508108E+01 0.  0.
     999903    2    3    3    0    0  0.11947130350E+00  0.26726134135E-01  0.48739368726E-01  0.13331358378E+00  0.20231335851E-01 0.  0.
         14    1    1    2    0    0 -0.17571181872E-01 -0.11828341116E-01 -0.10856086090E-01  0.23801485061E-01  0.00000000000E+00 0. -1.
     999901    1    3    3    0    0 -0.10190012163E+00 -0.14897793020E-01 -0.37883282636E-01  0.88681493116E+00  0.88000000000E+00 0. -1.
        -11    1    4    4    0    0  0.49332684118E-01  0.20598753029E-02  0.24414607611E-01  0.55084398829E-01  0.51100000000E-03 0.  1.
         11    1    4    4    0    0  0.70138619382E-01  0.24666258833E-01  0.24324761115E-01  0.78229184950E-01  0.51100000000E-03 0. -1.
</event>
<event>
 8    1  0.1115874E+005  0.1043930E+01  0.7957747E-01            NaN
         13   -1    0    0    0    0  0.00000000000E+00  0.00000000000E+00  0.74505805969E-08  0.10566000000E+00  0.10566000000E+00 0.  1.
     999900   -1    0    0    0    0 -0.00000000000E+00 -0.00000000000E+00 -0.74505805969E-08  0.93827000000E+00  0.93827000000E+00 0.  1.
     999902    2    1    2    0    0 -0.70116012401E-02 -0.22289636972E-01 -0.33189365543E-02  0.10203290295E+01  0.10200560390E+01 0.  0.
     999903    2    3    3    0    0 -0.48688316057E-01  0.59519726255E-01 -0.10272327179E+00  0.12998586964E+00  0.20763087542E-01 0.  0.
         14    1    1    2    0    0  0.70116012401E-02  0.22289636972E-01  0.33189365543E-02  0.23600970492E-01  0.00000000000E+00 0. -1.
     999901    1    3    3    0    0  0.41676714817E-01 -0.81809363227E-01  0.99404335233E-01  0.89034315987E+00  0.88000000000E+00 0.  1.
        -11    1    4    4    0    0 -0.38734719826E-01  0.55738800438E-01 -0.95274092246E-01  0.11698122144E+00  0.51100000000E-03 0. -1.
         11    1    4    4    0    0 -0.99535962308E-02  0.37809258164E-02 -0.74491795411E-02  0.13004648199E-01  0.51100000000E-03 0.  1.
</event>
<event>
 8    1  0.1115874E+005  0.1043930E+01  0.7957747E-01            NaN
         13   -1    0    0    0    0  0.00000000000E+00  0.00000000000E+00  0.74505805969E-08  0.10566000000E+00  0.10566000000E+00 0.  1.
     999900   -1    0    0    0    0 -0.00000000000E+00 -0.00000000000E+00 -0.74505805969E-08  0.93827000000E+00  0.93827000000E+00 0.  1.
     999902    2    1    2    0    0 -0.20784976845E-01  0.10140446139E-01  0.58057588916E-02  0.10200856978E+01  0.10198069818E+01 0.  0.
     999903    2    3    3    0    0  0.93253110620E-01 -0.90206916175E-03  0.88026848992E-01  0.12885793221E+00  0.12596990899E-01 0.  0.
         14    1    1    2    0    0  0.20784976845E-01 -0.10140446139E-01 -0.58057588916E-02  0.23844302184E-01  0.00000000000E+00 0.  1.
     999901    1    3    3    0    0 -0.11403808747E+00  0.11042515301E-01 -0.82221090101E-01  0.89122776561E+00  0.88000000000E+00 0.  1.
        -11    1    4    4    0    0  0.46035305897E-02  0.21454772798E-02  0.26905911889E-02  0.57702659032E-02  0.51100000000E-03 0. -1.
         11    1    4    4    0    0  0.88649580031E-01 -0.30475464416E-02  0.85336257804E-01  0.12308766630E+00  0.51100000000E-03 0.  1.
</event>
<event>
 8    1  0.1115874E+005  0.1043930E+01  0.7957747E-01            NaN
         13   -1    0    0    0    0  0.00000000000E+00  0.00000000000E+00  0.74505805969E-08  0.10566000000E+00  0.10566000000E+00 0.  1.
     999900   -1    0    0    0    0 -0.00000000000E+00 -0.00000000000E+00 -0.74505805969E-08  0.93827000000E+00  0.93827000000E+00 0.  1.
     999902    2    1    2    0    0  0.13272695451E-01 -0.11516939350E-01 -0.14482666331E-01  0.10211582640E+01  0.10209043286E+01 0.  0.
     999903    2    3    3    0    0 -0.66946048596E-01  0.10030749512E+00  0.40718430156E-01  0.12875313621E+00  0.19391042554E-01 0.  0.
         14    1    1    2    0    0 -0.13272695451E-01  0.11516939350E-01  0.14482666331E-01  0.22771736003E-01  0.00000000000E+00 0. -1.
     999901    1    3    3    0    0  0.80218744047E-01 -0.11182443447E+00 -0.55201096488E-01  0.89240512778E+00  0.88000000000E+00 0.  1.
        -11    1    4    4    0    0 -0.22064671077E-01  0.37129414600E-01  0.24208558342E-01  0.49515235597E-01  0.51100000000E-03 0. -1.
         11    1    4    4    0    0 -0.44881377520E-01  0.63178080516E-01  0.16509871815E-01  0.79237900617E-01  0.51100000000E-03 0.  1.
</event>
<event>
 8    1  0.1115874E+005  0.1043930E+01  0.7957747E-01            NaN
         13   -1    0    0    0    0  0.00000000000E+00  0.00000000000E+00  0.74505805969E-08  0.10566000000E+00  0.10566000000E+00 0.  1.
     999900   -1    0    0    0    0 -0.00000000000E+00 -0.00000000000E+00 -0.74505805969E-08  0.93827000000E+00  0.93827000000E+00 0. -1.
     999902    2    1    2    0    0  0.43210735796E-02 -0.23953890002E-02 -0.22484437904E-01  0.10209091505E+01  0.10206495647E+01 0.  0.
     999903    2    3    3    0    0  0.10242291127E+00  0.22934049918E-01 -0.79670877259E-01  0.13325164902E+00  0.19802269702E-01 0.  0.
         14    1    1    2    0    0 -0.43210735796E-02  0.23953890002E-02  0.22484437904E-01  0.23020849532E-01  0.00000000000E+00 0.  1.
     999901    1    3    3    0    0 -0.98101837685E-01 -0.25329438918E-01  0.57186439355E-01  0.88765750145E+00  0.88000000000E+00 0. -1.
        -11    1    4    4    0    0  0.82796347373E-01  0.26143107704E-01 -0.66907357988E-01  0.10961547743E+00  0.51100000000E-03 0. -1.
         11    1    4    4    0    0  0.19626563892E-01 -0.32090577864E-02 -0.12763519270E-01  0.23636171586E-01  0.51100000000E-03 0.  1.
</event>
<event>
 8    1  0.1115874E+005  0.1043930E+01  0.7957747E-01            NaN
         13   -1    0    0    0    0  0.00000000000E+00  0.00000000000E+00  0.74505805969E-08  0.10566000000E+00  0.10566000000E+00 0. -1.
     999900   -1    0    0    0    0 -0.00000000000E+00 -0.00000000000E+00 -0.74505805969E-08  0.93827000000E+00  0.93827000000E+00 0.  1.
     999902    2    1    2    0    0  0.13984281837E-01 -0.44469817679E-02  0.18665515687E-01  0.10201868481E+01  0.10199105195E+01 0.  0.
     999903    2    3    3    0    0  0.11363368861E-01 -0.11758713079E+00  0.55521891448E-01  0.13217448619E+00  0.20773899263E-01 0.  0.
         14    1    1    2    0    0 -0.13984281837E-01  0.44469817679E-02 -0.18665515687E-01  0.23743151880E-01  0.00000000000E+00 0.  1.
     999901    1    3    3    0    0  0.26209129753E-02  0.11314014902E+00 -0.36856375761E-01  0.88801236193E+00  0.88000000000E+00 0.  1.
        -11    1    4    4    0    0  0.16665559785E-01 -0.10443569661E+00  0.48933925253E-01  0.11653044997E+00  0.51100000000E-03 0. -1.
         11    1    4    4    0    0 -0.53021909238E-02 -0.13151434179E-01  0.65879661948E-02  0.15644036216E-01  0.51100000000E-03 0.  1.
</event>
<event>
 8    1  0.1115874E+005  0.1043930E+01  0.7957747E-01            NaN
         13   -1    0    0    0    0  0.00000000000E+00  0.00000000000E+00  0.74505805969E-08  0.10566000000E+00  0.10566000000E+00 0. -1.
     999900   -1    0    0    0    0 -0.00000000000E+00 -0.00000000000E+00 -0.74505805969E-08  0.93827000000E+00  0.93827000000E+00 0.  1.
     999902    2    1    2    0    0 -0.37756700662E-02 -0.19783392424E-01  0.12316377770E-01  0.10203221314E+01  0.10200489794E+01 0.  0.
     999903    2    3    3    0    0 -0.30557527206E-01 -0.12774315463E+00  0.10368455954E-01  0.13331797549E+00  0.20349488600E-01 0.  0.
         14    1    1    2    0    0  0.37756700662E-02  0.19783392424E-01 -0.12316377770E-01  0.23607868638E-01  0.00000000000E+00 0.  1.
     999901    1    3    3    0    0  0.26781857140E-01  0.10795976221E+00  0.19479218165E-02  0.88700415587E+00  0.88000000000E+00 0. -1.
        -11    1    4    4    0    0 -0.50713326249E-02 -0.21874556823E-01 -0.58816456537E-02  0.23217870862E-01  0.51100000000E-03 0. -1.
         11    1    4    4    0    0 -0.25486194581E-01 -0.10586859781E+00  0.16250101607E-01  0.11010010463E+00  0.51100000000E-03 0.  1.
</event>
<event>
 8    1  0.1115874E+005  0.1043930E+01  0.7957747E-01            NaN
         13   -1    0    0    0    0  0.00000000000E+00  0.00000000000E+00  0.74505805969E-08  0.10566000000E+00  0.10566000000E+00 0.  1.
     999900   -1    0    0    0    0 -0.00000000000E+00 -0.00000000000E+00 -0.74505805969E-08  0.93827000000E+00  0.93827000000E+00 0.  1.
     999902    2    1    2    0    0 -0.94223061415E-02  0.14902014229E-01 -0.13265975879E-01  0.10218656397E+01  0.10216274025E+01 0.  0.
     999903    2    3    3    0    0 -0.12284524763E+00  0.33561089469E-01  0.33502834469E-01  0.13315857523E+00  0.19785465593E-01 0.  0.
         14    1    1    2    0    0  0.94223061415E-02 -0.14902014229E-01  0.13265975879E-01  0.22064360338E-01  0.00000000000E+00 0.  1.
     999901    1    3    3    0    0  0.11342294149E+00 -0.18659075241E-01 -0.46768810348E-01  0.88870706443E+00  0.88000000000E+00 0.  1.
        -11    1    4    4    0    0 -0.35070355777E-01  0.20994760132E-02  0.40306302672E-02  0.35367283684E-01  0.51100000000E-03 0. -1.
         11    1    4    4    0    0 -0.87774891854E-01  0.31461613456E-01  0.29472204202E-01  0.97791291549E-01  0.51100000000E-03 0.  1.
</event>
<event>
 8    1  0.1115874E+005  0.1043930E+01  0.7957747E-01            NaN
         13   -1    0    0    0    0  0.00000000000E+00  0.00000000000E+00  0.74505805969E-08  0.10566000000E+00  0.10566000000E+00 0.  1.
     999900   -1    0    0    0    0 -0.00000000000E+00 -0.00000000000E+00 -0.74505805969E-08  0.93827000000E+00  0.93827000000E+00 0. -1.
     999902    2    1    2    0    0 -0.33717786328E-02 -0.17691080838E-01 -0.15664313118E-01  0.10200613189E+01  0.10197820259E+01 0.  0.
     999903    2    3    3    0    0  0.94807311604E-01  0.61849576411E-01 -0.60384659685E-01  0.12991202843E+00  0.20421350823E-01 0.  0.
         14    1    1    2    0    0  0.33717786328E-02  0.17691080838E-01  0.15664313118E-01  0.23868681108E-01  0.00000000000E+00 0.  1.
     999901    1    3    3    0    0 -0.98179090237E-01 -0.79540657249E-01  0.44720346567E-01  0.89014929046E+00  0.88000000000E+00 0.  1.
        -11    1    4    4    0    0  0.52950209038E-01  0.44909797460E-01 -0.31023712248E-01  0.76048316140E-01  0.51100000000E-03 0.  1.
         11    1    4    4    0    0  0.41857102566E-01  0.16939778950E-01 -0.29360947437E-01  0.53863712289E-01  0.51100000000E-03 0. -1.
</event>
<event>
 8    1  0.1115874E+005  0.1043930E+01  0.7957747E-01            NaN
         13   -1    0    0    0    0  0.00000000000E+00  0.00000000000E+00  0.74505805969E-08  0.10566000000E+00  0.10566000000E+00 0.  1.
     999900   -1    0    0    0    0 -0.00000000000E+00 -0.00000000000E+00 -0.74505805969E-08  0.93827000000E+00  0.93827000000E+00 0.  1.
     999902    2    1    2    0    0  0.20133817721E-02 -0.14831797051E-01  0.18909506221E-01  0.10198135049E+01  0.10195283122E+01 0.  0.
     999903    2    3    3    0    0 -0.71013313466E-01 -0.96284080953E-01 -0.48129336383E-01  0.13050951909E+00  0.20069544561E-01 0.  0.
         14    1    1    2    0    0 -0.20133817721E-02  0.14831797051E-01 -0.18909506221E-01  0.24116495091E-01  0.00000000000E+00 0. -1.
     999901    1    3    3    0    0  0.73026695239E-01  0.81452283902E-01  0.67038842604E-01  0.88930398582E+00  0.88000000000E+00 0. -1.
        -11    1    4    4    0    0 -0.12245171934E-01 -0.94476951282E-02 -0.87680777767E-03  0.15499454565E-01  0.51100000000E-03 0.  1.
         11    1    4    4    0    0 -0.58768141533E-01 -0.86836385825E-01 -0.47252528605E-01  0.11501006453E+00  0.51100000000E-03 0. -1.
</event>
<event>
 8    1  0.1115874E+005  0.1043930E+01  0.7957747E-01            NaN
         13   -1    0    0    0    0  0.00000000000E+00  0.00000000000E+00  0.74505805969E-08  0.10566000000E+00  0.10566000000E+00 0.  1.
     999900   -1    0    0    0    0 -0.00000000000E+00 -0.00000000000E+00 -0.74505805969E-08  0.93827000000E+00  0.93827000000E+00 0.  1.
     999902    2    1    2    0    0 -0.60084871483E-02 -0.88881972328E-04 -0.22314770333E-01  0.10208202879E+01  0.10205586712E+01 0.  0.
     999903    2    3    3    0    0  0.10372194468E+00 -0.73944790407E-01  0.14950489518E-01  0.13015527654E+00  0.22154120143E-01 0.  0.
         14    1    1    2    0    0  0.60084871483E-02  0.88881972328E-04  0.22314770333E-01  0.23109712089E-01  0.00000000000E+00 0.  1.
     999901    1    3    3    0    0 -0.10973043183E+00  0.73855908435E-01 -0.37265259851E-01  0.89066501137E+00  0.88000000000E+00 0. -1.
        -11    1    4    4    0    0  0.30620738663E-01 -0.10304317237E-01  0.54331000646E-02  0.32765657132E-01  0.51100000000E-03 0. -1.
         11    1    4    4    0    0  0.73101206016E-01 -0.63640473171E-01  0.95173894534E-02  0.97389619413E-01  0.51100000000E-03 0.  1.
</event>
<event>
 8    1  0.1115874E+005  0.1043930E+01  0.7957747E-01            NaN
         13   -1    0    0    0    0  0.00000000000E+00  0.00000000000E+00  0.74505805969E-08  0.10566000000E+00  0.10566000000E+00 0. -1.
     999900   -1    0    0    0    0 -0.00000000000E+00 -0.00000000000E+00 -0.74505805969E-08  0.93827000000E+00  0.93827000000E+00 0. -1.
     999902    2    1    2    0    0 -0.87349135193E-02 -0.19901915502E-01  0.73771554718E-02  0.10209777152E+01  0.10207196910E+01 0.  0.
     999903    2    3    3    0    0 -0.96751473794E-02  0.66444419013E-01 -0.10817772959E+00  0.12923251337E+00  0.22139377497E-01 0.  0.
         14    1    1    2    0    0  0.87349135193E-02  0.19901915502E-01 -0.73771554718E-02  0.22952284804E-01  0.00000000000E+00 0.  1.
     999901    1    3    3    0    0  0.94023386011E-03 -0.86346334516E-01  0.11555488507E+00  0.89174520183E+00  0.88000000000E+00 0.  1.
        -11    1    4    4    0    0 -0.16120682887E-01  0.41115164644E-01 -0.61214745782E-01  0.75484034091E-01  0.51100000000E-03 0.  1.
         11    1    4    4    0    0  0.64455355076E-02  0.25329254370E-01 -0.46962983812E-01  0.53748479276E-01  0.51100000000E-03 0. -1.
</event>
<event>
 8    1  0.1115874E+005  0.1043930E+01  0.7957747E-01            NaN
         13   -1    0    0    0    0  0.00000000000E+00  0.00000000000E+00  0.74505805969E-08  0.10566000000E+00  0.10566000000E+00 0.  1.
     999900   -1    0    0    0    0 -0.00000000000E+00 -0.00000000000E+00 -0.74505805969E-08  0.93827000000E+00  0.93827000000E+00 0. -1.
     999902    2    1    2    0    0 -0.86170635855E-02  0.17508093021E-01  0.13778224681E-01  0.10200422085E+01  0.10197624628E+01 0.  0.
     999903    2    3    3    0    0 -0.93789196506E-01  0.89298812166E-01  0.24529709248E-01  0.13295495577E+00  0.17453434991E-01 0.  0.
         14    1    1    2    0    0  0.86170635855E-02 -0.17508093021E-01 -0.13778224681E-01  0.23887791472E-01  0.00000000000E+00 0. -1.
     999901    1    3    3    0    0  0.85172132921E-01 -0.71790719146E-01 -0.10751484567E-01  0.88708725276E+00  0.88000000000E+00 0. -1.
        -11    1    4    4    0    0 -0.89098756857E-01  0.82308310388E-01  0.26792372183E-01  0.12422293975E+00  0.51100000000E-03 0. -1.
         11    1    4    4    0    0 -0.46904396489E-02  0.69905017782E-02 -0.22626629356E-02  0.87320160198E-02  0.51100000000E-03 0.  1.
</event>
<event>
 8    1  0.1115874E+005  0.1043930E+01  0.7957747E-01            NaN
         13   -1    0    0    0    0  0.00000000000E+00  0.00000000000E+00  0.74505805969E-08  0.10566000000E+00  0.10566000000E+00 0.  1.
     999900   -1    0    0    0    0 -0.00000000000E+00 -0.00000000000E+00 -0.74505805969E-08  0.93827000000E+00  0.93827000000E+00 0.  1.
     999902    2    1    2    0    0 -0.21316309276E-01 -0.88558304788E-02 -0.91936859546E-02  0.10190837802E+01  0.10187808481E+01 0.  0.
     999903    2    3    3    0    0 -0.33333849953E-02  0.11064428620E+00 -0.63526505986E-01  0.12916484080E+00  0.19866293375E-01 0.  0.
         14    1    1    2    0    0  0.21316309276E-01  0.88558304788E-02  0.91936859546E-02  0.24846219753E-01  0.00000000000E+00 0. -1.
     999901    1    3    3    0    0 -0.17982924280E-01 -0.11950011668E+00  0.54332820031E-01  0.88991893945E+00  0.88000000000E+00 0.  1.
        -11    1    4    4    0    0  0.31569573297E-02  0.80679387554E-01 -0.37867343051E-01  0.89181426017E-01  0.51100000000E-03 0.  1.
         11    1    4    4    0    0 -0.64903423250E-02  0.29964898645E-01 -0.25659162935E-01  0.39983414784E-01  0.51100000000E-03 0. -1.
</event>
<event>
 8    1  0.1115874E+005  0.1043930E+01  0.7957747E-01            NaN
         13   -1    0    0    0    0  0.00000000000E+00  0.00000000000E+00  0.74505805969E-08  0.10566000000E+00  0.10566000000E+00 0.  1.
     999900   -1    0    0    0    0 -0.00000000000E+00 -0.00000000000E+00 -0.74505805969E-08  0.93827000000E+00  0.93827000000E+00 0.  1.
     999902    2    1    2    0    0  0.20783935715E-01  0.42044115089E-02  0.10918656431E-01  0.10200790856E+01  0.10198002131E+01 0.  0.
     999903    2    3    3    0    0 -0.85060052215E-01 -0.89536111149E-01 -0.27372921200E-01  0.12797119958E+00  0.19375846397E-01 0.  0.
         14    1    1    2    0    0 -0.20783935715E-01 -0.42044115089E-02 -0.10918656431E-01  0.23850914410E-01  0.00000000000E+00 0. -1.
     999901    1    3    3    0    0  0.10584398793E+00  0.93740522658E-01  0.38291577631E-01  0.89210788601E+00  0.88000000000E+00 0.  1.
        -11    1    4    4    0    0 -0.36711932428E-01 -0.33030899482E-01 -0.21201643772E-02  0.49432403555E-01  0.51100000000E-03 0.  1.
         11    1    4    4    0    0 -0.48348119787E-01 -0.56505211667E-01 -0.25252756823E-01  0.78538796022E-01  0.51100000000E-03 0. -1.
</event>
<event>
 8    1  0.1115874E+005  0.1043930E+01  0.7957747E-01            NaN
         13   -1    0    0    0    0  0.00000000000E+00  0.00000000000E+00  0.74505805969E-08  0.10566000000E+00  0.10566000000E+00 0. -1.
     999900   -1    0    0    0    0 -0.00000000000E+00 -0.00000000000E+00 -0.74505805969E-08  0.93827000000E+00  0.93827000000E+00 0.  1.
     999902    2    1    2    0    0  0.79739871580E-02  0.21582131347E-01  0.58088646268E-02  0.10201999395E+01  0.10199239191E+01 0.  0.
     999903    2    3    3    0    0  0.74890495111E-01 -0.27633978682E-01 -0.10111553921E+00  0.12984446402E+00  0.16217568612E-01 0.  0.
         14    1    1    2    0    0 -0.79739871580E-02 -0.21582131347E-01 -0.58088646268E-02  0.23730060533E-01  0.00000000000E+00 0.  1.
     999901    1    3    3    0    0 -0.66916507953E-01  0.49216110029E-01  0.10692440383E+00  0.89035547545E+00  0.88000000000E+00 0. -1.
        -11    1    4    4    0    0  0.85797807078E-02 -0.91364499823E-02 -0.13715062205E-01  0.18586323132E-01  0.51100000000E-03 0.  1.
         11    1    4    4    0    0  0.66310714403E-01 -0.18497528700E-01 -0.87400477003E-01  0.11125814089E+00  0.51100000000E-03 0. -1.
</event>
<event>
 8    1  0.1115874E+005  0.1043930E+01  0.7957747E-01            NaN
         13   -1    0    0    0    0  0.00000000000E+00  0.00000000000E+00  0.74505805969E-08  0.10566000000E+00  0.10566000000E+00 0.  1.
     999900   -1    0    0    0    0 -0.00000000000E+00 -0.00000000000E+00 -0.74505805969E-08  0.93827000000E+00  0.93827000000E+00 0.  1.
     999902    2    1    2    0    0  0.26454453713E-01  0.10777624234E-01  0.41357538226E-02  0.10150665323E+01  0.10146560823E+01 0.  0.
     999903    2    3    3    0    0  0.23364793189E-01  0.11786653656E+00 -0.37388201240E-01  0.12759719767E+00  0.21088699785E-01 0.  0.
         14    1    1    2    0    0 -0.26454453713E-01 -0.10777624234E-01 -0.41357538226E-02  0.28863467655E-01  0.00000000000E+00 0.  1.
     999901    1    3    3    0    0  0.30896605242E-02 -0.10708891233E+00  0.41523955063E-01  0.88746933468E+00  0.88000000000E+00 0.  1.
        -11    1    4    4    0    0  0.12425025927E-01  0.40315865765E-01 -0.22708037166E-01  0.47913112762E-01  0.51100000000E-03 0.  1.
         11    1    4    4    0    0  0.10939767261E-01  0.77550670800E-01 -0.14680164074E-01  0.79684084907E-01  0.51100000000E-03 0. -1.
</event>
<event>
 8    1  0.1115874E+005  0.1043930E+01  0.7957747E-01            NaN
         13   -1    0    0    0    0  0.00000000000E+00  0.00000000000E+00  0.74505805969E-08  0.10566000000E+00  0.10566000000E+00 0.  1.
     999900   -1    0    0    0    0 -0.00000000000E+00 -0.00000000000E+00 -0.74505805969E-08  0.93827000000E+00  0.93827000000E+00 0.  1.
     999902    2    1    2    0    0  0.41499588287E-02  0.22527132941E-01  0.28937693994E-02  0.10208417394E+01  0.10205806137E+01 0.  0.
     999903    2    3    3    0    0 -0.63698455629E-01 -0.43401392104E-01  0.10288028682E+00  0.13014129512E+00  0.20278786760E-01 0.  0.
         14    1    1    2    0    0 -0.41499588287E-02 -0.22527132941E-01 -0.28937693994E-02  0.23088260614E-01  0.00000000000E+00 0.  1.
     999901    1    3    3    0    0  0.67848414457E-01  0.65928525045E-01 -0.99986517419E-01  0.89070044427E+00  0.88000000000E+00 0.  1.
        -11    1    4    4    0    0 -0.30027386313E-01 -0.30880270138E-01  0.47448308356E-01  0.64084616714E-01  0.51100000000E-03 0.  1.
         11    1    4    4    0    0 -0.33671069315E-01 -0.12521121966E-01  0.55431978462E-01  0.66056678401E-01  0.51100000000E-03 0. -1.
</event>
<event>
 8    1  0.1115874E+005  0.1043930E+01  0.7957747E-01            NaN
         13   -1    0    0    0    0  0.00000000000E+00  0.00000000000E+00  0.74505805969E-08  0.10566000000E+00  0.10566000000E+00 0. -1.
     999900   -1    0    0    0    0 -0.00000000000E+00 -0.00000000000E+00 -0.74505805969E-08  0.93827000000E+00  0.93827000000E+00 0. -1.
     999902    2    1    2    0    0 -0.15864653575E-01 -0.88226569095E-02  0.14403162073E-01  0.10207572232E+01  0.10204941602E+01 0.  0.
     999903    2    3    3    0    0 -0.57553642886E-01  0.45791058940E-01  0.10954321358E+00  0.13296656137E+00  0.16466569555E-01 0.  0.
         14    1    1    2    0    0  0.15864653575E-01  0.88226569095E-02 -0.14403162073E-01  0.23172776823E-01  0.00000000000E+00 0.  1.
     999901    1    3    3    0    0  0.41688989312E-01 -0.54613715850E-01 -0.95140051509E-01  0.88779066181E+00  0.88000000000E+00 0.  1.
        -11    1    4    4    0    0 -0.29276692543E-01  0.27810763704E-01  0.46647384796E-01  0.61699294432E-01  0.51100000000E-03 0.  1.
         11    1    4    4    0    0 -0.28276950343E-01  0.17980295237E-01  0.62895828785E-01  0.71267266939E-01  0.51100000000E-03 0. -1.
</event>
<event>
 8    1  0.1115874E+005  0.1043930E+01  0.7957747E-01            NaN
         13   -1    0    0    0    0  0.00000000000E+00  0.00000000000E+00  0.74505805969E-08  0.10566000000E+00  0.10566000000E+00 0.  1.
     999900   -1    0    0    0    0 -0.00000000000E+00 -0.00000000000E+00 -0.74505805969E-08  0.93827000000E+00  0.93827000000E+00 0. -1.
     999902    2    1    2    0    0  0.21152091297E-02 -0.12117364592E-01 -0.17468791925E-01  0.10225649976E+01  0.10223417780E+01 0.  0.
     999903    2    3    3    0    0 -0.25085161895E-01 -0.12142709768E+00  0.44703894921E-01  0.13320909536E+00  0.19298172697E-01 0.  0.
         14    1    1    2    0    0 -0.21152091297E-02  0.12117364592E-01  0.17468791925E-01  0.21365002355E-01  0.00000000000E+00 0.  1.
     999901    1    3    3    0    0  0.27200371024E-01  0.10930973308E+00 -0.62172686846E-01  0.88935590228E+00  0.88000000000E+00 0. -1.
        -11    1    4    4    0    0 -0.27977061603E-02 -0.87236265515E-02  0.91211611750E-02  0.12937755684E-01  0.51100000000E-03 0. -1.
         11    1    4    4    0    0 -0.22287455735E-01 -0.11270347112E+00  0.35582733746E-01  0.12027133968E+00  0.51100000000E-03 0.  1.
</event>
<event>
 8    1  0.1115874E+005  0.1043930E+01  0.7957747E-01            NaN
         13   -1    0    0    0    0  0.00000000000E+00  0.00000000000E+00  0.74505805969E-08  0.10566000000E+00  0.10566000000E+00 0. -1.
     999900   -1    0    0    0    0 -0.00000000000E+00 -0.00000000000E+00 -0.74505805969E-08  0.93827000000E+00  0.93827000000E+00 0. -1.
     999902    2    1    2    0    0 -0.21276099932E-02  0.62295056872E-02  0.23011244484E-01  0.10199956975E+01  0.10197148484E+01 0.  0.
     999903    2    3    3    0    0  0.19758642930E-01 -0.10527450042E+00  0.73392152651E-01  0.13126042340E+00  0.19229307619E-01 0.  0.
         14    1    1    2    0    0  0.21276099932E-02 -0.62295056872E-02 -0.23011244484E-01  0.23934302540E-01  0.00000000000E+00 0.  1.
     999901    1    3    3    0    0 -0.21886252923E-01  0.11150400611E+00 -0.50380908167E-01  0.88873527406E+00  0.88000000000E+00 0. -1.
        -11    1    4    4    0    0  0.19256953913E-01 -0.75827606732E-01  0.44529565815E-01  0.90021106244E-01  0.51100000000E-03 0. -1.
         11    1    4    4    0    0  0.50168901773E-03 -0.29446893691E-01  0.28862586835E-01  0.41239317159E-01  0.51100000000E-03 0.  1.
</event>
<event>
 8    1  0.1115874E+005  0.1043930E+01  0.7957747E-01            NaN
         13   -1    0    0    0    0  0.00000000000E+00  0.00000000000E+00  0.74505805969E-08  0.10566000000E+00  0.10566000000E+00 0. -1.
     999900   -1    0    0    0    0 -0.00000000000E+00 -0.00000000000E+00 -0.74505805969E-08  0.93827000000E+00  0.93827000000E+00 0.  1.
     999902    2    1    2    0    0 -0.16065153055E-01  0.13238107393E-01  0.11781570601E-01  0.10200105093E+01  0.10197300118E+01 0.  0.
     999903    2    3    3    0    0  0.22160922245E-01 -0.16857460441E-01 -0.12376785550E+00  0.12830393033E+00  0.19186871450E-01 0.  0.
         14    1    1    2    0    0  0.16065153055E-01 -0.13238107393E-01 -0.11781570601E-01  0.23919490711E-01  0.00000000000E+00 0.  1.
     999901    1    3    3    0    0 -0.38226075301E-01  0.30095567834E-01  0.13554942610E+00  0.89170657896E+00  0.88000000000E+00 0. -1.
        -11    1    4    4    0    0  0.30557357605E-02 -0.91934041343E-02 -0.71016615795E-01  0.71676195774E-01  0.51100000000E-03 0. -1.
         11    1    4    4    0    0  0.19105186485E-01 -0.76640563070E-02 -0.52751239708E-01  0.56627734560E-01  0.51100000000E-03 0.  1.
</event>
<event>
 8    1  0.1115874E+005  0.1043930E+01  0.7957747E-01            NaN
         13   -1    0    0    0    0  0.00000000000E+00  0.00000000000E+00  0.74505805969E-08  0.10566000000E+00  0.10566000000E+00 0. -1.
     999900   -1    0    0    0    0 -0.00000000000E+00 -0.00000000000E+00 -0.74505805969E-08  0.93827000000E+00  0.93827000000E+00 0.  1.
     999902    2    1    2    0    0 -0.35799463109E-02  0.18837768166E-01 -0.70625842637E-02  0.10234957733E+01  0.10232917669E+01 0.  0.
     999903    2    3    3    0    0 -0.55076751612E-01  0.87426875557E-01  0.83732621274E-01  0.13467624382E+00  0.21204519467E-01 0.  0.
         14    1    1    2    0    0  0.35799463109E-02 -0.18837768166E-01  0.70625842637E-02  0.20434226717E-01  0.00000000000E+00 0. -1.
     999901    1    3    3    0    0  0.51496805301E-01 -0.68589107391E-01 -0.90795205537E-01  0.88881952946E+00  0.88000000000E+00 0.  1.
        -11    1    4    4    0    0 -0.38072257265E-01  0.40730872543E-01  0.42728365268E-01  0.70245818885E-01  0.51100000000E-03 0.  1.
         11    1    4    4    0    0 -0.17004494347E-01  0.46696003014E-01  0.41004256006E-01  0.64430424933E-01  0.51100000000E-03 0. -1.
</event>
<event>
 8    1  0.1115874E+005  0.1043930E+01  0.7957747E-01            NaN
         13   -1    0    0    0    0  0.00000000000E+00  0.00000000000E+00  0.74505805969E-08  0.10566000000E+00  0.10566000000E+00 0. -1.
     999900   -1    0    0    0    0 -0.00000000000E+00 -0.00000000000E+00 -0.74505805969E-08  0.93827000000E+00  0.93827000000E+00 0. -1.
     999902    2    1    2    0    0 -0.62719252693E-02 -0.37999524555E-03 -0.22490102287E-01  0.10205786372E+01  0.10203114567E+01 0.  0.
     999903    2    3    3    0    0  0.90390457982E-01 -0.91072504493E-01  0.80342514356E-02  0.13012904081E+00  0.20109254022E-01 0.  0.
         14    1    1    2    0    0  0.62719252693E-02  0.37999524555E-03  0.22490102287E-01  0.23351362783E-01  0.00000000000E+00 0. -1.
     999901    1    3    3    0    0 -0.96662383252E-01  0.90692509247E-01 -0.30524353722E-01  0.89044959641E+00  0.88000000000E+00 0.  1.
        -11    1    4    4    0    0  0.57045837398E-01 -0.68622711723E-01  0.56798725543E-03  0.89240617765E-01  0.51100000000E-03 0. -1.
         11    1    4    4    0    0  0.33344620584E-01 -0.22449792770E-01  0.74662641802E-02  0.40888423045E-01  0.51100000000E-03 0.  1.
</event>
<event>
 8    1  0.1115874E+005  0.1043930E+01  0.7957747E-01            NaN
         13   -1    0    0    0    0  0.00000000000E+00  0.00000000000E+00  0.74505805969E-08  0.10566000000E+00  0.10566000000E+00 0.  1.
     999900   -1    0    0    0    0 -0.00000000000E+00 -0.00000000000E+00 -0.74505805969E-08  0.93827000000E+00  0.93827000000E+00 0.  1.
     999902    2    1    2    0    0 -0.76863615916E-02 -0.15996712364E-01 -0.14003701698E-01  0.10213229519E+01  0.10210727171E+01 0.  0.
     999903    2    3    3    0    0  0.89924811731E-02 -0.47576980128E-01 -0.12315131408E+00  0.13386100999E+00  0.20201239598E-01 0.  0.
         14    1    1    2    0    0  0.76863615916E-02  0.15996712364E-01  0.14003701698E-01  0.22607048065E-01  0.00000000000E+00 0.  1.
     999901    1    3    3    0    0 -0.16678842765E-01  0.31580267764E-01  0.10914761238E+00  0.88746194194E+00  0.88000000000E+00 0. -1.
        -11    1    4    4    0    0  0.10656987738E-01 -0.20601039241E-01 -0.38004188033E-01  0.44525876010E-01  0.51100000000E-03 0.  1.
         11    1    4    4    0    0 -0.16645065646E-02 -0.26975940887E-01 -0.85147126045E-01  0.89335133982E-01  0.51100000000E-03 0. -1.
</event>
<event>
 8    1  0.1115874E+005  0.1043930E+01  0.7957747E-01            NaN
         13   -1    0    0    0    0  0.00000000000E+00  0.00000000000E+00  0.74505805969E-08  0.10566000000E+00  0.10566000000E+00 0.  1.
     999900   -1    0    0    0    0 -0.00000000000E+00 -0.00000000000E+00 -0.74505805969E-08  0.93827000000E+00  0.93827000000E+00 0.  1.
     999902    2    1    2    0    0  0.21524856416E-01  0.12219660190E-02  0.85807035866E-02  0.10207256659E+01  0.10204618778E+01 0.  0.
     999903    2    3    3    0    0 -0.11822361198E-01  0.12657235085E+00 -0.22641286672E-01  0.13066973031E+00  0.20040517279E-01 0.  0.
         14    1    1    2    0    0 -0.21524856416E-01 -0.12219660190E-02 -0.85807035866E-02  0.23204334050E-01  0.00000000000E+00 0. -1.
     999901    1    3    3    0    0  0.33347217614E-01 -0.12535038483E+00  0.31221990259E-01  0.89005593564E+00  0.88000000000E+00 0.  1.
        -11    1    4    4    0    0 -0.50822872391E-02  0.59545190865E-01 -0.20791460405E-01  0.63277210317E-01  0.51100000000E-03 0.  1.
         11    1    4    4    0    0 -0.67400739587E-02  0.67027159982E-01 -0.18498262671E-02  0.67392519989E-01  0.51100000000E-03 0. -1.
</event>
<event>
 8    1  0.1115874E+005  0.1043930E+01  0.7957747E-01            NaN
         13   -1    0    0    0    0  0.00000000000E+00  0.00000000000E+00  0.74505805969E-08  0.10566000000E+00  0.10566000000E+00 0. -1.
     999900   -1    0    0    0    0 -0.00000000000E+00 -0.00000000000E+00 -0.74505805969E-08  0.93827000000E+00  0.93827000000E+00 0. -1.
     999902    2    1    2    0    0 -0.98201166304E-02 -0.21533755768E-01  0.23371562294E-02  0.10201476614E+01  0.10198704092E+01 0.  0.
     999903    2    3    3    0    0  0.69611444701E-01 -0.32128034584E-01  0.10374015849E+00  0.13070728652E+00  0.21081044240E-01 0.  0.
         14    1    1    2    0    0  0.98201166304E-02  0.21533755768E-01 -0.23371562294E-02  0.23782338560E-01  0.00000000000E+00 0. -1.
     999901    1    3    3    0    0 -0.79431561331E-01  0.10594278816E-01 -0.10140300226E+00  0.88944037492E+00  0.88000000000E+00 0. -1.
        -11    1    4    4    0    0  0.50036041795E-01 -0.14656154554E-01  0.78899540697E-01  0.94571702893E-01  0.51100000000E-03 0.  1.
         11    1    4    4    0    0  0.19575402905E-01 -0.17471880030E-01  0.24840617789E-01  0.36135583623E-01  0.51100000000E-03 0. -1.
</event>
<event>
 8    1  0.1115874E+005  0.1043930E+01  0.7957747E-01            NaN
         13   -1    0    0    0    0  0.00000000000E+00  0.00000000000E+00  0.74505805969E-08  0.10566000000E+00  0.10566000000E+00 0.  1.
     999900   -1    0    0    0    0 -0.00000000000E+00 -0.00000000000E+00 -0.74505805969E-08  0.93827000000E+00  0.93827000000E+00 0. -1.
     999902    2    1    2    0    0 -0.19606107081E-01  0.44396857806E-02 -0.10818133334E-01  0.10211014597E+01  0.10208462415E+01 0.  0.
     999903    2    3    3    0    0 -0.55919393302E-01  0.11645592904E+00  0.22824783631E-01  0.13262065550E+00  0.19450078709E-01 0.  0.
         14    1    1    2    0    0  0.19606107081E-01 -0.44396857806E-02  0.10818133334E-01  0.22828540328E-01  0.00000000000E+00 0.  1.
     999901    1    3    3    0    0  0.36313286221E-01 -0.11201624326E+00 -0.33642916965E-01  0.88848080417E+00  0.88000000000E+00 0.  1.
        -11    1    4    4    0    0 -0.22075416404E-01  0.32004518716E-01  0.26612941250E-03  0.38883739191E-01  0.51100000000E-03 0. -1.
         11    1    4    4    0    0 -0.33843976898E-01  0.84451410329E-01  0.22558654218E-01  0.93736916313E-01  0.51100000000E-03 0.  1.
</event>
<event>
 8    1  0.1115874E+005  0.1043930E+01  0.7957747E-01            NaN
         13   -1    0    0    0    0  0.00000000000E+00  0.00000000000E+00  0.74505805969E-08  0.10566000000E+00  0.10566000000E+00 0. -1.
     999900   -1    0    0    0    0 -0.00000000000E+00 -0.00000000000E+00 -0.74505805969E-08  0.93827000000E+00  0.93827000000E+00 0.  1.
     999902    2    1    2    0    0 -0.16699332964E-02 -0.29186606965E-02 -0.14871185211E-01  0.10286833805E+01  0.10285703855E+01 0.  0.
     999903    2    3    3    0    0  0.12888531562E+00 -0.10228180939E-02 -0.46788899000E-01  0.13847722025E+00  0.19346025952E-01 0.  0.
         14    1    1    2    0    0  0.16699332964E-02  0.29186606965E-02  0.14871185211E-01  0.15246619529E-01  0.00000000000E+00 0. -1.
     999901    1    3    3    0    0 -0.13055524892E+00 -0.18958426025E-02  0.31917713789E-01  0.89020616022E+00  0.88000000000E+00 0.  1.
        -11    1    4    4    0    0  0.29278249268E-01  0.77830531497E-02 -0.12280314657E-01  0.32693409819E-01  0.51100000000E-03 0. -1.
         11    1    4    4    0    0  0.99607066351E-01 -0.88058712436E-02 -0.34508584343E-01  0.10578381043E+00  0.51100000000E-03 0.  1.
</event>
<event>
 8    1  0.1115874E+005  0.1043930E+01  0.7957747E-01            NaN
         13   -1    0    0    0    0  0.00000000000E+00  0.00000000000E+00  0.74505805969E-08  0.10566000000E+00  0.10566000000E+00 0.  1.
     999900   -1    0    0    0    0 -0.00000000000E+00 -0.00000000000E+00 -0.74505805969E-08  0.93827000000E+00  0.93827000000E+00 0.  1.
     999902    2    1    2    0    0 -0.26629461101E-01 -0.94060763808E-03 -0.62226162292E-02  0.10165669977E+01  0.10161986651E+01 0.  0.
     999903    2    3    3    0    0  0.52594577924E-01  0.13340202346E-01  0.11102903443E+00  0.12514771395E+00  0.19757357986E-01 0.  0.
         14    1    1    2    0    0  0.26629461101E-01  0.94060763808E-03  0.62226162292E-02  0.27363002284E-01  0.00000000000E+00 0. -1.
     999901    1    3    3    0    0 -0.79224039025E-01 -0.14280809984E-01 -0.11725165066E+00  0.89141928377E+00  0.88000000000E+00 0.  1.
        -11    1    4    4    0    0  0.32871996473E-01  0.15429097589E-03  0.51923940084E-01  0.61456884339E-01  0.51100000000E-03 0.  1.
         11    1    4    4    0    0  0.19722581451E-01  0.13185911370E-01  0.59105094345E-01  0.63690829609E-01  0.51100000000E-03 0. -1.
</event>
<event>
 8    1  0.1115874E+005  0.1043930E+01  0.7957747E-01            NaN
         13   -1    0    0    0    0  0.00000000000E+00  0.00000000000E+00  0.74505805969E-08  0.10566000000E+00  0.10566000000E+00 0.  1.
     999900   -1    0    0    0    0 -0.00000000000E+00 -0.00000000000E+00 -0.74505805969E-08  0.93827000000E+00  0.93827000000E+00 0.  1.
     999902    2    1    2    0    0  0.16500029516E-02 -0.11010412308E-01  0.20310660373E-01  0.10207680784E+01  0.10205052647E+01 0.  0.
     999903    2    3    3    0    0  0.32061374686E-01 -0.12341198914E+00 -0.26674146894E-01  0.13185495656E+00  0.20390405765E-01 0.  0.
         14    1    1    2    0    0 -0.16500029516E-02  0.11010412308E-01 -0.20310660373E-01  0.23161921633E-01  0.00000000000E+00 0. -1.
     999901    1    3    3    0    0 -0.30411371734E-01  0.11240157683E+00  0.46984807267E-01  0.88891312181E+00  0.88000000000E+00 0. -1.
        -11    1    4    4    0    0  0.19045474392E-01 -0.99271086379E-01 -0.15629653135E-01  0.10228404501E+00  0.51100000000E-03 0. -1.
         11    1    4    4    0    0  0.13015900294E-01 -0.24140902761E-01 -0.11044493759E-01  0.29570911551E-01  0.51100000000E-03 0.  1.
</event>
<event>
 8    1  0.1115874E+005  0.1043930E+01  0.7957747E-01            NaN
         13   -1    0    0    0    0  0.00000000000E+00  0.00000000000E+00  0.74505805969E-08  0.10566000000E+00  0.10566000000E+00 0. -1.
     999900   -1    0    0    0    0 -0.00000000000E+00 -0.00000000000E+00 -0.74505805969E-08  0.93827000000E+00  0.93827000000E+00 0.  1.
     999902    2    1    2    0    0  0.38204633042E-02  0.61646775963E-02  0.23801096301E-01  0.10190484531E+01  0.10187446483E+01 0.  0.
     999903    2    3    3    0    0  0.24184666100E-01  0.99281327159E-01 -0.76308177497E-01  0.12825819842E+00  0.13621582567E-01 0.  0.
         14    1    1    2    0    0 -0.38204633042E-02 -0.61646775963E-02 -0.23801096301E-01  0.24881546874E-01  0.00000000000E+00 0.  1.
     999901    1    3    3    0    0 -0.20364202796E-01 -0.93116649563E-01  0.10010927380E+00  0.89079025471E+00  0.88000000000E+00 0. -1.
        -11    1    4    4    0    0  0.13390308162E-01  0.64571806984E-01 -0.41442598159E-01  0.77888180573E-01  0.51100000000E-03 0. -1.
         11    1    4    4    0    0  0.10794357939E-01  0.34709520175E-01 -0.34865579338E-01  0.50370017845E-01  0.51100000000E-03 0.  1.
</event>
<event>
 8    1  0.1426413E+005  0.1043930E+01  0.7957747E-01            NaN
         13   -1    0    0    0    0  0.00000000000E+00  0.00000000000E+00  0.74505805969E-08  0.10566000000E+00  0.10566000000E+00 0. -1.
     999900   -1    0    0    0    0 -0.00000000000E+00 -0.00000000000E+00 -0.74505805969E-08  0.93827000000E+00  0.93827000000E+00 0. -1.
     999902    2    1    2    0    0  0.19821313271E-01  0.95251326810E-02 -0.10445549384E-01  0.10195841150E+01  0.10192934050E+01 0.  0.
     999903    2    3    3    0    0  0.23760542208E-01 -0.69624299238E-01 -0.10642196797E+00  0.13082564222E+00  0.19432112174E-01 0.  0.
         14    1    1    2    0    0 -0.19821313271E-01 -0.95251326810E-02  0.10445549384E-01  0.24345884956E-01  0.00000000000E+00 0.  1.
     999901    1    3    3    0    0 -0.39392289367E-02  0.79149431919E-01  0.95976418589E-01  0.88875847283E+00  0.88000000000E+00 0.  1.
        -11    1    4    4    0    0 -0.14589262339E-02 -0.22715564811E-01 -0.29499581053E-01  0.37264081281E-01  0.51100000000E-03 0. -1.
         11    1    4    4    0    0  0.25219468442E-01 -0.46908734427E-01 -0.76922386920E-01  0.93561560935E-01  0.51100000000E-03 0.  1.
</event>
<event>
 8    1  0.1115874E+005  0.1043930E+01  0.7957747E-01            NaN
         13   -1    0    0    0    0  0.00000000000E+00  0.00000000000E+00  0.74505805969E-08  0.10566000000E+00  0.10566000000E+00 0. -1.
     999900   -1    0    0    0    0 -0.00000000000E+00 -0.00000000000E+00 -0.74505805969E-08  0.93827000000E+00  0.93827000000E+00 0. -1.
     999902    2    1    2    0    0 -0.81180715641E-02  0.17183980590E-01  0.14059390396E-01  0.10202898068E+01  0.10200158975E+01 0.  0.
     999903    2    3    3    0    0 -0.92568706874E-01 -0.13750127338E-01 -0.88112557008E-01  0.12982479591E+00  0.18237966884E-01 0.  0.
         14    1    1    2    0    0  0.81180715641E-02 -0.17183980590E-01 -0.14059390396E-01  0.23640193170E-01  0.00000000000E+00 0.  1.
     999901    1    3    3    0    0  0.84450635310E-01  0.30934107928E-01  0.10217194740E+00  0.89046501092E+00  0.88000000000E+00 0.  1.
        -11    1    4    4    0    0 -0.47487996562E-01 -0.77244626559E-02 -0.57608939008E-01  0.75058831029E-01  0.51100000000E-03 0. -1.
         11    1    4    4    0    0 -0.45080710312E-01 -0.60256646825E-02 -0.30503618000E-01  0.54765964880E-01  0.51100000000E-03 0.  1.
</event>
<event>
 8    1  0.1115874E+005  0.1043930E+01  0.7957747E-01            NaN
         13   -1    0    0    0    0  0.00000000000E+00  0.00000000000E+00  0.74505805969E-08  0.10566000000E+00  0.10566000000E+00 0.  1.
     999900   -1    0    0    0    0 -0.00000000000E+00 -0.00000000000E+00 -0.74505805969E-08  0.93827000000E+00  0.93827000000E+00 0. -1.
     999902    2    1    2    0    0  0.22521877325E-01 -0.43895236207E-02 -0.29911838539E-02  0.10207902062E+01  0.10205279002E+01 0.  0.
     999903    2    3    3    0    0  0.68841406621E-01  0.17206034806E-01 -0.11042952747E+00  0.13278408876E+00  0.20043622225E-01 0.  0.
         14    1    1    2    0    0 -0.22521877325E-01  0.43895236207E-02  0.29911838539E-02  0.23139793791E-01  0.00000000000E+00 0. -1.
     999901    1    3    3    0    0 -0.46319529296E-01 -0.21595558427E-01  0.10743834362E+00  0.88800611744E+00  0.88000000000E+00 0.  1.
        -11    1    4    4    0    0  0.24381668173E-01  0.15752758102E-01 -0.38701774080E-01  0.48380818189E-01  0.51100000000E-03 0.  1.
         11    1    4    4    0    0  0.44459738448E-01  0.14532767042E-02 -0.71727753394E-01  0.84403270576E-01  0.51100000000E-03 0. -1.
</event>
<event>
 8    1  0.1115874E+005  0.1043930E+01  0.7957747E-01            NaN
         13   -1    0    0    0    0  0.00000000000E+00  0.00000000000E+00  0.74505805969E-08  0.10566000000E+00  0.10566000000E+00 0.  1.
     999900   -1    0    0    0    0 -0.00000000000E+00 -0.00000000000E+00 -0.74505805969E-08  0.93827000000E+00  0.93827000000E+00 0.  1.
     999902    2    1    2    0    0  0.12492377982E-02 -0.21519981681E-01  0.52272307506E-03  0.10223674527E+01  0.10221400417E+01 0.  0.
     999903    2    3    3    0    0  0.44573404848E-02 -0.12378536885E+00 -0.49633065157E-01  0.13502078740E+00  0.20603068852E-01 0.  0.
         14    1    1    2    0    0 -0.12492377982E-02  0.21519981681E-01 -0.52272307506E-03  0.21562547299E-01  0.00000000000E+00 0.  1.
     999901    1    3    3    0    0 -0.32081026866E-02  0.10226538717E+00  0.50155788232E-01  0.88734666531E+00  0.88000000000E+00 0. -1.
        -11    1    4    4    0    0 -0.71614112204E-02 -0.52748990261E-01 -0.16141647499E-01  0.55628730789E-01  0.51100000000E-03 0.  1.
         11    1    4    4    0    0  0.11618751705E-01 -0.71036378590E-01 -0.33491417658E-01  0.79392056606E-01  0.51100000000E-03 0. -1.
</event>
<event>
 8    1  0.1115874E+005  0.1043930E+01  0.7957747E-01            NaN
         13   -1    0    0    0    0  0.00000000000E+00  0.00000000000E+00  0.74505805969E-08  0.10566000000E+00  0.10566000000E+00 0.  1.
     999900   -1    0    0    0    0 -0.00000000000E+00 -0.00000000000E+00 -0.74505805969E-08  0.93827000000E+00  0.93827000000E+00 0.  1.
     999902    2    1    2    0    0  0.14467121693E-01  0.10264395465E-01 -0.14853386087E-01  0.10207939134E+01  0.10205316924E+01 0.  0.
     999903    2    3    3    0    0  0.77678959198E-01 -0.88402759039E-01  0.52109186828E-01  0.13050467392E+00  0.21610970737E-01 0.  0.
         14    1    1    2    0    0 -0.14467121693E-01 -0.10264395465E-01  0.14853386087E-01  0.23136086588E-01  0.00000000000E+00 0.  1.
     999901    1    3    3    0    0 -0.63211837504E-01  0.98667154504E-01 -0.66962572915E-01  0.89028923949E+00  0.88000000000E+00 0.  1.
        -11    1    4    4    0    0  0.11628294281E-01 -0.62925258842E-02  0.11632893984E-01  0.17618128542E-01  0.51100000000E-03 0.  1.
         11    1    4    4    0    0  0.66050664917E-01 -0.82110233154E-01  0.40476292845E-01  0.11288654538E+00  0.51100000000E-03 0. -1.
</event>
<event>
 8    1  0.1115874E+005  0.1043930E+01  0.7957747E-01            NaN
         13   -1    0    0    0    0  0.00000000000E+00  0.00000000000E+00  0.74505805969E-08  0.10566000000E+00  0.10566000000E+00 0. -1.
     999900   -1    0    0    0    0 -0.00000000000E+00 -0.00000000000E+00 -0.74505805969E-08  0.93827000000E+00  0.93827000000E+00 0. -1.
     999902    2    1    2    0    0 -0.19805843520E-01 -0.30222249179E-02  0.13907870327E-01  0.10195407782E+01  0.10192490198E+01 0.  0.
     999903    2    3    3    0    0  0.11448819401E+00  0.17474921483E-01 -0.47983356698E-01  0.12696834672E+00  0.20140484141E-01 0.  0.
         14    1    1    2    0    0  0.19805843520E-01  0.30222249179E-02 -0.13907870327E-01  0.24389221759E-01  0.00000000000E+00 0. -1.
     999901    1    3    3    0    0 -0.13429403753E+00 -0.20497146401E-01  0.61891227025E-01  0.89257243152E+00  0.88000000000E+00 0.  1.
        -11    1    4    4    0    0  0.68629115769E-01  0.12532722586E-01 -0.39158865867E-01  0.80004390902E-01  0.51100000000E-03 0.  1.
         11    1    4    4    0    0  0.45859078238E-01  0.49421988969E-02 -0.88244908307E-02  0.46963955819E-01  0.51100000000E-03 0. -1.
</event>
<event>
 7    1  0.1115874E+005  0.1043930E+01  0.7957747E-01            NaN
         13   -1    0    0    0    0  0.00000000000E+00  0.00000000000E+00  0.74505805969E-08  0.10566000000E+00  0.10566000000E+00 0. -1.
     999900   -1    0    0    0    0 -0.00000000000E+00 -0.00000000000E+00 -0.74505805969E-08  0.93827000000E+00  0.93827000000E+00 0.  1.
     999903    2    1    2    0    0 -0.31793427970E-01  0.10464873613E+00 -0.46047741779E-01  0.12042236893E+00  0.20468814779E-01 0.  0.
         14    1    1    2    0    0  0.67761907478E-02 -0.35866405706E-01 -0.12367340582E-01  0.38539161024E-01  0.00000000000E+00 0.  1.
     999901    1    1    2    0    0  0.25017237222E-01 -0.68782330426E-01  0.58415082361E-01  0.88496847005E+00  0.88000000000E+00 0. -1.
        -11    1    3    3    0    0 -0.21315541372E-01  0.36523285738E-01 -0.19281253554E-01  0.46479356328E-01  0.51100000000E-03 0.  1.
         11    1    3    3    0    0 -0.10477886598E-01  0.68125450395E-01 -0.26766488225E-01  0.73943012597E-01  0.51100000000E-03 0. -1.
</event>
<event>
 8    1  0.1115874E+005  0.1043930E+01  0.7957747E-01            NaN
         13   -1    0    0    0    0  0.00000000000E+00  0.00000000000E+00  0.74505805969E-08  0.10566000000E+00  0.10566000000E+00 0. -1.
     999900   -1    0    0    0    0 -0.00000000000E+00 -0.00000000000E+00 -0.74505805969E-08  0.93827000000E+00  0.93827000000E+00 0.  1.
     999902    2    1    2    0    0  0.82607328501E-02  0.14695694918E-01  0.16333861371E-01  0.10204566495E+01  0.10201866375E+01 0.  0.
     999903    2    3    3    0    0  0.59337300788E-02 -0.12708380655E+00  0.10143186929E-01  0.12908401899E+00  0.19346748487E-01 0.  0.
         14    1    1    2    0    0 -0.82607328501E-02 -0.14695694918E-01 -0.16333861371E-01  0.23473350499E-01  0.00000000000E+00 0.  1.
     999901    1    3    3    0    0  0.23270027713E-02  0.14177950147E+00  0.61906744424E-02  0.89137263051E+00  0.88000000000E+00 0. -1.
        -11    1    4    4    0    0 -0.31006877611E-02 -0.77065000782E-01 -0.59541923646E-03  0.77131344181E-01  0.51100000000E-03 0.  1.
         11    1    4    4    0    0  0.90344178399E-02 -0.50018805768E-01  0.10738606165E-01  0.51952674807E-01  0.51100000000E-03 0. -1.
</event>
<event>
 8    1  0.1115874E+005  0.1043930E+01  0.7957747E-01            NaN
         13   -1    0    0    0    0  0.00000000000E+00  0.00000000000E+00  0.74505805969E-08  0.10566000000E+00  0.10566000000E+00 0.  1.
     999900   -1    0    0    0    0 -0.00000000000E+00 -0.00000000000E+00 -0.74505805969E-08  0.93827000000E+00  0.93827000000E+00 0. -1.
     999902    2    1    2    0    0  0.10175309797E-01 -0.20882022349E-01 -0.26287483934E-02  0.10205525300E+01  0.10202847447E+01 0.  0.
     999903    2    3    3    0    0  0.10421068600E+00  0.57992826418E-01  0.49074364073E-01  0.13053168438E+00  0.20179009542E-01 0.  0.
         14    1    1    2    0    0 -0.10175309797E-01  0.20882022349E-01  0.26287483934E-02  0.23377470029E-01  0.00000000000E+00 0. -1.
     999901    1    3    3    0    0 -0.94035376200E-01 -0.78874848768E-01 -0.51703112467E-01  0.89002084559E+00  0.88000000000E+00 0.  1.
        -11    1    4    4    0    0  0.39618525259E-01  0.14749218732E-01  0.96181818537E-02  0.43358246506E-01  0.51100000000E-03 0. -1.
         11    1    4    4    0    0  0.64592160738E-01  0.43243607687E-01  0.39456182220E-01  0.87173437875E-01  0.51100000000E-03 0.  1.
</event>
<event>
 8    1  0.1115874E+005  0.1043930E+01  0.7957747E-01            NaN
         13   -1    0    0    0    0  0.00000000000E+00  0.00000000000E+00  0.74505805969E-08  0.10566000000E+00  0.10566000000E+00 0.  1.
     999900   -1    0    0    0    0 -0.00000000000E+00 -0.00000000000E+00 -0.74505805969E-08  0.93827000000E+00  0.93827000000E+00 0. -1.
     999902    2    1    2    0    0  0.15984978454E-01 -0.11327111424E-02 -0.17881185175E-01  0.10199187661E+01  0.10196360871E+01 0.  0.
     999903    2    3    3    0    0 -0.12271547328E+00  0.23455116428E-01  0.19382401906E-01  0.12793729122E+00  0.19571487225E-01 0.  0.
         14    1    1    2    0    0 -0.15984978454E-01  0.11327111424E-02  0.17881185175E-01  0.24011233912E-01  0.00000000000E+00 0.  1.
     999901    1    3    3    0    0  0.13870045174E+00 -0.24587827571E-01 -0.37263587081E-01  0.89198147486E+00  0.88000000000E+00 0.  1.
        -11    1    4    4    0    0 -0.74746609518E-01  0.17093322896E-01  0.26127632639E-02  0.76722389007E-01  0.51100000000E-03 0. -1.
         11    1    4    4    0    0 -0.47968863767E-01  0.63617935322E-02  0.16769638642E-01  0.51214902218E-01  0.51100000000E-03 0.  1.
</event>
<event>
 8    1  0.1115874E+005  0.1043930E+01  0.7957747E-01            NaN
         13   -1    0    0    0    0  0.00000000000E+00  0.00000000000E+00  0.74505805969E-08  0.10566000000E+00  0.10566000000E+00 0. -1.
     999900   -1    0    0    0    0 -0.00000000000E+00 -0.00000000000E+00 -0.74505805969E-08  0.93827000000E+00  0.93827000000E+00 0. -1.
     999902    2    1    2    0    0 -0.13769104735E-01 -0.11527428332E-01 -0.15547970778E-01  0.10201769108E+01  0.10199003482E+01 0.  0.
     999903    2    3    3    0    0  0.12181950472E+00 -0.36763451563E-01 -0.12432719681E-01  0.12942956582E+00  0.20146882867E-01 0.  0.
         14    1    1    2    0    0  0.13769104735E-01  0.11527428332E-01  0.15547970778E-01  0.23753089156E-01  0.00000000000E+00 0. -1.
     999901    1    3    3    0    0 -0.13558860945E+00  0.25236023231E-01 -0.31152510967E-02  0.89074734503E+00  0.88000000000E+00 0. -1.
        -11    1    4    4    0    0  0.41541716307E-01 -0.21804610931E-01 -0.65824047018E-03  0.46923870824E-01  0.51100000000E-03 0.  1.
         11    1    4    4    0    0  0.80277788408E-01 -0.14958840632E-01 -0.11774479211E-01  0.82505694994E-01  0.51100000000E-03 0. -1.
</event>
<event>
 8    1  0.1115874E+005  0.1043930E+01  0.7957747E-01            NaN
         13   -1    0    0    0    0  0.00000000000E+00  0.00000000000E+00  0.74505805969E-08  0.10566000000E+00  0.10566000000E+00 0.  1.
     999900   -1    0    0    0    0 -0.00000000000E+00 -0.00000000000E+00 -0.74505805969E-08  0.93827000000E+00  0.93827000000E+00 0.  1.
     999902    2    1    2    0    0  0.14248913873E-01 -0.18182714537E-01 -0.66838382532E-04  0.10208291965E+01  0.10205677838E+01 0.  0.
     999903    2    3    3    0    0 -0.58980931059E-01  0.10989901086E+00 -0.22993306666E-01  0.12825249868E+00  0.19064848521E-01 0.  0.
         14    1    1    2    0    0 -0.14248913873E-01  0.18182714537E-01  0.66838382532E-04  0.23100803489E-01  0.00000000000E+00 0. -1.
     999901    1    3    3    0    0  0.73229844933E-01 -0.12808172539E+00  0.22926468284E-01  0.89257669783E+00  0.88000000000E+00 0. -1.
        -11    1    4    4    0    0 -0.27214265931E-01  0.63747500649E-01 -0.53998594539E-02  0.69525388976E-01  0.51100000000E-03 0. -1.
         11    1    4    4    0    0 -0.31766665128E-01  0.46151510208E-01 -0.17593447212E-01  0.58727109700E-01  0.51100000000E-03 0.  1.
</event>
<event>
 8    1  0.1115874E+005  0.1043930E+01  0.7957747E-01            NaN
         13   -1    0    0    0    0  0.00000000000E+00  0.00000000000E+00  0.74505805969E-08  0.10566000000E+00  0.10566000000E+00 0.  1.
     999900   -1    0    0    0    0 -0.00000000000E+00 -0.00000000000E+00 -0.74505805969E-08  0.93827000000E+00  0.93827000000E+00 0. -1.
     999902    2    1    2    0    0  0.12042069286E-01  0.19051650925E-01 -0.14944932339E-01  0.10168869262E+01  0.10165272711E+01 0.  0.
     999903    2    3    3    0    0 -0.78841326378E-01  0.96388034331E-01 -0.25738273893E-01  0.12876688704E+00  0.20293953497E-01 0.  0.
         14    1    1    2    0    0 -0.12042069286E-01 -0.19051650925E-01  0.14944932339E-01  0.27043073758E-01  0.00000000000E+00 0.  1.
     999901    1    3    3    0    0  0.90883395664E-01 -0.77336383406E-01  0.10793341554E-01  0.88812003920E+00  0.88000000000E+00 0.  1.
        -11    1    4    4    0    0 -0.52887810078E-01  0.65407320388E-01 -0.75797252761E-02  0.84456801807E-01  0.51100000000E-03 0.  1.
         11    1    4    4    0    0 -0.25953516300E-01  0.30980713942E-01 -0.18158548617E-01  0.44310085236E-01  0.51100000000E-03 0. -1.
</event>
<event>
 8    1  0.1115874E+005  0.1043930E+01  0.7957747E-01            NaN
         13   -1    0    0    0    0  0.00000000000E+00  0.00000000000E+00  0.74505805969E-08  0.10566000000E+00  0.10566000000E+00 0.  1.
     999900   -1    0    0    0    0 -0.00000000000E+00 -0.00000000000E+00 -0.74505805969E-08  0.93827000000E+00  0.93827000000E+00 0. -1.
     999902    2    1    2    0    0 -0.20817395674E-01 -0.10521223546E-01  0.71742602687E-02  0.10195265142E+01  0.10192344103E+01 0.  0.
     999903    2    3    3    0    0  0.11675229554E+00  0.69627800213E-02  0.44577300717E-01  0.12788191140E+00  0.26211995405E-01 0.  0.
         14    1    1    2    0    0  0.20817395674E-01  0.10521223546E-01 -0.71742602687E-02  0.24403485775E-01  0.00000000000E+00 0.  1.
     999901    1    3    3    0    0 -0.13756969121E+00 -0.17484003568E-01 -0.37403040448E-01  0.89164460283E+00  0.88000000000E+00 0.  1.
        -11    1    4    4    0    0  0.50169882248E-01  0.13076771298E-01  0.28281386665E-01  0.59060282636E-01  0.51100000000E-03 0.  1.
         11    1    4    4    0    0  0.66582413293E-01 -0.61139912768E-02  0.16295914052E-01  0.68821628759E-01  0.51100000000E-03 0. -1.
</event>
<event>
 8    1  0.1433603E+005  0.1043930E+01  0.7957747E-01            NaN
         13   -1    0    0    0    0  0.00000000000E+00  0.00000000000E+00  0.74505805969E-08  0.10566000000E+00  0.10566000000E+00 0. -1.
     999900   -1    0    0    0    0 -0.00000000000E+00 -0.00000000000E+00 -0.74505805969E-08  0.93827000000E+00  0.93827000000E+00 0.  1.
     999902    2    1    2    0    0 -0.10578155867E-01 -0.48285222955E-03 -0.21761226365E-01  0.10197291426E+01  0.10194419271E+01 0.  0.
     999903    2    3    3    0    0  0.10482825843E+00  0.57054446764E-01  0.41335771820E-01  0.12809557858E+00  0.21346136873E-01 0.  0.
         14    1    1    2    0    0  0.10578155867E-01  0.48285222955E-03  0.21761226365E-01  0.24200857438E-01  0.00000000000E+00 0. -1.
     999901    1    3    3    0    0 -0.11540641430E+00 -0.57537298994E-01 -0.63096998185E-01  0.89163356398E+00  0.88000000000E+00 0. -1.
        -11    1    4    4    0    0  0.47105598347E-01  0.37472676443E-01  0.18038888856E-01  0.62839490033E-01  0.51100000000E-03 0. -1.
         11    1    4    4    0    0  0.57722660082E-01  0.19581770321E-01  0.23296882964E-01  0.65256088549E-01  0.51100000000E-03 0.  1.
</event>
<event>
 8    1  0.1115874E+005  0.1043930E+01  0.7957747E-01            NaN
         13   -1    0    0    0    0  0.00000000000E+00  0.00000000000E+00  0.74505805969E-08  0.10566000000E+00  0.10566000000E+00 0. -1.
     999900   -1    0    0    0    0 -0.00000000000E+00 -0.00000000000E+00 -0.74505805969E-08  0.93827000000E+00  0.93827000000E+00 0. -1.
     999902    2    1    2    0    0 -0.32445830100E-02  0.73403049771E-02 -0.27271621957E-01  0.10155020426E+01  0.10151040586E+01 0.  0.
     999903    2    3    3    0    0 -0.74672751083E-01 -0.99127866491E-01  0.63711322967E-02  0.12557547844E+00  0.18062552153E-01 0.  0.
         14    1    1    2    0    0  0.32445830100E-02 -0.73403049771E-02  0.27271621957E-01  0.28427957370E-01  0.00000000000E+00 0. -1.
     999901    1    3    3    0    0  0.71428168073E-01  0.10646817147E+00 -0.33642754254E-01  0.88992656419E+00  0.88000000000E+00 0. -1.
        -11    1    4    4    0    0 -0.15466023393E-01 -0.27915265352E-01 -0.48597358543E-02  0.32285260923E-01  0.51100000000E-03 0.  1.
         11    1    4    4    0    0 -0.59206727689E-01 -0.71212601139E-01  0.11230868151E-01  0.93290217521E-01  0.51100000000E-03 0. -1.
</event>
<event>
 8    1  0.1115874E+005  0.1043930E+01  0.7957747E-01            NaN
         13   -1    0    0    0    0  0.00000000000E+00  0.00000000000E+00  0.74505805969E-08  0.10566000000E+00  0.10566000000E+00 0.  1.
     999900   -1    0    0    0    0 -0.00000000000E+00 -0.00000000000E+00 -0.74505805969E-08  0.93827000000E+00  0.93827000000E+00 0.  1.
     999902    2    1    2    0    0  0.12097821698E-01 -0.11761509736E-01  0.14540867318E-01  0.10216560865E+01  0.10214132522E+01 0.  0.
     999903    2    3    3    0    0 -0.21518033336E-01  0.10567738305E+00  0.67513775699E-01  0.13164032917E+00  0.33768791913E-01 0.  0.
         14    1    1    2    0    0 -0.12097821698E-01  0.11761509736E-01 -0.14540867318E-01  0.22273913519E-01  0.00000000000E+00 0.  1.
     999901    1    3    3    0    0  0.33615855034E-01 -0.11743889278E+00 -0.52972908381E-01  0.89001575732E+00  0.88000000000E+00 0.  1.
        -11    1    4    4    0    0 -0.72875697354E-02  0.94806296534E-01  0.56280867337E-01  0.11049497583E+00  0.51100000000E-03 0. -1.
         11    1    4    4    0    0 -0.14230463601E-01  0.10871086513E-01  0.11232908362E-01  0.21145353332E-01  0.51100000000E-03 0.  1.
</event>
<event>
 8    1  0.1115874E+005  0.1043930E+01  0.7957747E-01            NaN
         13   -1    0    0    0    0  0.00000000000E+00  0.00000000000E+00  0.74505805969E-08  0.10566000000E+00  0.10566000000E+00 0. -1.
     999900   -1    0    0    0    0 -0.00000000000E+00 -0.00000000000E+00 -0.74505805969E-08  0.93827000000E+00  0.93827000000E+00 0.  1.
     999902    2    1    2    0    0 -0.14854112453E-01 -0.29594340707E-02 -0.18058327918E-01  0.10203608228E+01  0.10200885759E+01 0.  0.
     999903    2    3    3    0    0 -0.12789322974E+00  0.16523820255E-01  0.18728126820E-01  0.13215438143E+00  0.22007338473E-01 0.  0.
         14    1    1    2    0    0  0.14854112453E-01  0.29594340707E-02  0.18058327918E-01  0.23569177202E-01  0.00000000000E+00 0. -1.
     999901    1    3    3    0    0  0.11303911729E+00 -0.19483254325E-01 -0.36786454738E-01  0.88820644137E+00  0.88000000000E+00 0.  1.
        -11    1    4    4    0    0 -0.52427568001E-01  0.16291454072E-01  0.13305209161E-01  0.56492044343E-01  0.51100000000E-03 0.  1.
         11    1    4    4    0    0 -0.75465661743E-01  0.23236618222E-03  0.54229176587E-02  0.75662337086E-01  0.51100000000E-03 0. -1.
</event>
<event>
 8    1  0.1115874E+005  0.1043930E+01  0.7957747E-01            NaN
         13   -1    0    0    0    0  0.00000000000E+00  0.00000000000E+00  0.74505805969E-08  0.10566000000E+00  0.10566000000E+00 0. -1.
     999900   -1    0    0    0    0 -0.00000000000E+00 -0.00000000000E+00 -0.74505805969E-08  0.93827000000E+00  0.93827000000E+00 0.  1.
     999902    2    1    2    0    0 -0.18285620582E-01  0.90171303662E-02  0.10889355915E-01  0.10208161377E+01  0.10205544259E+01 0.  0.
     999903    2    3    3    0    0  0.70900566397E-01  0.53935247500E-01  0.95530655658E-01  0.13113306891E+00  0.11570408503E-01 0.  0.
         14    1    1    2    0    0  0.18285620582E-01 -0.90171303662E-02 -0.10889355915E-01  0.23113862342E-01  0.00000000000E+00 0. -1.
     999901    1    3    3    0    0 -0.89186186979E-01 -0.44918117133E-01 -0.84641299743E-01  0.88968306875E+00  0.88000000000E+00 0.  1.
        -11    1    4    4    0    0  0.51702268604E-01  0.36222484172E-01  0.74065900438E-01  0.97320150365E-01  0.51100000000E-03 0.  1.
         11    1    4    4    0    0  0.19198297793E-01  0.17712763327E-01  0.21464755221E-01  0.33812918545E-01  0.51100000000E-03 0. -1.
</event>
<event>
 8    1  0.1115874E+005  0.1043930E+01  0.7957747E-01            NaN
         13   -1    0    0    0    0  0.00000000000E+00  0.00000000000E+00  0.74505805969E-08  0.10566000000E+00  0.10566000000E+00 0. -1.
     999900   -1    0    0    0    0 -0.00000000000E+00 -0.00000000000E+00 -0.74505805969E-08  0.93827000000E+00  0.93827000000E+00 0.  1.
     999902    2    1    2    0    0  0.13131720737E-01 -0.93621336102E-02 -0.17789160693E-01  0.10199186303E+01  0.10196359481E+01 0.  0.
     999903    2    3    3    0    0 -0.12058483924E+00 -0.35135190783E-01  0.25553835354E-01  0.12839017639E+00  0.74735403693E-02 0.  0.
         14    1    1    2    0    0 -0.13131720737E-01  0.93621336102E-02  0.17789160693E-01  0.24011369669E-01  0.00000000000E+00 0. -1.
     999901    1    3    3    0    0  0.13371655997E+00  0.25773057173E-01 -0.43342996046E-01  0.89152845395E+00  0.88000000000E+00 0.  1.
        -11    1    4    4    0    0 -0.21487974104E-01 -0.88130459036E-02  0.32355782079E-02  0.23454911992E-01  0.51100000000E-03 0.  1.
         11    1    4    4    0    0 -0.99096865134E-01 -0.26322144879E-01  0.22318257146E-01  0.10493526439E+00  0.51100000000E-03 0. -1.
</event>
<event>
 8    1  0.1115874E+005  0.1043930E+01  0.7957747E-01            NaN
         13   -1    0    0    0    0  0.00000000000E+00  0.00000000000E+00  0.74505805969E-08  0.10566000000E+00  0.10566000000E+00 0.  1.
     999900   -1    0    0    0    0 -0.00000000000E+00 -0.00000000000E+00 -0.74505805969E-08  0.93827000000E+00  0.93827000000E+00 0.  1.
     999902    2    1    2    0    0  0.20745095671E-01  0.87557839723E-02  0.10486324402E-02  0.10213884300E+01  0.10211396587E+01 0.  0.
     999903    2    3    3    0    0  0.98104179475E-01 -0.82644322480E-01 -0.28498114149E-01  0.13278760988E+00  0.19128323492E-01 0.  0.
         14    1    1    2    0    0 -0.20745095671E-01 -0.87557839723E-02 -0.10486324402E-02  0.22541569984E-01  0.00000000000E+00 0. -1.
     999901    1    3    3    0    0 -0.77359083804E-01  0.91400106453E-01  0.29546746589E-01  0.88860082013E+00  0.88000000000E+00 0. -1.
        -11    1    4    4    0    0  0.22473448963E-01 -0.13206536780E-01 -0.12361351134E-01  0.28853641795E-01  0.51100000000E-03 0. -1.
         11    1    4    4    0    0  0.75630730513E-01 -0.69437785700E-01 -0.16136763015E-01  0.10393396809E+00  0.51100000000E-03 0.  1.
</event>
<event>
 8    1  0.1115874E+005  0.1043930E+01  0.7957747E-01            NaN
         13   -1    0    0    0    0  0.00000000000E+00  0.00000000000E+00  0.74505805969E-08  0.10566000000E+00  0.10566000000E+00 0. -1.
     999900   -1    0    0    0    0 -0.00000000000E+00 -0.00000000000E+00 -0.74505805969E-08  0.93827000000E+00  0.93827000000E+00 0.  1.
     999902    2    1    2    0    0  0.20599955118E-01 -0.77985393151E-02 -0.87632112407E-02  0.10202241096E+01  0.10199486579E+01 0.  0.
     999903    2    3    3    0    0  0.41698947533E-01  0.12187735200E+00  0.56338806328E-02  0.13035429865E+00  0.19173195060E-01 0.  0.
         14    1    1    2    0    0 -0.20599955118E-01  0.77985393151E-02  0.87632112407E-02  0.23705890356E-01  0.00000000000E+00 0. -1.
     999901    1    3    3    0    0 -0.21098992415E-01 -0.12967589132E+00 -0.14397091874E-01  0.88986981100E+00  0.88000000000E+00 0. -1.
        -11    1    4    4    0    0  0.11962908335E-01  0.27736463783E-01 -0.64473131967E-02  0.30890962553E-01  0.51100000000E-03 0. -1.
         11    1    4    4    0    0  0.29736039197E-01  0.94140888218E-01  0.12081193829E-01  0.99463336094E-01  0.51100000000E-03 0.  1.
</event>
<event>
 8    1  0.1115874E+005  0.1043930E+01  0.7957747E-01            NaN
         13   -1    0    0    0    0  0.00000000000E+00  0.00000000000E+00  0.74505805969E-08  0.10566000000E+00  0.10566000000E+00 0. -1.
     999900   -1    0    0    0    0 -0.00000000000E+00 -0.00000000000E+00 -0.74505805969E-08  0.93827000000E+00  0.93827000000E+00 0.  1.
     999902    2    1    2    0    0  0.82326378119E-02 -0.22200715136E-02 -0.22605389711E-01  0.10197699361E+01  0.10194836997E+01 0.  0.
     999903    2    3    3    0    0  0.12799798646E+00  0.17229987184E-01  0.80898614660E-02  0.13091435619E+00  0.19818319846E-01 0.  0.
         14    1    1    2    0    0 -0.82326378119E-02  0.22200715136E-02  0.22605389711E-01  0.24160063884E-01  0.00000000000E+00 0. -1.
     999901    1    3    3    0    0 -0.11976534865E+00 -0.19450058697E-01 -0.30695251177E-01  0.88885557993E+00  0.88000000000E+00 0. -1.
        -11    1    4    4    0    0  0.36786926322E-01  0.10288571209E-01 -0.49203024166E-02  0.38517569272E-01  0.51100000000E-03 0. -1.
         11    1    4    4    0    0  0.91211060140E-01  0.69414159744E-02  0.13010163883E-01  0.92396786918E-01  0.51100000000E-03 0.  1.
</event>
<event>
 8    1  0.1115874E+005  0.1043930E+01  0.7957747E-01            NaN
         13   -1    0    0    0    0  0.00000000000E+00  0.00000000000E+00  0.74505805969E-08  0.10566000000E+00  0.10566000000E+00 0.  1.
     999900   -1    0    0    0    0 -0.00000000000E+00 -0.00000000000E+00 -0.74505805969E-08  0.93827000000E+00  0.93827000000E+00 0.  1.
     999902    2    1    2    0    0  0.14815931823E-01 -0.88062417511E-03  0.20102339457E-01  0.10189421752E+01  0.10186357372E+01 0.  0.
     999903    2    3    3    0    0  0.51552780288E-01  0.27010134703E-01  0.11704501328E+00  0.13241785381E+00  0.21159308680E-01 0.  0.
         14    1    1    2    0    0 -0.14815931823E-01  0.88062417511E-03 -0.20102339457E-01  0.24987824763E-01  0.00000000000E+00 0. -1.
     999901    1    3    3    0    0 -0.36736848465E-01 -0.27890758879E-01 -0.96942673820E-01  0.88652432142E+00  0.88000000000E+00 0.  1.
        -11    1    4    4    0    0  0.83428834730E-02  0.59489661851E-03  0.58143830341E-02  0.10199302804E-01  0.51100000000E-03 0. -1.
         11    1    4    4    0    0  0.43209896815E-01  0.26415238085E-01  0.11123063024E+00  0.12221855101E+00  0.51100000000E-03 0.  1.
</event>
<event>
 8    1  0.1115874E+005  0.1043930E+01  0.7957747E-01            NaN
         13   -1    0    0    0    0  0.00000000000E+00  0.00000000000E+00  0.74505805969E-08  0.10566000000E+00  0.10566000000E+00 0.  1.
     999900   -1    0    0    0    0 -0.00000000000E+00 -0.00000000000E+00 -0.74505805969E-08  0.93827000000E+00  0.93827000000E+00 0.  1.
     999902    2    1    2    0    0  0.57969077360E-02  0.14544814535E-01 -0.17550712346E-01  0.10204101515E+01  0.10201390562E+01 0.  0.
     999903    2    3    3    0    0  0.45552867505E-01 -0.11814413354E+00 -0.16516130556E-01  0.12957460909E+00  0.21993106281E-01 0.  0.
         14    1    1    2    0    0 -0.57969077360E-02 -0.14544814535E-01  0.17550712346E-01  0.23519848490E-01  0.00000000000E+00 0.  1.
     999901    1    3    3    0    0 -0.39755959769E-01  0.13268894808E+00 -0.10345817897E-02  0.89083554242E+00  0.88000000000E+00 0.  1.
        -11    1    4    4    0    0  0.34222570887E-01 -0.77155877758E-01 -0.13331172144E-02  0.84417131871E-01  0.51100000000E-03 0. -1.
         11    1    4    4    0    0  0.11330296618E-01 -0.40988255784E-01 -0.15183013342E-01  0.45157477219E-01  0.51100000000E-03 0.  1.
</event>
<event>
 8    1  0.1115874E+005  0.1043930E+01  0.7957747E-01            NaN
         13   -1    0    0    0    0  0.00000000000E+00  0.00000000000E+00  0.74505805969E-08  0.10566000000E+00  0.10566000000E+00 0.  1.
     999900   -1    0    0    0    0 -0.00000000000E+00 -0.00000000000E+00 -0.74505805969E-08  0.93827000000E+00  0.93827000000E+00 0. -1.
     999902    2    1    2    0    0  0.10218974125E-01  0.55325884565E-02  0.19861289733E-01  0.10209189636E+01  0.10206596016E+01 0.  0.
     999903    2    3    3    0    0  0.77896025156E-01 -0.48484830203E-01 -0.89724887441E-01  0.12990426394E+00  0.20149264699E-01 0.  0.
         14    1    1    2    0    0 -0.10218974125E-01 -0.55325884565E-02 -0.19861289733E-01  0.23011036418E-01  0.00000000000E+00 0. -1.
     999901    1    3    3    0    0 -0.67677051031E-01  0.54017418659E-01  0.10958617717E+00  0.89101469964E+00  0.88000000000E+00 0.  1.
        -11    1    4    4    0    0  0.59261694323E-03 -0.51370367964E-02 -0.65345026534E-02  0.83487237238E-02  0.51100000000E-03 0.  1.
         11    1    4    4    0    0  0.77303408212E-01 -0.43347793406E-01 -0.83190384788E-01  0.12155554021E+00  0.51100000000E-03 0. -1.
</event>
<event>
 8    1  0.1115874E+005  0.1043930E+01  0.7957747E-01            NaN
         13   -1    0    0    0    0  0.00000000000E+00  0.00000000000E+00  0.74505805969E-08  0.10566000000E+00  0.10566000000E+00 0. -1.
     999900   -1    0    0    0    0 -0.00000000000E+00 -0.00000000000E+00 -0.74505805969E-08  0.93827000000E+00  0.93827000000E+00 0. -1.
     999902    2    1    2    0    0 -0.67092733360E-03 -0.11017681208E-01 -0.19059047282E-01  0.10219053155E+01  0.10216679437E+01 0.  0.
     999903    2    3    3    0    0  0.11044477938E+00  0.50376016894E-01  0.43850970719E-01  0.13057285409E+00  0.19762849583E-01 0.  0.
         14    1    1    2    0    0  0.67092733360E-03  0.11017681208E-01  0.19059047282E-01  0.22024684469E-01  0.00000000000E+00 0. -1.
     999901    1    3    3    0    0 -0.11111570671E+00 -0.61393698102E-01 -0.62910018001E-01  0.89133246144E+00  0.88000000000E+00 0. -1.
        -11    1    4    4    0    0  0.43094638715E-01  0.23404098469E-01  0.81579588498E-02  0.49716326541E-01  0.51100000000E-03 0.  1.
         11    1    4    4    0    0  0.67350140662E-01  0.26971918424E-01  0.35693011869E-01  0.80856527554E-01  0.51100000000E-03 0. -1.
</event>
<event>
 8    1  0.1115874E+005  0.1043930E+01  0.7957747E-01            NaN
         13   -1    0    0    0    0  0.00000000000E+00  0.00000000000E+00  0.74505805969E-08  0.10566000000E+00  0.10566000000E+00 0.  1.
     999900   -1    0    0    0    0 -0.00000000000E+00 -0.00000000000E+00 -0.74505805969E-08  0.93827000000E+00  0.93827000000E+00 0.  1.
     999902    2    1    2    0    0  0.68346094918E-02  0.19695875629E-01 -0.95630565266E-02  0.10209933164E+01  0.10207356468E+01 0.  0.
     999903    2    3    3    0    0 -0.10402226467E+00 -0.24571199185E-01 -0.72503235158E-01  0.13070668474E+00  0.20078420022E-01 0.  0.
         14    1    1    2    0    0 -0.68346094918E-02 -0.19695875629E-01  0.95630565266E-02  0.22936683584E-01  0.00000000000E+00 0.  1.
     999901    1    3    3    0    0  0.11085687416E+00  0.44267074814E-01  0.62940178632E-01  0.89028663168E+00  0.88000000000E+00 0. -1.
        -11    1    4    4    0    0 -0.33076256456E-01 -0.87779650379E-02 -0.12437010429E-01  0.36414719013E-01  0.51100000000E-03 0. -1.
         11    1    4    4    0    0 -0.70946008211E-01 -0.15793234147E-01 -0.60066224729E-01  0.94291965724E-01  0.51100000000E-03 0.  1.
</event>
<event>
 8    1  0.1115874E+005  0.1043930E+01  0.7957747E-01            NaN
         13   -1    0    0    0    0  0.00000000000E+00  0.00000000000E+00  0.74505805969E-08  0.10566000000E+00  0.10566000000E+00 0.  1.
     999900   -1    0    0    0    0 -0.00000000000E+00 -0.00000000000E+00 -0.74505805969E-08  0.93827000000E+00  0.93827000000E+00 0. -1.
     999902    2    1    2    0    0 -0.91818690490E-04  0.15658437689E-02 -0.23486221112E-01  0.10203914597E+01  0.10201199283E+01 0.  0.
     999903    2    3    3    0    0  0.14416501942E-01  0.92469754087E-01  0.86338868927E-01  0.12879987008E+00  0.19404002055E-01 0.  0.
         14    1    1    2    0    0  0.91818690490E-04 -0.15658437689E-02  0.23486221112E-01  0.23538540301E-01  0.00000000000E+00 0.  1.
     999901    1    3    3    0    0 -0.14508320632E-01 -0.90903910318E-01 -0.10982509004E+00  0.89159158962E+00  0.88000000000E+00 0. -1.
        -11    1    4    4    0    0  0.98869125455E-02  0.14996193975E-01  0.16363007236E-01  0.24303209669E-01  0.51100000000E-03 0. -1.
         11    1    4    4    0    0  0.45295893960E-02  0.77473560112E-01  0.69975861691E-01  0.10449666041E+00  0.51100000000E-03 0.  1.
</event>
<event>
 8    1  0.1115874E+005  0.1043930E+01  0.7957747E-01            NaN
         13   -1    0    0    0    0  0.00000000000E+00  0.00000000000E+00  0.74505805969E-08  0.10566000000E+00  0.10566000000E+00 0.  1.
     999900   -1    0    0    0    0 -0.00000000000E+00 -0.00000000000E+00 -0.74505805969E-08  0.93827000000E+00  0.93827000000E+00 0.  1.
     999902    2    1    2    0    0 -0.39226006789E-02  0.12226991719E-03  0.23415926818E-01  0.10201874775E+01  0.10199111637E+01 0.  0.
     999903    2    3    3    0    0 -0.10905506972E-01 -0.71191388373E-01  0.11051987797E+00  0.13298879786E+00  0.16859213194E-01 0.  0.
         14    1    1    2    0    0  0.39226006789E-02 -0.12226991719E-03 -0.23415926818E-01  0.23742522502E-01  0.00000000000E+00 0. -1.
     999901    1    3    3    0    0  0.69829062928E-02  0.71313658290E-01 -0.87103951154E-01  0.88719867963E+00  0.88000000000E+00 0.  1.
        -11    1    4    4    0    0 -0.10383243623E-01 -0.21200106028E-01  0.29520491455E-01  0.37801809222E-01  0.51100000000E-03 0. -1.
         11    1    4    4    0    0 -0.52226334872E-03 -0.49991282345E-01  0.80999386517E-01  0.95186988642E-01  0.51100000000E-03 0.  1.
</event>
<event>
 8    1  0.1115874E+005  0.1043930E+01  0.7957747E-01            NaN
         13   -1    0    0    0    0  0.00000000000E+00  0.00000000000E+00  0.74505805969E-08  0.10566000000E+00  0.10566000000E+00 0. -1.
     999900   -1    0    0    0    0 -0.00000000000E+00 -0.00000000000E+00 -0.74505805969E-08  0.93827000000E+00  0.93827000000E+00 0. -1.
     999902    2    1    2    0    0  0.16764599123E-02  0.18600638523E-01 -0.15051353577E-01  0.10199438057E+01  0.10196617230E+01 0.  0.
     999903    2    3    3    0    0 -0.53114296684E-01  0.62751934732E-01 -0.10257166625E+00  0.13280730603E+00  0.18918244981E-01 0.  0.
         14    1    1    2    0    0 -0.16764599123E-02 -0.18600638523E-01  0.15051353577E-01  0.23986194275E-01  0.00000000000E+00 0. -1.
     999901    1    3    3    0    0  0.54790756596E-01 -0.44151296208E-01  0.87520312668E-01  0.88713649970E+00  0.88000000000E+00 0.  1.
        -11    1    4    4    0    0 -0.45606513728E-01  0.50687744577E-01 -0.72408558006E-01  0.99460856312E-01  0.51100000000E-03 0. -1.
         11    1    4    4    0    0 -0.75077829561E-02  0.12064190154E-01 -0.30163108239E-01  0.33346449716E-01  0.51100000000E-03 0.  1.
</event>
<event>
 8    1  0.1115874E+005  0.1043930E+01  0.7957747E-01            NaN
         13   -1    0    0    0    0  0.00000000000E+00  0.00000000000E+00  0.74505805969E-08  0.10566000000E+00  0.10566000000E+00 0. -1.
     999900   -1    0    0    0    0 -0.00000000000E+00 -0.00000000000E+00 -0.74505805969E-08  0.93827000000E+00  0.93827000000E+00 0.  1.
     999902    2    1    2    0    0 -0.12148583721E-01 -0.14366068782E-01  0.14336779657E-01  0.10202759249E+01  0.10200016900E+01 0.  0.
     999903    2    3    3    0    0  0.41055696024E-01  0.11966113993E+00 -0.83792283991E-02  0.12825013766E+00  0.19326866162E-01 0.  0.
         14    1    1    2    0    0  0.12148583721E-01  0.14366068782E-01 -0.14336779657E-01  0.23654075117E-01  0.00000000000E+00 0. -1.
     999901    1    3    3    0    0 -0.53204279745E-01 -0.13402720871E+00  0.22716008056E-01  0.89202578723E+00  0.88000000000E+00 0.  1.
        -11    1    4    4    0    0  0.17609176340E-01  0.32092194751E-01 -0.85517462926E-02  0.37595020162E-01  0.51100000000E-03 0.  1.
         11    1    4    4    0    0  0.23446519683E-01  0.87568945175E-01  0.17251789350E-03  0.90655117494E-01  0.51100000000E-03 0. -1.
</event>
<event>
 8    1  0.1115874E+005  0.1043930E+01  0.7957747E-01            NaN
         13   -1    0    0    0    0  0.00000000000E+00  0.00000000000E+00  0.74505805969E-08  0.10566000000E+00  0.10566000000E+00 0. -1.
     999900   -1    0    0    0    0 -0.00000000000E+00 -0.00000000000E+00 -0.74505805969E-08  0.93827000000E+00  0.93827000000E+00 0. -1.
     999902    2    1    2    0    0  0.47240320001E-02  0.15641438487E-01 -0.17658557129E-01  0.10198718264E+01  0.10195880279E+01 0.  0.
     999903    2    3    3    0    0 -0.11667647841E-01  0.10613537781E+00  0.72414154837E-01  0.13050635954E+00  0.19678608461E-01 0.  0.
         14    1    1    2    0    0 -0.47240320001E-02 -0.15641438487E-01  0.17658557129E-01  0.24058173583E-01  0.00000000000E+00 0. -1.
     999901    1    3    3    0    0  0.16391679841E-01 -0.90493939327E-01 -0.90072711967E-01  0.88936546687E+00  0.88000000000E+00 0. -1.
        -11    1    4    4    0    0 -0.15723103584E-01  0.99807498461E-01  0.67344795516E-01  0.12142625474E+00  0.51100000000E-03 0.  1.
         11    1    4    4    0    0  0.40554557432E-02  0.63278793528E-02  0.50693593215E-02  0.90801048077E-02  0.51100000000E-03 0. -1.
</event>
<event>
 8    1  0.1115874E+005  0.1043930E+01  0.7957747E-01            NaN
         13   -1    0    0    0    0  0.00000000000E+00  0.00000000000E+00  0.74505805969E-08  0.10566000000E+00  0.10566000000E+00 0. -1.
     999900   -1    0    0    0    0 -0.00000000000E+00 -0.00000000000E+00 -0.74505805969E-08  0.93827000000E+00  0.93827000000E+00 0.  1.
     999902    2    1    2    0    0 -0.11905005142E-01  0.29979135509E-02 -0.20313008858E-01  0.10201953215E+01  0.10199191924E+01 0.  0.
     999903    2    3    3    0    0  0.37007375024E-01  0.67313616080E-01 -0.10591251644E+00  0.13235738237E+00  0.20008668426E-01 0.  0.
         14    1    1    2    0    0  0.11905005142E-01 -0.29979135509E-02  0.20313008858E-01  0.23734678467E-01  0.00000000000E+00 0. -1.
     999901    1    3    3    0    0 -0.48912380166E-01 -0.64315702529E-01  0.85599507583E-01  0.88783793917E+00  0.88000000000E+00 0. -1.
        -11    1    4    4    0    0  0.27232353367E-01  0.54526310155E-01 -0.95116951206E-01  0.11296997432E+00  0.51100000000E-03 0. -1.
         11    1    4    4    0    0  0.97750216569E-02  0.12787305925E-01 -0.10795565234E-01  0.19387408051E-01  0.51100000000E-03 0.  1.
</event>
<event>
 8    1  0.1115874E+005  0.1043930E+01  0.7957747E-01            NaN
         13   -1    0    0    0    0  0.00000000000E+00  0.00000000000E+00  0.74505805969E-08  0.10566000000E+00  0.10566000000E+00 0.  1.
     999900   -1    0    0    0    0 -0.00000000000E+00 -0.00000000000E+00 -0.74505805969E-08  0.93827000000E+00  0.93827000000E+00 0. -1.
     999902    2    1    2    0    0 -0.22594155011E-01  0.74422446925E-02  0.78554475221E-03  0.10201287411E+01  0.10198510423E+01 0.  0.
     999903    2    3    3    0    0  0.25316474347E-01  0.94222952228E-01  0.84076268350E-01  0.13065492793E+00  0.21977322226E-01 0.  0.
         14    1    1    2    0    0  0.22594155011E-01 -0.74422446925E-02 -0.78554475221E-03  0.23801258943E-01  0.00000000000E+00 0.  1.
     999901    1    3    3    0    0 -0.47910629357E-01 -0.86780707535E-01 -0.83290723598E-01  0.88947381313E+00  0.88000000000E+00 0. -1.
        -11    1    4    4    0    0  0.28040019207E-01  0.85159632430E-01  0.80596074330E-01  0.12055867447E+00  0.51100000000E-03 0. -1.
         11    1    4    4    0    0 -0.27235448604E-02  0.90633197977E-02  0.34801940200E-02  0.10096253453E-01  0.51100000000E-03 0.  1.
</event>
<event>
 8    1  0.1115874E+005  0.1043930E+01  0.7957747E-01            NaN
         13   -1    0    0    0    0  0.00000000000E+00  0.00000000000E+00  0.74505805969E-08  0.10566000000E+00  0.10566000000E+00 0.  1.
     999900   -1    0    0    0    0 -0.00000000000E+00 -0.00000000000E+00 -0.74505805969E-08  0.93827000000E+00  0.93827000000E+00 0. -1.
     999902    2    1    2    0    0 -0.63949256669E-02 -0.18387126665E-01 -0.13107983780E-01  0.10204608556E+01  0.10201909415E+01 0.  0.
     999903    2    3    3    0    0 -0.43572828949E-01  0.96728378414E-01 -0.73372895626E-01  0.13014313947E+00  0.17282486124E-01 0.  0.
         14    1    1    2    0    0  0.63949256669E-02  0.18387126665E-01  0.13107983780E-01  0.23469144425E-01  0.00000000000E+00 0.  1.
     999901    1    3    3    0    0  0.37177903282E-01 -0.11511550508E+00  0.60264911846E-01  0.89031771610E+00  0.88000000000E+00 0.  1.
        -11    1    4    4    0    0 -0.25844341035E-01  0.71074038351E-01 -0.58369365701E-01  0.95533726319E-01  0.51100000000E-03 0.  1.
         11    1    4    4    0    0 -0.17728487914E-01  0.25654340063E-01 -0.15003529925E-01  0.34609413156E-01  0.51100000000E-03 0. -1.
</event>
<event>
 8    1  0.1115874E+005  0.1043930E+01  0.7957747E-01            NaN
         13   -1    0    0    0    0  0.00000000000E+00  0.00000000000E+00  0.74505805969E-08  0.10566000000E+00  0.10566000000E+00 0. -1.
     999900   -1    0    0    0    0 -0.00000000000E+00 -0.00000000000E+00 -0.74505805969E-08  0.93827000000E+00  0.93827000000E+00 0.  1.
     999902    2    1    2    0    0  0.37135205017E-02  0.82984200796E-02 -0.21285583907E-01  0.10207841560E+01  0.10205217112E+01 0.  0.
     999903    2    3    3    0    0 -0.36330050799E-01 -0.12307557950E+00 -0.32571578829E-03  0.12988464911E+00  0.20061034959E-01 0.  0.
         14    1    1    2    0    0 -0.37135205017E-02 -0.82984200796E-02  0.21285583907E-01  0.23145843959E-01  0.00000000000E+00 0. -1.
     999901    1    3    3    0    0  0.40043571301E-01  0.13137399958E+00 -0.20959868119E-01  0.89089950693E+00  0.88000000000E+00 0. -1.
        -11    1    4    4    0    0 -0.12596084406E-01 -0.75154020565E-01  0.33638270395E-02  0.76278205293E-01  0.51100000000E-03 0. -1.
         11    1    4    4    0    0 -0.23733966393E-01 -0.47921558939E-01 -0.36895428278E-02  0.53606443822E-01  0.51100000000E-03 0.  1.
</event>
<event>
 8    1  0.1115874E+005  0.1043930E+01  0.7957747E-01            NaN
         13   -1    0    0    0    0  0.00000000000E+00  0.00000000000E+00  0.74505805969E-08  0.10566000000E+00  0.10566000000E+00 0.  1.
     999900   -1    0    0    0    0 -0.00000000000E+00 -0.00000000000E+00 -0.74505805969E-08  0.93827000000E+00  0.93827000000E+00 0. -1.
     999902    2    1    2    0    0  0.11554971374E-02  0.25395710450E-01 -0.12695878035E-01  0.10155141136E+01  0.10151164723E+01 0.  0.
     999903    2    3    3    0    0  0.40370699091E-01 -0.15371684626E-01  0.11482092073E+00  0.12452570369E+00  0.21371125602E-01 0.  0.
         14    1    1    2    0    0 -0.11554971374E-02 -0.25395710450E-01  0.12695878035E-01  0.28415886436E-01  0.00000000000E+00 0.  1.
     999901    1    3    3    0    0 -0.39215201954E-01  0.40767395076E-01 -0.12751679876E+00  0.89098840988E+00  0.88000000000E+00 0. -1.
        -11    1    4    4    0    0  0.95527077985E-03  0.29122800295E-02  0.19779218682E-01  0.20021801365E-01  0.51100000000E-03 0.  1.
         11    1    4    4    0    0  0.39415428311E-01 -0.18283964655E-01  0.95041702044E-01  0.10450390232E+00  0.51100000000E-03 0. -1.
</event>
<event>
 8    1  0.1115874E+005  0.1043930E+01  0.7957747E-01            NaN
         13   -1    0    0    0    0  0.00000000000E+00  0.00000000000E+00  0.74505805969E-08  0.10566000000E+00  0.10566000000E+00 0. -1.
     999900   -1    0    0    0    0 -0.00000000000E+00 -0.00000000000E+00 -0.74505805969E-08  0.93827000000E+00  0.93827000000E+00 0.  1.
     999902    2    1    2    0    0  0.11284325907E-01 -0.17957964744E-01 -0.10356962465E-01  0.10203272209E+01  0.10200541881E+01 0.  0.
     999903    2    3    3    0    0 -0.30732960689E-01  0.73119099779E-01  0.98032827087E-01  0.12802187490E+00  0.22096326402E-01 0.  0.
         14    1    1    2    0    0 -0.11284325907E-01  0.17957964744E-01  0.10356962465E-01  0.23602779083E-01  0.00000000000E+00 0.  1.
     999901    1    3    3    0    0  0.42017286596E-01 -0.91077064523E-01 -0.10838978955E+00  0.89230534602E+00  0.88000000000E+00 0.  1.
        -11    1    4    4    0    0 -0.34546147474E-02  0.10455052715E-01  0.28344356367E-01  0.30412269714E-01  0.51100000000E-03 0.  1.
         11    1    4    4    0    0 -0.27278345941E-01  0.62664047064E-01  0.69688470721E-01  0.97609605184E-01  0.51100000000E-03 0. -1.
</event>
<event>
 8    1  0.1115874E+005  0.1043930E+01  0.7957747E-01            NaN
         13   -1    0    0    0    0  0.00000000000E+00  0.00000000000E+00  0.74505805969E-08  0.10566000000E+00  0.10566000000E+00 0. -1.
     999900   -1    0    0    0    0 -0.00000000000E+00 -0.00000000000E+00 -0.74505805969E-08  0.93827000000E+00  0.93827000000E+00 0. -1.
     999902    2    1    2    0    0  0.65840810946E-02  0.15597029458E-01  0.15947191727E-01  0.10206720900E+01  0.10204070683E+01 0.  0.
     999903    2    3    3    0    0  0.11753296029E+00  0.45697141821E-01  0.38057520699E-01  0.13291956979E+00  0.17804820347E-01 0.  0.
         14    1    1    2    0    0 -0.65840810946E-02 -0.15597029458E-01 -0.15947191727E-01  0.23257909961E-01  0.00000000000E+00 0.  1.
     999901    1    3    3    0    0 -0.11094887919E+00 -0.30100112363E-01 -0.22110328972E-01  0.88775252025E+00  0.88000000000E+00 0.  1.
        -11    1    4    4    0    0  0.44347076643E-01  0.19768941302E-01  0.60331615530E-02  0.48929892768E-01  0.51100000000E-03 0.  1.
         11    1    4    4    0    0  0.73185883644E-01  0.25928200519E-01  0.32024359146E-01  0.83989677024E-01  0.51100000000E-03 0. -1.
</event>
<event>
 8    1  0.1115874E+005  0.1043930E+01  0.7957747E-01            NaN
         13   -1    0    0    0    0  0.00000000000E+00  0.00000000000E+00  0.74505805969E-08  0.10566000000E+00  0.10566000000E+00 0.  1.
     999900   -1    0    0    0    0 -0.00000000000E+00 -0.00000000000E+00 -0.74505805969E-08  0.93827000000E+00  0.93827000000E+00 0. -1.
     999902    2    1    2    0    0  0.16664603075E-01  0.10385968583E-01  0.13653261250E-01  0.10200137110E+01  0.10197332895E+01 0.  0.
     999903    2    3    3    0    0 -0.77648027752E-01  0.89081163015E-01  0.52360656625E-01  0.13063973539E+00  0.18985054159E-01 0.  0.
         14    1    1    2    0    0 -0.16664603075E-01 -0.10385968583E-01 -0.13653261250E-01  0.23916289047E-01  0.00000000000E+00 0. -1.
     999901    1    3    3    0    0  0.94312630827E-01 -0.78695194432E-01 -0.38707395376E-01  0.88937397557E+00  0.88000000000E+00 0.  1.
        -11    1    4    4    0    0 -0.34696194359E-01  0.54137043827E-01  0.29012020834E-01  0.70545048665E-01  0.51100000000E-03 0. -1.
         11    1    4    4    0    0 -0.42951833393E-01  0.34944119188E-01  0.23348635792E-01  0.60094686720E-01  0.51100000000E-03 0.  1.
</event>
<event>
 8    1  0.1115874E+005  0.1043930E+01  0.7957747E-01            NaN
         13   -1    0    0    0    0  0.00000000000E+00  0.00000000000E+00  0.74505805969E-08  0.10566000000E+00  0.10566000000E+00 0. -1.
     999900   -1    0    0    0    0 -0.00000000000E+00 -0.00000000000E+00 -0.74505805969E-08  0.93827000000E+00  0.93827000000E+00 0. -1.
     999902    2    1    2    0    0  0.17002541598E-01  0.15193658024E-01 -0.55874132560E-02  0.10204533552E+01  0.10201832665E+01 0.  0.
     999903    2    3    3    0    0  0.57648404317E-01 -0.11353763265E+00 -0.18460279073E-01  0.13006605629E+00  0.19033248483E-01 0.  0.
         14    1    1    2    0    0 -0.17002541598E-01 -0.15193658024E-01  0.55874132560E-02  0.23476644816E-01  0.00000000000E+00 0. -1.
     999901    1    3    3    0    0 -0.40645862719E-01  0.12873129067E+00  0.12872865817E-01  0.89038729889E+00  0.88000000000E+00 0. -1.
        -11    1    4    4    0    0  0.33951619365E-01 -0.79702054874E-01 -0.56664415209E-02  0.86818774981E-01  0.51100000000E-03 0. -1.
         11    1    4    4    0    0  0.23696784951E-01 -0.33835577776E-01 -0.12793837552E-01  0.43247281311E-01  0.51100000000E-03 0.  1.
</event>
<event>
 8    1  0.1115874E+005  0.1043930E+01  0.7957747E-01            NaN
         13   -1    0    0    0    0  0.00000000000E+00  0.00000000000E+00  0.74505805969E-08  0.10566000000E+00  0.10566000000E+00 0.  1.
     999900   -1    0    0    0    0 -0.00000000000E+00 -0.00000000000E+00 -0.74505805969E-08  0.93827000000E+00  0.93827000000E+00 0. -1.
     999902    2    1    2    0    0 -0.20153497958E-02 -0.21800744907E-01  0.10665180044E-01  0.10195767625E+01  0.10192858747E+01 0.  0.
     999903    2    3    3    0    0  0.10761279993E+00  0.62339129446E-01  0.25888644605E-01  0.12866172524E+00  0.20419007164E-01 0.  0.
         14    1    1    2    0    0  0.20153497958E-02  0.21800744907E-01 -0.10665180044E-01  0.24353237540E-01  0.00000000000E+00 0.  1.
     999901    1    3    3    0    0 -0.10962814973E+00 -0.84139874353E-01 -0.15223464560E-01  0.89091503722E+00  0.88000000000E+00 0. -1.
        -11    1    4    4    0    0  0.37396941077E-01  0.17509645320E-01  0.17776383248E-01  0.44959757601E-01  0.51100000000E-03 0.  1.
         11    1    4    4    0    0  0.70215858854E-01  0.44829484126E-01  0.81122613571E-02  0.83701967641E-01  0.51100000000E-03 0. -1.
</event>
<event>
 8    1  0.1115874E+005  0.1043930E+01  0.7957747E-01            NaN
         13   -1    0    0    0    0  0.00000000000E+00  0.00000000000E+00  0.74505805969E-08  0.10566000000E+00  0.10566000000E+00 0.  1.
     999900   -1    0    0    0    0 -0.00000000000E+00 -0.00000000000E+00 -0.74505805969E-08  0.93827000000E+00  0.93827000000E+00 0. -1.
     999902    2    1    2    0    0  0.23353007652E-02 -0.10924410134E-01 -0.20950362000E-01  0.10201873373E+01  0.10199110202E+01 0.  0.
     999903    2    3    3    0    0  0.75932746357E-01  0.77203521690E-01  0.66356193645E-01  0.12844435240E+00  0.19200039035E-01 0.  0.
         14    1    1    2    0    0 -0.23353007652E-02  0.10924410134E-01  0.20950362000E-01  0.23742662748E-01  0.00000000000E+00 0.  1.
     999901    1    3    3    0    0 -0.73597445591E-01 -0.88127931825E-01 -0.87306555645E-01  0.89174298485E+00  0.88000000000E+00 0. -1.
        -11    1    4    4    0    0  0.71038976896E-01  0.70375048473E-01  0.54441002577E-01  0.11385634619E+00  0.51100000000E-03 0.  1.
         11    1    4    4    0    0  0.48937694602E-02  0.68284732174E-02  0.11915191068E-01  0.14588006211E-01  0.51100000000E-03 0. -1.
</event>
<event>
 8    1  0.1115874E+005  0.1043930E+01  0.7957747E-01            NaN
         13   -1    0    0    0    0  0.00000000000E+00  0.00000000000E+00  0.74505805969E-08  0.10566000000E+00  0.10566000000E+00 0.  1.
     999900   -1    0    0    0    0 -0.00000000000E+00 -0.00000000000E+00 -0.74505805969E-08  0.93827000000E+00  0.93827000000E+00 0.  1.
     999902    2    1    2    0    0 -0.16061613010E-01  0.11692386334E-01 -0.12170525676E-01  0.10206317381E+01  0.10203657853E+01 0.  0.
     999903    2    3    3    0    0 -0.11420072347E+00 -0.52312711644E-01 -0.37376291148E-01  0.13250828490E+00  0.19571238754E-01 0.  0.
         14    1    1    2    0    0  0.16061613010E-01 -0.11692386334E-01  0.12170525676E-01  0.23298261864E-01  0.00000000000E+00 0.  1.
     999901    1    3    3    0    0  0.98139110464E-01  0.64005097978E-01  0.25205765473E-01  0.88812345323E+00  0.88000000000E+00 0. -1.
        -11    1    4    4    0    0 -0.33814148415E-01 -0.98312207679E-02 -0.31563460353E-02  0.35359202142E-01  0.51100000000E-03 0.  1.
         11    1    4    4    0    0 -0.80386575059E-01 -0.42481490876E-01 -0.34219945113E-01  0.97149082761E-01  0.51100000000E-03 0. -1.
</event>
<event>
 8    1  0.1115874E+005  0.1043930E+01  0.7957747E-01            NaN
         13   -1    0    0    0    0  0.00000000000E+00  0.00000000000E+00  0.74505805969E-08  0.10566000000E+00  0.10566000000E+00 0. -1.
     999900   -1    0    0    0    0 -0.00000000000E+00 -0.00000000000E+00 -0.74505805969E-08  0.93827000000E+00  0.93827000000E+00 0. -1.
     999902    2    1    2    0    0 -0.19910660480E-01  0.88015497900E-02 -0.12619486227E-01  0.10187674661E+01  0.10184566740E+01 0.  0.
     999903    2    3    3    0    0  0.38946396899E-01  0.11670273824E+00 -0.37300140364E-01  0.12988279734E+00  0.18490257680E-01 0.  0.
         14    1    1    2    0    0  0.19910660480E-01 -0.88015497900E-02  0.12619486227E-01  0.25162533896E-01  0.00000000000E+00 0. -1.
     999901    1    3    3    0    0 -0.58857057379E-01 -0.10790118845E+00  0.24680654137E-01  0.88888466876E+00  0.88000000000E+00 0. -1.
        -11    1    4    4    0    0  0.11089746855E-01  0.61129907636E-01 -0.21447715194E-01  0.65727571847E-01  0.51100000000E-03 0. -1.
         11    1    4    4    0    0  0.27856650044E-01  0.55572830607E-01 -0.15852425170E-01  0.64155225494E-01  0.51100000000E-03 0.  1.
</event>
<event>
 8    1  0.1115874E+005  0.1043930E+01  0.7957747E-01            NaN
         13   -1    0    0    0    0  0.00000000000E+00  0.00000000000E+00  0.74505805969E-08  0.10566000000E+00  0.10566000000E+00 0.  1.
     999900   -1    0    0    0    0 -0.00000000000E+00 -0.00000000000E+00 -0.74505805969E-08  0.93827000000E+00  0.93827000000E+00 0. -1.
     999902    2    1    2    0    0  0.18728715148E-03 -0.20403717870E-01  0.13259517269E-01  0.10195956297E+01  0.10193051979E+01 0.  0.
     999903    2    3    3    0    0 -0.56915889265E-01  0.11231262676E+00  0.10436716424E-01  0.12780957403E+00  0.19308484757E-01 0.  0.
         14    1    1    2    0    0 -0.18728715148E-03  0.20403717870E-01 -0.13259517269E-01  0.24334370294E-01  0.00000000000E+00 0.  1.
     999901    1    3    3    0    0  0.57103176416E-01 -0.13271634463E+00  0.28228008449E-02  0.89178605567E+00  0.88000000000E+00 0.  1.
        -11    1    4    4    0    0 -0.22197519589E-01  0.63317263487E-01  0.93712983998E-02  0.67748712800E-01  0.51100000000E-03 0. -1.
         11    1    4    4    0    0 -0.34718369676E-01  0.48995363275E-01  0.10654180245E-02  0.60060861232E-01  0.51100000000E-03 0.  1.
</event>
<event>
 8    1  0.1115874E+005  0.1043930E+01  0.7957747E-01            NaN
         13   -1    0    0    0    0  0.00000000000E+00  0.00000000000E+00  0.74505805969E-08  0.10566000000E+00  0.10566000000E+00 0.  1.
     999900   -1    0    0    0    0 -0.00000000000E+00 -0.00000000000E+00 -0.74505805969E-08  0.93827000000E+00  0.93827000000E+00 0. -1.
     999902    2    1    2    0    0 -0.23266152033E-01  0.10314096324E-01  0.55412330270E-02  0.10178838932E+01  0.10175505985E+01 0.  0.
     999903    2    3    3    0    0  0.77132318033E-01  0.99228795533E-01 -0.81328968959E-02  0.12761839445E+00  0.20604908189E-01 0.  0.
         14    1    1    2    0    0  0.23266152033E-01 -0.10314096324E-01 -0.55412330270E-02  0.26046106751E-01  0.00000000000E+00 0.  1.
     999901    1    3    3    0    0 -0.10039847007E+00 -0.88914699209E-01  0.13674129923E-01  0.89026549880E+00  0.88000000000E+00 0.  1.
        -11    1    4    4    0    0  0.61303590654E-01  0.90382572276E-01 -0.74136981417E-02  0.10946398330E+00  0.51100000000E-03 0.  1.
         11    1    4    4    0    0  0.15828727379E-01  0.88462232566E-02 -0.71919875421E-03  0.18154411150E-01  0.51100000000E-03 0. -1.
</event>
<event>
 8    1  0.1115874E+005  0.1043930E+01  0.7957747E-01            NaN
         13   -1    0    0    0    0  0.00000000000E+00  0.00000000000E+00  0.74505805969E-08  0.10566000000E+00  0.10566000000E+00 0. -1.
     999900   -1    0    0    0    0 -0.00000000000E+00 -0.00000000000E+00 -0.74505805969E-08  0.93827000000E+00  0.93827000000E+00 0. -1.
     999902    2    1    2    0    0 -0.56922713568E-02  0.22350367596E-01 -0.30086504297E-02  0.10206707467E+01  0.10204056940E+01 0.  0.
     999903    2    3    3    0    0 -0.35208819897E-01 -0.11784148396E+00  0.31120479043E-01  0.12843211310E+00  0.20001177916E-01 0.  0.
         14    1    1    2    0    0  0.56922713568E-02 -0.22350367596E-01  0.30086504297E-02  0.23259253261E-01  0.00000000000E+00 0.  1.
     999901    1    3    3    0    0  0.29516548540E-01  0.14019185156E+00 -0.34129129472E-01  0.89223863364E+00  0.88000000000E+00 0. -1.
        -11    1    4    4    0    0 -0.82844312710E-02 -0.85235982110E-02  0.46691102576E-02  0.12780658807E-01  0.51100000000E-03 0.  1.
         11    1    4    4    0    0 -0.26924388626E-01 -0.10931788575E+00  0.26451368785E-01  0.11565145429E+00  0.51100000000E-03 0. -1.
</event>
<event>
 8    1  0.1115874E+005  0.1043930E+01  0.7957747E-01            NaN
         13   -1    0    0    0    0  0.00000000000E+00  0.00000000000E+00  0.74505805969E-08  0.10566000000E+00  0.10566000000E+00 0.  1.
     999900   -1    0    0    0    0 -0.00000000000E+00 -0.00000000000E+00 -0.74505805969E-08  0.93827000000E+00  0.93827000000E+00 0.  1.
     999902    2    1    2    0    0  0.23968727212E-01 -0.23105553669E-02  0.67950997231E-02  0.10189097696E+01  0.10186025263E+01 0.  0.
     999903    2    3    3    0    0  0.11719409750E+00 -0.35222810322E-01  0.46667430718E-01  0.13247647317E+00  0.19926464807E-01 0.  0.
         14    1    1    2    0    0 -0.23968727212E-01  0.23105553669E-02 -0.67950997231E-02  0.25020230425E-01  0.00000000000E+00 0. -1.
     999901    1    3    3    0    0 -0.93225370284E-01  0.32912254955E-01 -0.39872330995E-01  0.88643329640E+00  0.88000000000E+00 0.  1.
        -11    1    4    4    0    0  0.10077725642E+00 -0.29656997128E-01  0.47103938118E-01  0.11512877572E+00  0.51100000000E-03 0.  1.
         11    1    4    4    0    0  0.16416841075E-01 -0.55658131944E-02 -0.43650740016E-03  0.17347697458E-01  0.51100000000E-03 0. -1.
</event>
<event>
 8    1  0.1115874E+005  0.1043930E+01  0.7957747E-01            NaN
         13   -1    0    0    0    0  0.00000000000E+00  0.00000000000E+00  0.74505805969E-08  0.10566000000E+00  0.10566000000E+00 0.  1.
     999900   -1    0    0    0    0 -0.00000000000E+00 -0.00000000000E+00 -0.74505805969E-08  0.93827000000E+00  0.93827000000E+00 0. -1.
     999902    2    1    2    0    0 -0.13119472853E-01 -0.18818932682E-01  0.21584168577E-02  0.10208880479E+01  0.10206279806E+01 0.  0.
     999903    2    3    3    0    0  0.26006229664E-01  0.37130714973E-01 -0.11998215316E+00  0.12983277319E+00  0.20144923442E-01 0.  0.
         14    1    1    2    0    0  0.13119472853E-01  0.18818932682E-01 -0.21584168577E-02  0.23041952143E-01  0.00000000000E+00 0.  1.
     999901    1    3    3    0    0 -0.39125702517E-01 -0.55949647655E-01  0.12214057002E+00  0.89105527467E+00  0.88000000000E+00 0.  1.
        -11    1    4    4    0    0  0.47487040613E-02 -0.12942304413E-02 -0.20495088241E-01  0.21083998333E-01  0.51100000000E-03 0.  1.
         11    1    4    4    0    0  0.21257525602E-01  0.38424945414E-01 -0.99487064921E-01  0.10874877486E+00  0.51100000000E-03 0. -1.
</event>
<event>
 8    1  0.1115874E+005  0.1043930E+01  0.7957747E-01            NaN
         13   -1    0    0    0    0  0.00000000000E+00  0.00000000000E+00  0.74505805969E-08  0.10566000000E+00  0.10566000000E+00 0. -1.
     999900   -1    0    0    0    0 -0.00000000000E+00 -0.00000000000E+00 -0.74505805969E-08  0.93827000000E+00  0.93827000000E+00 0. -1.
     999902    2    1    2    0    0  0.93229015738E-02 -0.21021219993E-01 -0.38072439296E-02  0.10206211328E+01  0.10203549350E+01 0.  0.
     999903    2    3    3    0    0  0.45150746292E-01 -0.65632507271E-01  0.10361586491E+00  0.13224422758E+00  0.20151237349E-01 0.  0.
         14    1    1    2    0    0 -0.93229015738E-02  0.21021219993E-01  0.38072439296E-02  0.23308867199E-01  0.00000000000E+00 0.  1.
     999901    1    3    3    0    0 -0.35827844718E-01  0.44611287278E-01 -0.10742310884E+00  0.88837690522E+00  0.88000000000E+00 0. -1.
        -11    1    4    4    0    0  0.12240322844E-01 -0.63698594273E-02  0.12125719071E-01  0.18376473994E-01  0.51100000000E-03 0.  1.
         11    1    4    4    0    0  0.32910423448E-01 -0.59262647844E-01  0.91490145840E-01  0.11386775359E+00  0.51100000000E-03 0. -1.
</event>
<event>
 8    1  0.1115874E+005  0.1043930E+01  0.7957747E-01            NaN
         13   -1    0    0    0    0  0.00000000000E+00  0.00000000000E+00  0.74505805969E-08  0.10566000000E+00  0.10566000000E+00 0. -1.
     999900   -1    0    0    0    0 -0.00000000000E+00 -0.00000000000E+00 -0.74505805969E-08  0.93827000000E+00  0.93827000000E+00 0. -1.
     999902    2    1    2    0    0 -0.16778046137E-01  0.12946449020E-01 -0.99799394662E-02  0.10205053855E+01  0.10202365065E+01 0.  0.
     999903    2    3    3    0    0  0.18862861905E-01  0.74726748798E-01  0.10321168942E+00  0.13039335621E+00  0.20245492501E-01 0.  0.
         14    1    1    2    0    0  0.16778046137E-01 -0.12946449020E-01  0.99799394662E-02  0.23424614536E-01  0.00000000000E+00 0. -1.
     999901    1    3    3    0    0 -0.35640908042E-01 -0.61780299778E-01 -0.11319162889E+00  0.89011202925E+00  0.88000000000E+00 0. -1.
        -11    1    4    4    0    0  0.20950870516E-01  0.49787136529E-01  0.62575021927E-01  0.82665545600E-01  0.51100000000E-03 0. -1.
         11    1    4    4    0    0 -0.20880086109E-02  0.24939612269E-01  0.40636667492E-01  0.47727810614E-01  0.51100000000E-03 0.  1.
</event>
<event>
 8    1  0.1115874E+005  0.1043930E+01  0.7957747E-01            NaN
         13   -1    0    0    0    0  0.00000000000E+00  0.00000000000E+00  0.74505805969E-08  0.10566000000E+00  0.10566000000E+00 0. -1.
     999900   -1    0    0    0    0 -0.00000000000E+00 -0.00000000000E+00 -0.74505805969E-08  0.93827000000E+00  0.93827000000E+00 0. -1.
     999902    2    1    2    0    0 -0.14311923293E-01 -0.62543165665E-02  0.16210446995E-01  0.10214194199E+01  0.10211713398E+01 0.  0.
     999903    2    3    3    0    0  0.44404383358E-01 -0.71981565932E-01  0.10063615352E+00  0.13299644863E+00  0.20182290696E-01 0.  0.
         14    1    1    2    0    0  0.14311923293E-01  0.62543165665E-02 -0.16210446995E-01  0.22510580087E-01  0.00000000000E+00 0.  1.
     999901    1    3    3    0    0 -0.58716306651E-01  0.65727249366E-01 -0.84425706527E-01  0.88842297128E+00  0.88000000000E+00 0. -1.
        -11    1    4    4    0    0  0.33743797550E-01 -0.52184923503E-01  0.59094347287E-01  0.85757291913E-01  0.51100000000E-03 0. -1.
         11    1    4    4    0    0  0.10660585808E-01 -0.19796642430E-01  0.41541806236E-01  0.47239156720E-01  0.51100000000E-03 0.  1.
</event>
<event>
 8    1  0.1115874E+005  0.1043930E+01  0.7957747E-01            NaN
         13   -1    0    0    0    0  0.00000000000E+00  0.00000000000E+00  0.74505805969E-08  0.10566000000E+00  0.10566000000E+00 0. -1.
     999900   -1    0    0    0    0 -0.00000000000E+00 -0.00000000000E+00 -0.74505805969E-08  0.93827000000E+00  0.93827000000E+00 0. -1.
     999902    2    1    2    0    0  0.76847084291E-02 -0.23316788011E-01 -0.67889620614E-02  0.10184581066E+01  0.10181395276E+01 0.  0.
     999903    2    3    3    0    0 -0.97197029765E-01  0.59247130118E-01  0.51167143120E-01  0.12650749716E+00  0.20702301309E-01 0.  0.
         14    1    1    2    0    0 -0.76847084291E-02  0.23316788011E-01  0.67889620614E-02  0.25471893386E-01  0.00000000000E+00 0. -1.
     999901    1    3    3    0    0  0.10488173819E+00 -0.82563918129E-01 -0.57956105181E-01  0.89195060946E+00  0.88000000000E+00 0. -1.
        -11    1    4    4    0    0 -0.25862659721E-01  0.26581771534E-01  0.13461207817E-01  0.39457990098E-01  0.51100000000E-03 0.  1.
         11    1    4    4    0    0 -0.71334370044E-01  0.32665358584E-01  0.37705935303E-01  0.87049507059E-01  0.51100000000E-03 0. -1.
</event>
<event>
 8    1  0.1115874E+005  0.1043930E+01  0.7957747E-01            NaN
         13   -1    0    0    0    0  0.00000000000E+00  0.00000000000E+00  0.74505805969E-08  0.10566000000E+00  0.10566000000E+00 0. -1.
     999900   -1    0    0    0    0 -0.00000000000E+00 -0.00000000000E+00 -0.74505805969E-08  0.93827000000E+00  0.93827000000E+00 0.  1.
     999902    2    1    2    0    0 -0.14765406588E-01  0.54954456940E-02  0.20562307312E-01  0.10180258375E+01  0.10176962121E+01 0.  0.
     999903    2    3    3    0    0  0.12090823331E+00  0.22655901398E-01 -0.21230781880E-01  0.12648308464E+00  0.20374833726E-01 0.  0.
         14    1    1    2    0    0  0.14765406588E-01 -0.54954456940E-02 -0.20562307312E-01  0.25904162544E-01  0.00000000000E+00 0.  1.
     999901    1    3    3    0    0 -0.13567363990E+00 -0.17160455704E-01  0.41793089192E-01  0.89154275282E+00  0.88000000000E+00 0.  1.
        -11    1    4    4    0    0  0.90905103662E-01  0.25706362826E-01 -0.17698994830E-01  0.96114881785E-01  0.51100000000E-03 0. -1.
         11    1    4    4    0    0  0.30003129648E-01 -0.30504614286E-02 -0.35317870507E-02  0.30368202850E-01  0.51100000000E-03 0.  1.
</event>
<event>
 8    1  0.1115874E+005  0.1043930E+01  0.7957747E-01            NaN
         13   -1    0    0    0    0  0.00000000000E+00  0.00000000000E+00  0.74505805969E-08  0.10566000000E+00  0.10566000000E+00 0. -1.
     999900   -1    0    0    0    0 -0.00000000000E+00 -0.00000000000E+00 -0.74505805969E-08  0.93827000000E+00  0.93827000000E+00 0.  1.
     999902    2    1    2    0    0  0.43435517509E-02  0.14785739014E-01 -0.18242797600E-01  0.10200493764E+01  0.10197698005E+01 0.  0.
     999903    2    3    3    0    0  0.13107810974E-01  0.70625964045E-01 -0.11046603612E+00  0.13342653171E+00  0.20977433671E-01 0.  0.
         14    1    1    2    0    0 -0.43435517509E-02 -0.14785739014E-01  0.18242797600E-01  0.23880623616E-01  0.00000000000E+00 0. -1.
     999901    1    3    3    0    0 -0.87642592232E-02 -0.55840225031E-01  0.92223238517E-01  0.88662284467E+00  0.88000000000E+00 0. -1.
        -11    1    4    4    0    0  0.16739979802E-01  0.38545408558E-01 -0.70126629900E-01  0.81755616240E-01  0.51100000000E-03 0.  1.
         11    1    4    4    0    0 -0.36321688274E-02  0.32080555487E-01 -0.40339406218E-01  0.51670915472E-01  0.51100000000E-03 0. -1.
</event>
<event>
 8    1  0.1115874E+005  0.1043930E+01  0.7957747E-01            NaN
         13   -1    0    0    0    0  0.00000000000E+00  0.00000000000E+00  0.74505805969E-08  0.10566000000E+00  0.10566000000E+00 0.  1.
     999900   -1    0    0    0    0 -0.00000000000E+00 -0.00000000000E+00 -0.74505805969E-08  0.93827000000E+00  0.93827000000E+00 0. -1.
     999902    2    1    2    0    0  0.48370197387E-02  0.97932601033E-02  0.22911191492E-01  0.10185483649E+01  0.10182320680E+01 0.  0.
     999903    2    3    3    0    0  0.10658408896E+00  0.67791793558E-01  0.26342356933E-01  0.13078259127E+00  0.21313636887E-01 0.  0.
         14    1    1    2    0    0 -0.48370197387E-02 -0.97932601033E-02 -0.22911191492E-01  0.25381635073E-01  0.00000000000E+00 0. -1.
     999901    1    3    3    0    0 -0.10174706922E+00 -0.57998533455E-01 -0.34311654415E-02  0.88776577366E+00  0.88000000000E+00 0. -1.
        -11    1    4    4    0    0  0.96356216986E-01  0.61185910705E-01  0.30073580655E-01  0.11803778037E+00  0.51100000000E-03 0.  1.
         11    1    4    4    0    0  0.10227871975E-01  0.66058828529E-02 -0.37312237215E-02  0.12744810899E-01  0.51100000000E-03 0. -1.
</event>
<event>
 8    1  0.1115874E+005  0.1043930E+01  0.7957747E-01            NaN
         13   -1    0    0    0    0  0.00000000000E+00  0.00000000000E+00  0.74505805969E-08  0.10566000000E+00  0.10566000000E+00 0. -1.
     999900   -1    0    0    0    0 -0.00000000000E+00 -0.00000000000E+00 -0.74505805969E-08  0.93827000000E+00  0.93827000000E+00 0. -1.
     999902    2    1    2    0    0  0.87443809669E-02 -0.22456259423E-01  0.67075377200E-02  0.10189152274E+01  0.10186081198E+01 0.  0.
     999903    2    3    3    0    0 -0.64555019652E-01 -0.10436189382E+00  0.42152947017E-01  0.13136933444E+00  0.20549346568E-01 0.  0.
         14    1    1    2    0    0 -0.87443809669E-02  0.22456259423E-01 -0.67075377200E-02  0.25014772596E-01  0.00000000000E+00 0.  1.
     999901    1    3    3    0    0  0.73299400619E-01  0.81905634399E-01 -0.35445409297E-01  0.88754589296E+00  0.88000000000E+00 0. -1.
        -11    1    4    4    0    0 -0.22185097791E-01 -0.54983866573E-01  0.18008624669E-01  0.61967538525E-01  0.51100000000E-03 0. -1.
         11    1    4    4    0    0 -0.42369921862E-01 -0.49378027249E-01  0.24144322348E-01  0.69401795915E-01  0.51100000000E-03 0.  1.
</event>
<event>
 8    1  0.1115874E+005  0.1043930E+01  0.7957747E-01            NaN
         13   -1    0    0    0    0  0.00000000000E+00  0.00000000000E+00  0.74505805969E-08  0.10566000000E+00  0.10566000000E+00 0.  1.
     999900   -1    0    0    0    0 -0.00000000000E+00 -0.00000000000E+00 -0.74505805969E-08  0.93827000000E+00  0.93827000000E+00 0.  1.
     999902    2    1    2    0    0 -0.69722037425E-02  0.42181236501E-02  0.18952805188E-01  0.10232996094E+01  0.10230916272E+01 0.  0.
     999903    2    3    3    0    0  0.47513612083E-01 -0.11839364303E+00  0.31793993774E-01  0.13303715057E+00  0.20332912977E-01 0.  0.
         14    1    1    2    0    0  0.69722037425E-02 -0.42181236501E-02 -0.18952805188E-01  0.20630390609E-01  0.00000000000E+00 0.  1.
     999901    1    3    3    0    0 -0.54485815825E-01  0.12261176668E+00 -0.12841188586E-01  0.89026245882E+00  0.88000000000E+00 0.  1.
        -11    1    4    4    0    0  0.37885831825E-01 -0.10253412221E+00  0.33679123934E-01  0.11438149754E+00  0.51100000000E-03 0.  1.
         11    1    4    4    0    0  0.96277802575E-02 -0.15859520823E-01 -0.18851301596E-02  0.18655653034E-01  0.51100000000E-03 0. -1.
</event>
<event>
 8    1  0.1115874E+005  0.1043930E+01  0.7957747E-01            NaN
         13   -1    0    0    0    0  0.00000000000E+00  0.00000000000E+00  0.74505805969E-08  0.10566000000E+00  0.10566000000E+00 0.  1.
     999900   -1    0    0    0    0 -0.00000000000E+00 -0.00000000000E+00 -0.74505805969E-08  0.93827000000E+00  0.93827000000E+00 0. -1.
     999902    2    1    2    0    0  0.18906007365E-01  0.92615436917E-02  0.10887065457E-01  0.10202289135E+01  0.10199535747E+01 0.  0.
     999903    2    3    3    0    0 -0.64019395246E-02  0.29528394140E-02  0.13010672694E+00  0.13180693067E+00  0.19889758379E-01 0.  0.
         14    1    1    2    0    0 -0.18906007365E-01 -0.92615436917E-02 -0.10887065457E-01  0.23701086479E-01  0.00000000000E+00 0. -1.
     999901    1    3    3    0    0  0.25307946890E-01  0.63087042776E-02 -0.11921966148E+00  0.88842198285E+00  0.88000000000E+00 0. -1.
        -11    1    4    4    0    0 -0.37150462747E-02 -0.77803129640E-02  0.81388007474E-01  0.81844998138E-01  0.51100000000E-03 0. -1.
         11    1    4    4    0    0 -0.26868932499E-02  0.10733152378E-01  0.48718719464E-01  0.49961932534E-01  0.51100000000E-03 0.  1.
</event>
<event>
 7    1  0.1130810E+005  0.1043930E+01  0.7957747E-01            NaN
         13   -1    0    0    0    0  0.00000000000E+00  0.00000000000E+00  0.74505805969E-08  0.10566000000E+00  0.10566000000E+00 0. -1.
     999900   -1    0    0    0    0 -0.00000000000E+00 -0.00000000000E+00 -0.74505805969E-08  0.93827000000E+00  0.93827000000E+00 0. -1.
     999903    2    1    2    0    0 -0.13705718507E-01  0.29380775022E-01  0.10029394414E+00  0.10686899600E+00  0.17636054367E-01 0.  0.
         14    1    1    2    0    0  0.43983533363E-01 -0.16229739359E-02  0.19231168481E-01  0.48031480226E-01  0.00000000000E+00 0. -1.
     999901    1    1    2    0    0 -0.30277814856E-01 -0.27757801086E-01 -0.11952511262E+00  0.88902952377E+00  0.88000000000E+00 0. -1.
        -11    1    3    3    0    0 -0.95591785013E-02  0.45069148668E-02  0.42753560070E-01  0.44043367207E-01  0.51100000000E-03 0. -1.
         11    1    3    3    0    0 -0.41465400055E-02  0.24873860155E-01  0.57540384073E-01  0.62825628794E-01  0.51100000000E-03 0.  1.
</event>
<event>
 8    1  0.1115874E+005  0.1043930E+01  0.7957747E-01            NaN
         13   -1    0    0    0    0  0.00000000000E+00  0.00000000000E+00  0.74505805969E-08  0.10566000000E+00  0.10566000000E+00 0. -1.
     999900   -1    0    0    0    0 -0.00000000000E+00 -0.00000000000E+00 -0.74505805969E-08  0.93827000000E+00  0.93827000000E+00 0. -1.
     999902    2    1    2    0    0 -0.86096727973E-02  0.16193888855E-01  0.14697629505E-01  0.10204270467E+01  0.10201563453E+01 0.  0.
     999903    2    3    3    0    0  0.54293943408E-01  0.76718499837E-01  0.91602856435E-01  0.13277029579E+00  0.20082520474E-01 0.  0.
         14    1    1    2    0    0  0.86096727973E-02 -0.16193888855E-01 -0.14697629505E-01  0.23502953325E-01  0.00000000000E+00 0. -1.
     999901    1    3    3    0    0 -0.62903616205E-01 -0.60524610982E-01 -0.76905226929E-01  0.88765675089E+00  0.88000000000E+00 0. -1.
        -11    1    4    4    0    0  0.18447022698E-01  0.11767900250E-01  0.22363006655E-01  0.31291233763E-01  0.51100000000E-03 0. -1.
         11    1    4    4    0    0  0.35846920710E-01  0.64950599587E-01  0.69239849780E-01  0.10147906203E+00  0.51100000000E-03 0.  1.
</event>
<event>
 8    1  0.1115874E+005  0.1043930E+01  0.7957747E-01            NaN
         13   -1    0    0    0    0  0.00000000000E+00  0.00000000000E+00  0.74505805969E-08  0.10566000000E+00  0.10566000000E+00 0.  1.
     999900   -1    0    0    0    0 -0.00000000000E+00 -0.00000000000E+00 -0.74505805969E-08  0.93827000000E+00  0.93827000000E+00 0.  1.
     999902    2    1    2    0    0 -0.23253029875E-01  0.67275947707E-02 -0.12800939387E-02  0.10196894849E+01  0.10194013160E+01 0.  0.
     999903    2    3    3    0    0 -0.11879075217E+00  0.14110670057E-01  0.55781123546E-01  0.13265061955E+00  0.13202246430E-01 0.  0.
         14    1    1    2    0    0  0.23253029875E-01 -0.67275947707E-02  0.12800939387E-02  0.24240515058E-01  0.00000000000E+00 0. -1.
     999901    1    3    3    0    0  0.95537722297E-01 -0.73830752862E-02 -0.57061217485E-01  0.88703886540E+00  0.88000000000E+00 0.  1.
        -11    1    4    4    0    0 -0.44804444112E-01  0.59359399331E-02  0.28157816961E-01  0.53252205326E-01  0.51100000000E-03 0. -1.
         11    1    4    4    0    0 -0.73986308060E-01  0.81747301237E-02  0.27623306585E-01  0.79398414220E-01  0.51100000000E-03 0.  1.
</event>
<event>
 8    1  0.1115874E+005  0.1043930E+01  0.7957747E-01            NaN
         13   -1    0    0    0    0  0.00000000000E+00  0.00000000000E+00  0.74505805969E-08  0.10566000000E+00  0.10566000000E+00 0. -1.
     999900   -1    0    0    0    0 -0.00000000000E+00 -0.00000000000E+00 -0.74505805969E-08  0.93827000000E+00  0.93827000000E+00 0.  1.
     999902    2    1    2    0    0 -0.23318784849E-01  0.83226126030E-02  0.60708062533E-02  0.10184371324E+01  0.10181180219E+01 0.  0.
     999903    2    3    3    0    0  0.10684101581E+00 -0.63654905530E-01  0.38941268697E-03  0.12593804838E+00  0.19831558960E-01 0.  0.
         14    1    1    2    0    0  0.23318784849E-01 -0.83226126030E-02 -0.60708062533E-02  0.25492867551E-01  0.00000000000E+00 0. -1.
     999901    1    3    3    0    0 -0.13015980066E+00  0.71977518133E-01  0.56813935664E-02  0.89249908407E+00  0.88000000000E+00 0.  1.
        -11    1    4    4    0    0  0.22326370994E-01 -0.78907871381E-02  0.63051441960E-02  0.24510147444E-01  0.51100000000E-03 0.  1.
         11    1    4    4    0    0  0.84514644818E-01 -0.55764118392E-01 -0.59157315090E-02  0.10142790094E+00  0.51100000000E-03 0. -1.
</event>
<event>
 8    1  0.1115874E+005  0.1043930E+01  0.7957747E-01            NaN
         13   -1    0    0    0    0  0.00000000000E+00  0.00000000000E+00  0.74505805969E-08  0.10566000000E+00  0.10566000000E+00 0.  1.
     999900   -1    0    0    0    0 -0.00000000000E+00 -0.00000000000E+00 -0.74505805969E-08  0.93827000000E+00  0.93827000000E+00 0.  1.
     999902    2    1    2    0    0  0.37824120842E-02 -0.21616974488E-01 -0.10945734502E-01  0.10194063516E+01  0.10191113287E+01 0.  0.
     999903    2    3    3    0    0 -0.76046194326E-01  0.74621006969E-01  0.66705358185E-01  0.12718213781E+00  0.19348721256E-01 0.  0.
         14    1    1    2    0    0 -0.37824120842E-02  0.21616974488E-01  0.10945734502E-01  0.24523648403E-01  0.00000000000E+00 0. -1.
     999901    1    3    3    0    0  0.79828606411E-01 -0.96237981457E-01 -0.77651092687E-01  0.89222421379E+00  0.88000000000E+00 0.  1.
        -11    1    4    4    0    0 -0.44682739757E-02  0.67532515338E-02  0.11714251068E-01  0.14249795707E-01  0.51100000000E-03 0. -1.
         11    1    4    4    0    0 -0.71577920351E-01  0.67867755436E-01  0.54991107117E-01  0.11293234210E+00  0.51100000000E-03 0.  1.
</event>
<event>
 8    1  0.1115874E+005  0.1043930E+01  0.7957747E-01            NaN
         13   -1    0    0    0    0  0.00000000000E+00  0.00000000000E+00  0.74505805969E-08  0.10566000000E+00  0.10566000000E+00 0. -1.
     999900   -1    0    0    0    0 -0.00000000000E+00 -0.00000000000E+00 -0.74505805969E-08  0.93827000000E+00  0.93827000000E+00 0.  1.
     999902    2    1    2    0    0 -0.29013863026E-02 -0.21308044669E-01 -0.79571977090E-02  0.10210003728E+01  0.10207428635E+01 0.  0.
     999903    2    3    3    0    0 -0.33840446217E-01 -0.24620152792E-01  0.12228995803E+00  0.13086975478E+00  0.20511732167E-01 0.  0.
         14    1    1    2    0    0  0.29013863026E-02  0.21308044669E-01  0.79571977090E-02  0.22929627242E-01  0.00000000000E+00 0. -1.
     999901    1    3    3    0    0  0.30939059914E-01  0.33121081235E-02 -0.13024715574E+00  0.89013061798E+00  0.88000000000E+00 0.  1.
        -11    1    4    4    0    0 -0.17009391845E-01 -0.19434813731E-01  0.47897709596E-01  0.54419510300E-01  0.51100000000E-03 0. -1.
         11    1    4    4    0    0 -0.16831054372E-01 -0.51853390613E-02  0.74392248435E-01  0.76450244477E-01  0.51100000000E-03 0.  1.
</event>
<event>
 8    1  0.1115874E+005  0.1043930E+01  0.7957747E-01            NaN
         13   -1    0    0    0    0  0.00000000000E+00  0.00000000000E+00  0.74505805969E-08  0.10566000000E+00  0.10566000000E+00 0.  1.
     999900   -1    0    0    0    0 -0.00000000000E+00 -0.00000000000E+00 -0.74505805969E-08  0.93827000000E+00  0.93827000000E+00 0.  1.
     999902    2    1    2    0    0 -0.10723794586E-01  0.19039325632E-01 -0.10579479989E-01  0.10196520040E+01  0.10193629326E+01 0.  0.
     999903    2    3    3    0    0 -0.22422104055E-02  0.84391138795E-01  0.97717705132E-01  0.13056760026E+00  0.19293950491E-01 0.  0.
         14    1    1    2    0    0  0.10723794586E-01 -0.19039325632E-01  0.10579479989E-01  0.24277995957E-01  0.00000000000E+00 0.  1.
     999901    1    3    3    0    0 -0.84815841800E-02 -0.65351813162E-01 -0.10829718512E+00  0.88908440379E+00  0.88000000000E+00 0.  1.
        -11    1    4    4    0    0 -0.37575761452E-02  0.18197017510E-01  0.33593303882E-01  0.38392994302E-01  0.51100000000E-03 0.  1.
         11    1    4    4    0    0  0.15153657397E-02  0.66194121285E-01  0.64124401249E-01  0.92174605953E-01  0.51100000000E-03 0. -1.
</event>
<event>
 8    1  0.1115874E+005  0.1043930E+01  0.7957747E-01            NaN
         13   -1    0    0    0    0  0.00000000000E+00  0.00000000000E+00  0.74505805969E-08  0.10566000000E+00  0.10566000000E+00 0.  1.
     999900   -1    0    0    0    0 -0.00000000000E+00 -0.00000000000E+00 -0.74505805969E-08  0.93827000000E+00  0.93827000000E+00 0.  1.
     999902    2    1    2    0    0  0.42319775605E-02 -0.17761606729E-01 -0.14304900796E-01  0.10207348605E+01  0.10204712838E+01 0.  0.
     999903    2    3    3    0    0 -0.28915901576E-01  0.70447013158E-01 -0.10472518697E+00  0.13109708557E+00  0.20498049455E-01 0.  0.
         14    1    1    2    0    0 -0.42319775605E-02  0.17761606729E-01  0.14304900796E-01  0.23195139458E-01  0.00000000000E+00 0.  1.
     999901    1    3    3    0    0  0.33147879137E-01 -0.88208619887E-01  0.90420286172E-01  0.88963777498E+00  0.88000000000E+00 0. -1.
        -11    1    4    4    0    0  0.11523883103E-02  0.11587819323E-01 -0.88001664758E-02  0.14605122611E-01  0.51100000000E-03 0.  1.
         11    1    4    4    0    0 -0.30068289887E-01  0.58859193835E-01 -0.95925020492E-01  0.11649196295E+00  0.51100000000E-03 0. -1.
</event>
<event>
 8    1  0.1115874E+005  0.1043930E+01  0.7957747E-01            NaN
         13   -1    0    0    0    0  0.00000000000E+00  0.00000000000E+00  0.74505805969E-08  0.10566000000E+00  0.10566000000E+00 0. -1.
     999900   -1    0    0    0    0 -0.00000000000E+00 -0.00000000000E+00 -0.74505805969E-08  0.93827000000E+00  0.93827000000E+00 0. -1.
     999902    2    1    2    0    0  0.78001935797E-02  0.36999549507E-02 -0.21483526188E-01  0.10207767155E+01  0.10205141000E+01 0.  0.
     999903    2    3    3    0    0  0.45514230076E-01  0.47102642338E-01 -0.11513999287E+00  0.13394094964E+00  0.19818072043E-01 0.  0.
         14    1    1    2    0    0 -0.78001935797E-02 -0.36999549507E-02  0.21483526188E-01  0.23153284518E-01  0.00000000000E+00 0.  1.
     999901    1    3    3    0    0 -0.37714036496E-01 -0.43402687387E-01  0.93656466678E-01  0.88683576584E+00  0.88000000000E+00 0.  1.
        -11    1    4    4    0    0  0.98498821940E-02  0.82650132046E-02 -0.99228390367E-02  0.16249753169E-01  0.51100000000E-03 0.  1.
         11    1    4    4    0    0  0.35664347882E-01  0.38837629133E-01 -0.10521715383E+00  0.11769119647E+00  0.51100000000E-03 0. -1.
</event>
<event>
 8    1  0.1115874E+005  0.1043930E+01  0.7957747E-01            NaN
         13   -1    0    0    0    0  0.00000000000E+00  0.00000000000E+00  0.74505805969E-08  0.10566000000E+00  0.10566000000E+00 0.  1.
     999900   -1    0    0    0    0 -0.00000000000E+00 -0.00000000000E+00 -0.74505805969E-08  0.93827000000E+00  0.93827000000E+00 0. -1.
     999902    2    1    2    0    0 -0.15755595525E-01  0.47581206581E-02  0.16729175179E-01  0.10204620686E+01  0.10201921827E+01 0.  0.
     999903    2    3    3    0    0  0.12154808269E+00 -0.37036233383E-01 -0.83466446735E-03  0.12866189111E+00  0.20188278084E-01 0.  0.
         14    1    1    2    0    0  0.15755595525E-01 -0.47581206581E-02 -0.16729175179E-01  0.23467931411E-01  0.00000000000E+00 0. -1.
     999901    1    3    3    0    0 -0.13730367821E+00  0.41794354041E-01  0.17563839646E-01  0.89180017747E+00  0.88000000000E+00 0.  1.
        -11    1    4    4    0    0  0.31195351009E-01 -0.11235584736E-01  0.85019172263E-02  0.34233492467E-01  0.51100000000E-03 0. -1.
         11    1    4    4    0    0  0.90352731679E-01 -0.25800648647E-01 -0.93365816937E-02  0.94428398647E-01  0.51100000000E-03 0.  1.
</event>
<event>
 8    1  0.1115874E+005  0.1043930E+01  0.7957747E-01            NaN
         13   -1    0    0    0    0  0.00000000000E+00  0.00000000000E+00  0.74505805969E-08  0.10566000000E+00  0.10566000000E+00 0.  1.
     999900   -1    0    0    0    0 -0.00000000000E+00 -0.00000000000E+00 -0.74505805969E-08  0.93827000000E+00  0.93827000000E+00 0. -1.
     999902    2    1    2    0    0 -0.20734950825E-01 -0.98831462650E-02 -0.62717429777E-02  0.10201192981E+01  0.10198413763E+01 0.  0.
     999903    2    3    3    0    0  0.10132853524E+00  0.61623168820E-01 -0.44034508399E-01  0.12802139192E+00  0.19635474753E-01 0.  0.
         14    1    1    2    0    0  0.20734950825E-01  0.98831462650E-02  0.62717429777E-02  0.23810701917E-01  0.00000000000E+00 0.  1.
     999901    1    3    3    0    0 -0.12206348607E+00 -0.71506315085E-01  0.37762765421E-01  0.89209790616E+00  0.88000000000E+00 0. -1.
        -11    1    4    4    0    0  0.48584953587E-01  0.20746941913E-01 -0.12895766538E-01  0.54382857864E-01  0.51100000000E-03 0.  1.
         11    1    4    4    0    0  0.52743581658E-01  0.40876226907E-01 -0.31138741860E-01  0.73638534056E-01  0.51100000000E-03 0. -1.
</event>
<event>
 8    1  0.1115874E+005  0.1043930E+01  0.7957747E-01            NaN
         13   -1    0    0    0    0  0.00000000000E+00  0.00000000000E+00  0.74505805969E-08  0.10566000000E+00  0.10566000000E+00 0. -1.
     999900   -1    0    0    0    0 -0.00000000000E+00 -0.00000000000E+00 -0.74505805969E-08  0.93827000000E+00  0.93827000000E+00 0.  1.
     999902    2    1    2    0    0 -0.11197127729E-01 -0.13247269052E-01 -0.16360017322E-01  0.10200864270E+01  0.10198077282E+01 0.  0.
     999903    2    3    3    0    0  0.41535794543E-01 -0.23029124656E-02  0.11955137995E+00  0.12802563986E+00  0.19170455914E-01 0.  0.
         14    1    1    2    0    0  0.11197127729E-01  0.13247269052E-01  0.16360017322E-01  0.23843573002E-01  0.00000000000E+00 0. -1.
     999901    1    3    3    0    0 -0.52732922272E-01 -0.10944356586E-01 -0.13591139728E+00  0.89206078713E+00  0.88000000000E+00 0.  1.
        -11    1    4    4    0    0  0.26810912773E-01 -0.62499800832E-02  0.52737990728E-01  0.59493227192E-01  0.51100000000E-03 0. -1.
         11    1    4    4    0    0  0.14724881770E-01  0.39470676175E-02  0.66813389225E-01  0.68532412672E-01  0.51100000000E-03 0.  1.
</event>
<event>
 7    1  0.1115874E+005  0.1043930E+01  0.7957747E-01            NaN
         13   -1    0    0    0    0  0.00000000000E+00  0.00000000000E+00  0.74505805969E-08  0.10566000000E+00  0.10566000000E+00 0. -1.
     999900   -1    0    0    0    0 -0.00000000000E+00 -0.00000000000E+00 -0.74505805969E-08  0.93827000000E+00  0.93827000000E+00 0.  1.
     999902    2    1    2    0    0 -0.50220542175E-02  0.22808719399E-01  0.45037956935E-03  0.10205706004E+01  0.10203032337E+01 0.  0.
         14    1    1    2    0    0  0.50220542175E-02 -0.22808719399E-01 -0.45037956935E-03  0.23359399627E-01  0.00000000000E+00 0. -1.
     999901    1    3    3    0    0  0.35140717425E-01  0.87953862381E-01 -0.98048438718E-01  0.89049663013E+00  0.88000000000E+00 0.  1.
        -11    1    3    3    0    0 -0.96531997946E-02 -0.32191914845E-01  0.18592887453E-01  0.38411719989E-01  0.51100000000E-03 0. -1.
         11    1    3    3    0    0 -0.30509571848E-01 -0.32953228138E-01  0.79905930834E-01  0.91662250259E-01  0.51100000000E-03 0.  1.
</event>
<event>
 8    1  0.1115874E+005  0.1043930E+01  0.7957747E-01            NaN
         13   -1    0    0    0    0  0.00000000000E+00  0.00000000000E+00  0.74505805969E-08  0.10566000000E+00  0.10566000000E+00 0. -1.
     999900   -1    0    0    0    0 -0.00000000000E+00 -0.00000000000E+00 -0.74505805969E-08  0.93827000000E+00  0.93827000000E+00 0.  1.
     999902    2    1    2    0    0 -0.13118178801E-01  0.50460577627E-02 -0.16475982258E-01  0.10222734235E+01  0.10220440035E+01 0.  0.
     999903    2    3    3    0    0 -0.45551394260E-01 -0.43553636426E-01 -0.11730185962E+00  0.13459121613E+00  0.19576016592E-01 0.  0.
         14    1    1    2    0    0  0.13118178801E-01 -0.50460577627E-02  0.16475982258E-01  0.21656576493E-01  0.00000000000E+00 0. -1.
     999901    1    3    3    0    0  0.32433215458E-01  0.48599694189E-01  0.10082587736E+00  0.88768220737E+00  0.88000000000E+00 0. -1.
        -11    1    4    4    0    0 -0.32606816870E-01 -0.32311557461E-01 -0.10092788570E+00  0.11087804329E+00  0.51100000000E-03 0. -1.
         11    1    4    4    0    0 -0.12944577390E-01 -0.11242078965E-01 -0.16373973920E-01  0.23713172841E-01  0.51100000000E-03 0.  1.
</event>
<event>
 8    1  0.1116798E+005  0.1043930E+01  0.7957747E-01            NaN
         13   -1    0    0    0    0  0.00000000000E+00  0.00000000000E+00  0.74505805969E-08  0.10566000000E+00  0.10566000000E+00 0.  1.
     999900   -1    0    0    0    0 -0.00000000000E+00 -0.00000000000E+00 -0.74505805969E-08  0.93827000000E+00  0.93827000000E+00 0. -1.
     999902    2    1    2    0    0  0.13017046155E-01  0.38042635887E-02  0.19667871526E-01  0.10200398120E+01  0.10197600095E+01 0.  0.
     999903    2    3    3    0    0  0.62577518212E-01 -0.11142588897E+00 -0.11950202450E-01  0.13058271296E+00  0.24028380435E-01 0.  0.
         14    1    1    2    0    0 -0.13017046155E-01 -0.38042635887E-02 -0.19667871526E-01  0.23890187995E-01  0.00000000000E+00 0. -1.
     999901    1    3    3    0    0 -0.49560472058E-01  0.11523015256E+00  0.31618073977E-01  0.88945709905E+00  0.88000000000E+00 0.  1.
        -11    1    4    4    0    0  0.20856019860E-01 -0.52176804234E-01  0.41608590925E-02  0.56346839608E-01  0.51100000000E-03 0.  1.
         11    1    4    4    0    0  0.41721498352E-01 -0.59249084734E-01 -0.16111061543E-01  0.74235873347E-01  0.51100000000E-03 0. -1.
</event>
<event>
 8    1  0.1115874E+005  0.1043930E+01  0.7957747E-01            NaN
         13   -1    0    0    0    0  0.00000000000E+00  0.00000000000E+00  0.74505805969E-08  0.10566000000E+00  0.10566000000E+00 0. -1.
     999900   -1    0    0    0    0 -0.00000000000E+00 -0.00000000000E+00 -0.74505805969E-08  0.93827000000E+00  0.93827000000E+00 0.  1.
     999902    2    1    2    0    0  0.22174188141E-01  0.38650003548E-02 -0.84826589440E-02  0.10198761365E+01  0.10195924408E+01 0.  0.
     999903    2    3    3    0    0  0.73236974138E-01  0.10630025716E+00  0.19509532222E-01  0.13202257157E+00  0.19645317595E-01 0.  0.
         14    1    1    2    0    0 -0.22174188141E-01 -0.38650003548E-02  0.84826589440E-02  0.24053863520E-01  0.00000000000E+00 0.  1.
     999901    1    3    3    0    0 -0.51062785997E-01 -0.10243525681E+00 -0.27992191166E-01  0.88785356491E+00  0.88000000000E+00 0. -1.
        -11    1    4    4    0    0  0.48448393055E-01  0.59548173658E-01  0.19065148887E-01  0.79101029062E-01  0.51100000000E-03 0.  1.
         11    1    4    4    0    0  0.24788581084E-01  0.46752083506E-01  0.44438333534E-03  0.52921542512E-01  0.51100000000E-03 0. -1.
</event>
<event>
 8    1  0.1115874E+005  0.1043930E+01  0.7957747E-01            NaN
         13   -1    0    0    0    0  0.00000000000E+00  0.00000000000E+00  0.74505805969E-08  0.10566000000E+00  0.10566000000E+00 0. -1.
     999900   -1    0    0    0    0 -0.00000000000E+00 -0.00000000000E+00 -0.74505805969E-08  0.93827000000E+00  0.93827000000E+00 0. -1.
     999902    2    1    2    0    0 -0.19467754609E-01 -0.98431320598E-02  0.21657771660E-01  0.10131901270E+01  0.10127237006E+01 0.  0.
     999903    2    3    3    0    0  0.44174434269E-01  0.94479376463E-01  0.61374468326E-01  0.12385839476E+00  0.26388318827E-01 0.  0.
         14    1    1    2    0    0  0.19467754609E-01  0.98431320598E-02 -0.21657771660E-01  0.30739872991E-01  0.00000000000E+00 0.  1.
     999901    1    3    3    0    0 -0.63642188878E-01 -0.10432250852E+00 -0.39716696666E-01  0.88933173225E+00  0.88000000000E+00 0.  1.
        -11    1    4    4    0    0  0.14862060525E-01  0.37621184642E-01  0.38710292034E-01  0.55990911827E-01  0.51100000000E-03 0.  1.
         11    1    4    4    0    0  0.29312373744E-01  0.56858191822E-01  0.22664176292E-01  0.67867482934E-01  0.51100000000E-03 0. -1.
</event>
<event>
 8    1  0.1115874E+005  0.1043930E+01  0.7957747E-01            NaN
         13   -1    0    0    0    0  0.00000000000E+00  0.00000000000E+00  0.74505805969E-08  0.10566000000E+00  0.10566000000E+00 0. -1.
     999900   -1    0    0    0    0 -0.00000000000E+00 -0.00000000000E+00 -0.74505805969E-08  0.93827000000E+00  0.93827000000E+00 0.  1.
     999902    2    1    2    0    0 -0.54841367792E-02  0.89275500640E-02 -0.21865551703E-01  0.10196837785E+01  0.10193954723E+01 0.  0.
     999903    2    3    3    0    0 -0.12737605182E+00  0.11851033577E-01 -0.21433019026E-01  0.13127713016E+00  0.20228816695E-01 0.  0.
         14    1    1    2    0    0  0.54841367792E-02 -0.89275500640E-02  0.21865551703E-01  0.24246221513E-01  0.00000000000E+00 0. -1.
     999901    1    3    3    0    0  0.12189191504E+00 -0.29234835132E-02 -0.43253267780E-03  0.88840664833E+00  0.88000000000E+00 0.  1.
        -11    1    4    4    0    0 -0.21508043191E-01 -0.33034863315E-02  0.17787792202E-02  0.21838821405E-01  0.51100000000E-03 0. -1.
         11    1    4    4    0    0 -0.10586800863E+00  0.15154519909E-01 -0.23211798246E-01  0.10943830875E+00  0.51100000000E-03 0.  1.
</event>
<event>
 8    1  0.1115874E+005  0.1043930E+01  0.7957747E-01            NaN
         13   -1    0    0    0    0  0.00000000000E+00  0.00000000000E+00  0.74505805969E-08  0.10566000000E+00  0.10566000000E+00 0.  1.
     999900   -1    0    0    0    0 -0.00000000000E+00 -0.00000000000E+00 -0.74505805969E-08  0.93827000000E+00  0.93827000000E+00 0.  1.
     999902    2    1    2    0    0 -0.13525884878E-01 -0.12449159456E-01 -0.15860364845E-01  0.10196507433E+01  0.10193616414E+01 0.  0.
     999903    2    3    3    0    0 -0.10068800790E+00  0.67332539973E-01 -0.46780056324E-01  0.13121482407E+00  0.18900013561E-01 0.  0.
         14    1    1    2    0    0  0.13525884878E-01  0.12449159456E-01  0.15860364845E-01  0.24279256700E-01  0.00000000000E+00 0. -1.
     999901    1    3    3    0    0  0.87162123021E-01 -0.79781699429E-01  0.30919691479E-01  0.88843591923E+00  0.88000000000E+00 0. -1.
        -11    1    4    4    0    0 -0.71073822356E-01  0.57157645020E-01 -0.32904935796E-01  0.96961232095E-01  0.51100000000E-03 0. -1.
         11    1    4    4    0    0 -0.29614185543E-01  0.10174894953E-01 -0.13875120528E-01  0.34253591977E-01  0.51100000000E-03 0.  1.
</event>
<event>
 8    1  0.1115874E+005  0.1043930E+01  0.7957747E-01            NaN
         13   -1    0    0    0    0  0.00000000000E+00  0.00000000000E+00  0.74505805969E-08  0.10566000000E+00  0.10566000000E+00 0. -1.
     999900   -1    0    0    0    0 -0.00000000000E+00 -0.00000000000E+00 -0.74505805969E-08  0.93827000000E+00  0.93827000000E+00 0.  1.
     999902    2    1    2    0    0 -0.14757210330E-01 -0.33107959537E-02  0.17450239671E-01  0.10208378478E+01  0.10205766331E+01 0.  0.
     999903    2    3    3    0    0 -0.11100056571E+00  0.58282870944E-01  0.40210958156E-01  0.13315850621E+00  0.19905978671E-01 0.  0.
         14    1    1    2    0    0  0.14757210330E-01  0.33107959537E-02 -0.17450239671E-01  0.23092152155E-01  0.00000000000E+00 0. -1.
     999901    1    3    3    0    0  0.96243355382E-01 -0.61593666898E-01 -0.22760718485E-01  0.88767934163E+00  0.88000000000E+00 0. -1.
        -11    1    4    4    0    0 -0.94707560007E-01  0.51854514817E-01  0.41294275982E-01  0.11560229660E+00  0.51100000000E-03 0. -1.
         11    1    4    4    0    0 -0.16293005705E-01  0.64283561268E-02 -0.10833178265E-02  0.17556209611E-01  0.51100000000E-03 0.  1.
</event>
<event>
 8    1  0.1115874E+005  0.1043930E+01  0.7957747E-01            NaN
         13   -1    0    0    0    0  0.00000000000E+00  0.00000000000E+00  0.74505805969E-08  0.10566000000E+00  0.10566000000E+00 0.  1.
     999900   -1    0    0    0    0 -0.00000000000E+00 -0.00000000000E+00 -0.74505805969E-08  0.93827000000E+00  0.93827000000E+00 0. -1.
     999902    2    1    2    0    0 -0.17663479410E-02  0.17185145245E-01 -0.12423628112E-01  0.10226510024E+01  0.10224295951E+01 0.  0.
     999903    2    3    3    0    0  0.12977784231E+00  0.89888452925E-02  0.13622365380E-01  0.13245470548E+00  0.20870852232E-01 0.  0.
         14    1    1    2    0    0  0.17663479410E-02 -0.17185145245E-01  0.12423628112E-01  0.21278997570E-01  0.00000000000E+00 0.  1.
     999901    1    3    3    0    0 -0.13154419025E+00  0.81962999524E-02 -0.26045993491E-01  0.89019629695E+00  0.88000000000E+00 0.  1.
        -11    1    4    4    0    0  0.82278804453E-01  0.10656012580E-01 -0.15319165195E-03  0.82967685607E-01  0.51100000000E-03 0. -1.
         11    1    4    4    0    0  0.47499037852E-01 -0.16671672873E-02  0.13775557031E-01  0.49487019876E-01  0.51100000000E-03 0.  1.
</event>
<event>
 8    1  0.1115874E+005  0.1043930E+01  0.7957747E-01            NaN
         13   -1    0    0    0    0  0.00000000000E+00  0.00000000000E+00  0.74505805969E-08  0.10566000000E+00  0.10566000000E+00 0.  1.
     999900   -1    0    0    0    0 -0.00000000000E+00 -0.00000000000E+00 -0.74505805969E-08  0.93827000000E+00  0.93827000000E+00 0.  1.
     999902    2    1    2    0    0  0.70007142101E-03  0.10061938423E-01 -0.21054220173E-01  0.10205844888E+01  0.10203174437E+01 0.  0.
     999903    2    3    3    0    0  0.16578133434E-01  0.11634016702E+00 -0.58878473875E-01  0.13324134838E+00  0.21833764255E-01 0.  0.
         14    1    1    2    0    0 -0.70007142101E-03 -0.10061938423E-01  0.21054220173E-01  0.23345511173E-01  0.00000000000E+00 0.  1.
     999901    1    3    3    0    0 -0.15878062013E-01 -0.10627822860E+00  0.37824253702E-01  0.88734314045E+00  0.88000000000E+00 0.  1.
        -11    1    4    4    0    0 -0.26728562122E-03  0.27455977926E-01 -0.49057875209E-02  0.27896774682E-01  0.51100000000E-03 0. -1.
         11    1    4    4    0    0  0.16845419055E-01  0.88884189098E-01 -0.53972686354E-01  0.10534457370E+00  0.51100000000E-03 0.  1.
</event>
<event>
 8    1  0.1115874E+005  0.1043930E+01  0.7957747E-01            NaN
         13   -1    0    0    0    0  0.00000000000E+00  0.00000000000E+00  0.74505805969E-08  0.10566000000E+00  0.10566000000E+00 0.  1.
     999900   -1    0    0    0    0 -0.00000000000E+00 -0.00000000000E+00 -0.74505805969E-08  0.93827000000E+00  0.93827000000E+00 0. -1.
     999902    2    1    2    0    0 -0.30411229906E-02  0.19533000247E-01  0.13492028976E-01  0.10199963130E+01  0.10197154785E+01 0.  0.
     999903    2    3    3    0    0 -0.15525921971E-01 -0.42075165860E-01  0.12159283232E+00  0.13115593361E+00  0.20141703409E-01 0.  0.
         14    1    1    2    0    0  0.30411229906E-02 -0.19533000247E-01 -0.13492028976E-01  0.23933687004E-01  0.00000000000E+00 0. -1.
     999901    1    3    3    0    0  0.12484798981E-01  0.61608166107E-01 -0.10810080334E+00  0.88884037938E+00  0.88000000000E+00 0. -1.
        -11    1    4    4    0    0 -0.53026011082E-02 -0.34883880781E-01  0.10178457187E+00  0.10772818994E+00  0.51100000000E-03 0. -1.
         11    1    4    4    0    0 -0.10223320863E-01 -0.71912850790E-02  0.19808260448E-01  0.23427743671E-01  0.51100000000E-03 0.  1.
</event>
<event>
 8    1  0.1115874E+005  0.1043930E+01  0.7957747E-01            NaN
         13   -1    0    0    0    0  0.00000000000E+00  0.00000000000E+00  0.74505805969E-08  0.10566000000E+00  0.10566000000E+00 0. -1.
     999900   -1    0    0    0    0 -0.00000000000E+00 -0.00000000000E+00 -0.74505805969E-08  0.93827000000E+00  0.93827000000E+00 0.  1.
     999902    2    1    2    0    0  0.16730539054E-01 -0.55945629786E-03  0.14092695256E-01  0.10220478614E+01  0.10218135853E+01 0.  0.
     999903    2    3    3    0    0 -0.75825590195E-01 -0.10305142091E+00  0.22544465229E-01  0.13123774010E+00  0.18600430993E-01 0.  0.
         14    1    1    2    0    0 -0.16730539054E-01  0.55945629786E-03 -0.14092695256E-01  0.21882138560E-01  0.00000000000E+00 0.  1.
     999901    1    3    3    0    0  0.92556129249E-01  0.10249196461E+00 -0.84517699728E-02  0.89081012134E+00  0.88000000000E+00 0.  1.
        -11    1    4    4    0    0 -0.65258182018E-01 -0.81792923538E-01  0.24318003488E-01  0.10742597021E+00  0.51100000000E-03 0. -1.
         11    1    4    4    0    0 -0.10567408177E-01 -0.21258497372E-01 -0.17735382589E-02  0.23811769885E-01  0.51100000000E-03 0.  1.
</event>
<event>
 8    1  0.1115874E+005  0.1043930E+01  0.7957747E-01            NaN
         13   -1    0    0    0    0  0.00000000000E+00  0.00000000000E+00  0.74505805969E-08  0.10566000000E+00  0.10566000000E+00 0. -1.
     999900   -1    0    0    0    0 -0.00000000000E+00 -0.00000000000E+00 -0.74505805969E-08  0.93827000000E+00  0.93827000000E+00 0.  1.
     999902    2    1    2    0    0 -0.17773371940E-01  0.12972886271E-01  0.89562716884E-02  0.10201728257E+01  0.10198961668E+01 0.  0.
     999903    2    3    3    0    0 -0.44068710293E-01  0.93421325466E-01  0.81686403430E-01  0.13312543787E+00  0.19496625964E-01 0.  0.
         14    1    1    2    0    0  0.17773371940E-01 -0.12972886271E-01 -0.89562716884E-02  0.23757174303E-01  0.00000000000E+00 0.  1.
     999901    1    3    3    0    0  0.26295338353E-01 -0.80448439195E-01 -0.72730131742E-01  0.88704738783E+00  0.88000000000E+00 0.  1.
        -11    1    4    4    0    0 -0.18382190421E-01  0.61103529159E-01  0.50903302335E-01  0.81626916577E-01  0.51100000000E-03 0. -1.
         11    1    4    4    0    0 -0.25686519871E-01  0.32317796307E-01  0.30783101095E-01  0.51498521292E-01  0.51100000000E-03 0.  1.
</event>
<event>
 8    1  0.1115874E+005  0.1043930E+01  0.7957747E-01            NaN
         13   -1    0    0    0    0  0.00000000000E+00  0.00000000000E+00  0.74505805969E-08  0.10566000000E+00  0.10566000000E+00 0. -1.
     999900   -1    0    0    0    0 -0.00000000000E+00 -0.00000000000E+00 -0.74505805969E-08  0.93827000000E+00  0.93827000000E+00 0.  1.
     999902    2    1    2    0    0  0.21034838257E-01 -0.57506066166E-02 -0.94698270563E-02  0.10201558224E+01  0.10198787626E+01 0.  0.
     999903    2    3    3    0    0  0.55040453778E-01  0.24383742911E-01  0.11383442645E+00  0.13039832742E+00  0.20528728088E-01 0.  0.
         14    1    1    2    0    0 -0.21034838257E-01  0.57506066166E-02  0.94698270563E-02  0.23774177618E-01  0.00000000000E+00 0. -1.
     999901    1    3    3    0    0 -0.34005615521E-01 -0.30134349528E-01 -0.12330425351E+00  0.88975749496E+00  0.88000000000E+00 0.  1.
        -11    1    4    4    0    0  0.30460030195E-01  0.86394188266E-02  0.77960120908E-01  0.84145674697E-01  0.51100000000E-03 0. -1.
         11    1    4    4    0    0  0.24580423582E-01  0.15744324085E-01  0.35874305547E-01  0.46252652722E-01  0.51100000000E-03 0.  1.
</event>
<event>
 8    1  0.1115874E+005  0.1043930E+01  0.7957747E-01            NaN
         13   -1    0    0    0    0  0.00000000000E+00  0.00000000000E+00  0.74505805969E-08  0.10566000000E+00  0.10566000000E+00 0.  1.
     999900   -1    0    0    0    0 -0.00000000000E+00 -0.00000000000E+00 -0.74505805969E-08  0.93827000000E+00  0.93827000000E+00 0.  1.
     999902    2    1    2    0    0 -0.11162241955E-01 -0.47277293634E-02 -0.20200864056E-01  0.10203710955E+01  0.10200990886E+01 0.  0.
     999903    2    3    3    0    0  0.11963564345E+00  0.33533627229E-02 -0.47323707232E-01  0.13025366537E+00  0.20063694877E-01 0.  0.
         14    1    1    2    0    0  0.11162241955E-01  0.47277293634E-02  0.20200864056E-01  0.23558904453E-01  0.00000000000E+00 0.  1.
     999901    1    3    3    0    0 -0.13079788540E+00 -0.80810920863E-02  0.27122843176E-01  0.89011743017E+00  0.88000000000E+00 0. -1.
        -11    1    4    4    0    0  0.39549085043E-01  0.90719364402E-02 -0.10474265281E-01  0.41909444194E-01  0.51100000000E-03 0.  1.
         11    1    4    4    0    0  0.80086558407E-01 -0.57185737173E-02 -0.36849441952E-01  0.88344221180E-01  0.51100000000E-03 0. -1.
</event>
<event>
 8    1  0.1115874E+005  0.1043930E+01  0.7957747E-01            NaN
         13   -1    0    0    0    0  0.00000000000E+00  0.00000000000E+00  0.74505805969E-08  0.10566000000E+00  0.10566000000E+00 0.  1.
     999900   -1    0    0    0    0 -0.00000000000E+00 -0.00000000000E+00 -0.74505805969E-08  0.93827000000E+00  0.93827000000E+00 0.  1.
     999902    2    1    2    0    0 -0.11508181683E-01  0.10108915263E-01 -0.17823416491E-01  0.10204288811E+01  0.10201582224E+01 0.  0.
     999903    2    3    3    0    0 -0.10489659060E+00  0.53479151790E-01  0.54984131074E-01  0.13143882981E+00  0.19738209541E-01 0.  0.
         14    1    1    2    0    0  0.11508181683E-01 -0.10108915263E-01  0.17823416491E-01  0.23501118885E-01  0.00000000000E+00 0.  1.
     999901    1    3    3    0    0  0.93388408919E-01 -0.43370236528E-01 -0.72807547564E-01  0.88899005130E+00  0.88000000000E+00 0. -1.
        -11    1    4    4    0    0 -0.43817980762E-01  0.11612458773E-01  0.20996869632E-01  0.49959926863E-01  0.51100000000E-03 0.  1.
         11    1    4    4    0    0 -0.61078609840E-01  0.41866693018E-01  0.33987261442E-01  0.81478902947E-01  0.51100000000E-03 0. -1.
</event>
<event>
 8    1  0.1115874E+005  0.1043930E+01  0.7957747E-01            NaN
         13   -1    0    0    0    0  0.00000000000E+00  0.00000000000E+00  0.74505805969E-08  0.10566000000E+00  0.10566000000E+00 0.  1.
     999900   -1    0    0    0    0 -0.00000000000E+00 -0.00000000000E+00 -0.74505805969E-08  0.93827000000E+00  0.93827000000E+00 0.  1.
     999902    2    1    2    0    0  0.10844497498E-02 -0.79104414815E-03 -0.22647729178E-01  0.10212425273E+01  0.10209904887E+01 0.  0.
     999903    2    3    3    0    0  0.64155042758E-01  0.25609929155E-01 -0.11322994932E+00  0.13395449641E+00  0.18736267023E-01 0.  0.
         14    1    1    2    0    0 -0.10844497498E-02  0.79104414815E-03  0.22647729178E-01  0.22687472734E-01  0.00000000000E+00 0.  1.
     999901    1    3    3    0    0 -0.63070593008E-01 -0.26400973304E-01  0.90582220146E-01  0.88728803086E+00  0.88000000000E+00 0.  1.
        -11    1    4    4    0    0  0.42632566303E-01  0.74772386898E-02 -0.64474487066E-01  0.77657359029E-01  0.51100000000E-03 0.  1.
         11    1    4    4    0    0  0.21522476455E-01  0.18132690466E-01 -0.48755462259E-01  0.56297137381E-01  0.51100000000E-03 0. -1.
</event>
<event>
 8    1  0.1115874E+005  0.1043930E+01  0.7957747E-01            NaN
         13   -1    0    0    0    0  0.00000000000E+00  0.00000000000E+00  0.74505805969E-08  0.10566000000E+00  0.10566000000E+00 0.  1.
     999900   -1    0    0    0    0 -0.00000000000E+00 -0.00000000000E+00 -0.74505805969E-08  0.93827000000E+00  0.93827000000E+00 0.  1.
     999902    2    1    2    0    0 -0.11794906329E-01  0.82334609159E-02  0.20080411915E-01  0.10192291369E+01  0.10189297821E+01 0.  0.
     999903    2    3    3    0    0  0.11098899057E+00  0.58741523209E-01  0.23195605879E-01  0.12926472521E+00  0.20055185722E-01 0.  0.
         14    1    1    2    0    0  0.11794906329E-01 -0.82334609159E-02 -0.20080411915E-01  0.24700863075E-01  0.00000000000E+00 0. -1.
     999901    1    3    3    0    0 -0.12278389690E+00 -0.50508062293E-01 -0.31151939632E-02  0.88996441172E+00  0.88000000000E+00 0.  1.
        -11    1    4    4    0    0  0.61833928262E-01  0.28551962344E-01  0.21964886782E-01  0.71563724123E-01  0.51100000000E-03 0.  1.
         11    1    4    4    0    0  0.49155062305E-01  0.30189560864E-01  0.12307190966E-02  0.57701001083E-01  0.51100000000E-03 0. -1.
</event>
<event>
 8    1  0.1115874E+005  0.1043930E+01  0.7957747E-01            NaN
         13   -1    0    0    0    0  0.00000000000E+00  0.00000000000E+00  0.74505805969E-08  0.10566000000E+00  0.10566000000E+00 0.  1.
     999900   -1    0    0    0    0 -0.00000000000E+00 -0.00000000000E+00 -0.74505805969E-08  0.93827000000E+00  0.93827000000E+00 0. -1.
     999902    2    1    2    0    0 -0.17547189781E-02 -0.17540801334E-02 -0.21567126388E-01  0.10222206293E+01  0.10219900773E+01 0.  0.
     999903    2    3    3    0    0 -0.11637319688E+00  0.60289173745E-01  0.84120678495E-02  0.13211641466E+00  0.14369367191E-01 0.  0.
         14    1    1    2    0    0  0.17547189781E-02  0.17540801334E-02  0.21567126388E-01  0.21709370706E-01  0.00000000000E+00 0.  1.
     999901    1    3    3    0    0  0.11461847790E+00 -0.62043253878E-01 -0.29979194237E-01  0.89010421464E+00  0.88000000000E+00 0.  1.
        -11    1    4    4    0    0 -0.49859961978E-01  0.23089317948E-01  0.10184742769E-01  0.55884904205E-01  0.51100000000E-03 0.  1.
         11    1    4    4    0    0 -0.66513234902E-01  0.37199855797E-01 -0.17726749195E-02  0.76231510452E-01  0.51100000000E-03 0. -1.
</event>
<event>
 8    1  0.1115874E+005  0.1043930E+01  0.7957747E-01            NaN
         13   -1    0    0    0    0  0.00000000000E+00  0.00000000000E+00  0.74505805969E-08  0.10566000000E+00  0.10566000000E+00 0.  1.
     999900   -1    0    0    0    0 -0.00000000000E+00 -0.00000000000E+00 -0.74505805969E-08  0.93827000000E+00  0.93827000000E+00 0. -1.
     999902    2    1    2    0    0 -0.13122038956E-01  0.19617453177E-01  0.20791388337E-02  0.10202370645E+01  0.10199619172E+01 0.  0.
     999903    2    3    3    0    0 -0.12713465823E+00  0.26971482856E-01  0.18053892829E-01  0.13270782447E+00  0.19868100516E-01 0.  0.
         14    1    1    2    0    0  0.13122038956E-01 -0.19617453177E-01 -0.20791388337E-02  0.23692935525E-01  0.00000000000E+00 0. -1.
     999901    1    3    3    0    0  0.11401261927E+00 -0.73540296793E-02 -0.15974753995E-01  0.88752924001E+00  0.88000000000E+00 0. -1.
        -11    1    4    4    0    0 -0.21533751174E-01  0.11054878009E-01 -0.97600668718E-03  0.24230692881E-01  0.51100000000E-03 0. -1.
         11    1    4    4    0    0 -0.10560090705E+00  0.15916604847E-01  0.19029899516E-01  0.10847713159E+00  0.51100000000E-03 0.  1.
</event>
<event>
 8    1  0.1115874E+005  0.1043930E+01  0.7957747E-01            NaN
         13   -1    0    0    0    0  0.00000000000E+00  0.00000000000E+00  0.74505805969E-08  0.10566000000E+00  0.10566000000E+00 0.  1.
     999900   -1    0    0    0    0 -0.00000000000E+00 -0.00000000000E+00 -0.74505805969E-08  0.93827000000E+00  0.93827000000E+00 0. -1.
     999902    2    1    2    0    0 -0.22374034159E-01 -0.41543216960E-02  0.10940493912E-01  0.10186802436E+01  0.10183672660E+01 0.  0.
     999903    2    3    3    0    0  0.86200596229E-01 -0.69187620884E-02 -0.89861548972E-01  0.12629179431E+00  0.19902443780E-01 0.  0.
         14    1    1    2    0    0  0.22374034159E-01  0.41543216960E-02 -0.10940493912E-01  0.25249756441E-01  0.00000000000E+00 0. -1.
     999901    1    3    3    0    0 -0.10857463039E+00  0.27644403925E-02  0.10080204288E+00  0.89238844924E+00  0.88000000000E+00 0.  1.
        -11    1    4    4    0    0  0.30122997003E-01 -0.94943023549E-02 -0.41777566408E-01  0.52375212665E-01  0.51100000000E-03 0.  1.
         11    1    4    4    0    0  0.56077599226E-01  0.25755402665E-02 -0.48083982564E-01  0.73916581650E-01  0.51100000000E-03 0. -1.
</event>
<event>
 8    1  0.1115874E+005  0.1043930E+01  0.7957747E-01            NaN
         13   -1    0    0    0    0  0.00000000000E+00  0.00000000000E+00  0.74505805969E-08  0.10566000000E+00  0.10566000000E+00 0. -1.
     999900   -1    0    0    0    0 -0.00000000000E+00 -0.00000000000E+00 -0.74505805969E-08  0.93827000000E+00  0.93827000000E+00 0. -1.
     999902    2    1    2    0    0  0.21649968324E-02 -0.21847935141E-01  0.67728657679E-02  0.10209541172E+01  0.10206955561E+01 0.  0.
     999903    2    3    3    0    0  0.52722268830E-01  0.38224708667E-01 -0.11053957358E+00  0.12970388928E+00  0.19061363633E-01 0.  0.
         14    1    1    2    0    0 -0.21649968324E-02  0.21847935141E-01 -0.67728657679E-02  0.22975882832E-01  0.00000000000E+00 0.  1.
     999901    1    3    3    0    0 -0.50557271997E-01 -0.60072643808E-01  0.11731243935E+00  0.89125022789E+00  0.88000000000E+00 0.  1.
        -11    1    4    4    0    0  0.23699908571E-01  0.22078059663E-01 -0.38084850127E-01  0.49998433125E-01  0.51100000000E-03 0. -1.
         11    1    4    4    0    0  0.29022360259E-01  0.16146649004E-01 -0.72454723453E-01  0.79705456154E-01  0.51100000000E-03 0.  1.
</event>
<event>
 8    1  0.1115874E+005  0.1043930E+01  0.7957747E-01            NaN
         13   -1    0    0    0    0  0.00000000000E+00  0.00000000000E+00  0.74505805969E-08  0.10566000000E+00  0.10566000000E+00 0. -1.
     999900   -1    0    0    0    0 -0.00000000000E+00 -0.00000000000E+00 -0.74505805969E-08  0.93827000000E+00  0.93827000000E+00 0. -1.
     999902    2    1    2    0    0 -0.19693588615E-02 -0.27871326208E-02 -0.24363081874E-01  0.10193290602E+01  0.10190321519E+01 0.  0.
     999903    2    3    3    0    0  0.52483582176E-02 -0.99048662469E-01  0.78504915185E-01  0.12809384857E+00  0.20170015646E-01 0.  0.
         14    1    1    2    0    0  0.19693588615E-02  0.27871326208E-02  0.24363081874E-01  0.24600939839E-01  0.00000000000E+00 0. -1.
     999901    1    3    3    0    0 -0.72177170791E-02  0.96261529848E-01 -0.10286799706E+00  0.89123521160E+00  0.88000000000E+00 0. -1.
        -11    1    4    4    0    0  0.11401163802E-01 -0.62604574603E-01  0.56349926647E-01  0.84999380300E-01  0.51100000000E-03 0. -1.
         11    1    4    4    0    0 -0.61528055840E-02 -0.36444087866E-01  0.22154988538E-01  0.43094468265E-01  0.51100000000E-03 0.  1.
</event>
<event>
 8    1  0.1115874E+005  0.1043930E+01  0.7957747E-01            NaN
         13   -1    0    0    0    0  0.00000000000E+00  0.00000000000E+00  0.74505805969E-08  0.10566000000E+00  0.10566000000E+00 0. -1.
     999900   -1    0    0    0    0 -0.00000000000E+00 -0.00000000000E+00 -0.74505805969E-08  0.93827000000E+00  0.93827000000E+00 0.  1.
     999902    2    1    2    0    0  0.21084420672E-01 -0.73739893346E-02 -0.75133928681E-02  0.10203635071E+01  0.10200913229E+01 0.  0.
     999903    2    3    3    0    0 -0.59846123766E-01 -0.91461368373E-01  0.66143609065E-01  0.12960776380E+00  0.21827848805E-01 0.  0.
         14    1    1    2    0    0 -0.21084420672E-01  0.73739893346E-02  0.75133928681E-02  0.23566492869E-01  0.00000000000E+00 0.  1.
     999901    1    3    3    0    0  0.80930544438E-01  0.84087379038E-01 -0.73657001933E-01  0.89075574333E+00  0.88000000000E+00 0. -1.
        -11    1    4    4    0    0  0.39470256154E-03 -0.93151629460E-02  0.32446720358E-02  0.98851944060E-02  0.51100000000E-03 0.  1.
         11    1    4    4    0    0 -0.60240826328E-01 -0.82146205427E-01  0.62898937029E-01  0.11972256940E+00  0.51100000000E-03 0. -1.
</event>
<event>
 8    1  0.1115874E+005  0.1043930E+01  0.7957747E-01            NaN
         13   -1    0    0    0    0  0.00000000000E+00  0.00000000000E+00  0.74505805969E-08  0.10566000000E+00  0.10566000000E+00 0.  1.
     999900   -1    0    0    0    0 -0.00000000000E+00 -0.00000000000E+00 -0.74505805969E-08  0.93827000000E+00  0.93827000000E+00 0.  1.
     999902    2    1    2    0    0 -0.65002767184E-02  0.19671695297E-01 -0.98542057811E-02  0.10209880174E+01  0.10207302274E+01 0.  0.
     999903    2    3    3    0    0 -0.94400786929E-01  0.89993453443E-02 -0.90783861494E-01  0.13284951024E+00  0.20366297527E-01 0.  0.
         14    1    1    2    0    0  0.65002767184E-02 -0.19671695297E-01  0.98542057811E-02  0.22941982584E-01  0.00000000000E+00 0. -1.
     999901    1    3    3    0    0  0.87900510210E-01  0.10672349953E-01  0.80929655713E-01  0.88813850717E+00  0.88000000000E+00 0. -1.
        -11    1    4    4    0    0 -0.27980209356E-01  0.57024290453E-02 -0.15862124482E-01  0.32669219866E-01  0.51100000000E-03 0.  1.
         11    1    4    4    0    0 -0.66420577573E-01  0.32969162990E-02 -0.74921737012E-01  0.10018029038E+00  0.51100000000E-03 0. -1.
</event>
<event>
 8    1  0.1115874E+005  0.1043930E+01  0.7957747E-01            NaN
         13   -1    0    0    0    0  0.00000000000E+00  0.00000000000E+00  0.74505805969E-08  0.10566000000E+00  0.10566000000E+00 0.  1.
     999900   -1    0    0    0    0 -0.00000000000E+00 -0.00000000000E+00 -0.74505805969E-08  0.93827000000E+00  0.93827000000E+00 0. -1.
     999902    2    1    2    0    0  0.22006586580E-01 -0.72923720322E-04 -0.57618607288E-02  0.10211815009E+01  0.10209280894E+01 0.  0.
     999903    2    3    3    0    0  0.13219721893E+00 -0.98237103102E-02 -0.64526229285E-02  0.13425561313E+00  0.20256439440E-01 0.  0.
         14    1    1    2    0    0 -0.22006586580E-01  0.72923720322E-04  0.57618607288E-02  0.22748499068E-01  0.00000000000E+00 0.  1.
     999901    1    3    3    0    0 -0.11019063235E+00  0.97507865898E-02  0.69076219969E-03  0.88692588780E+00  0.88000000000E+00 0.  1.
        -11    1    4    4    0    0  0.10810622751E+00 -0.15609792186E-01 -0.33410006391E-02  0.10927966620E+00  0.51100000000E-03 0. -1.
         11    1    4    4    0    0  0.24090991418E-01  0.57860818758E-02 -0.31116222894E-02  0.24975946934E-01  0.51100000000E-03 0.  1.
</event>
<event>
 8    1  0.1115874E+005  0.1043930E+01  0.7957747E-01            NaN
         13   -1    0    0    0    0  0.00000000000E+00  0.00000000000E+00  0.74505805969E-08  0.10566000000E+00  0.10566000000E+00 0. -1.
     999900   -1    0    0    0    0 -0.00000000000E+00 -0.00000000000E+00 -0.74505805969E-08  0.93827000000E+00  0.93827000000E+00 0. -1.
     999902    2    1    2    0    0 -0.48299689583E-02 -0.19375437008E-01  0.10878497277E-01  0.10211906539E+01  0.10209374485E+01 0.  0.
     999903    2    3    3    0    0 -0.11406568002E+00 -0.58925432203E-01 -0.27021110521E-01  0.13274649526E+00  0.20206575007E-01 0.  0.
         14    1    1    2    0    0  0.48299689583E-02  0.19375437008E-01 -0.10878497277E-01  0.22739346129E-01  0.00000000000E+00 0.  1.
     999901    1    3    3    0    0  0.10923571106E+00  0.39549995196E-01  0.37899607798E-01  0.88844415861E+00  0.88000000000E+00 0.  1.
        -11    1    4    4    0    0 -0.22789462595E-01 -0.33285560037E-02 -0.62562032322E-02  0.23871323598E-01  0.51100000000E-03 0.  1.
         11    1    4    4    0    0 -0.91276217421E-01 -0.55596876199E-01 -0.20764907289E-01  0.10887517167E+00  0.51100000000E-03 0. -1.
</event>
<event>
 8    1  0.1115874E+005  0.1043930E+01  0.7957747E-01            NaN
         13   -1    0    0    0    0  0.00000000000E+00  0.00000000000E+00  0.74505805969E-08  0.10566000000E+00  0.10566000000E+00 0.  1.
     999900   -1    0    0    0    0 -0.00000000000E+00 -0.00000000000E+00 -0.74505805969E-08  0.93827000000E+00  0.93827000000E+00 0. -1.
     999902    2    1    2    0    0  0.15910565379E-01 -0.13185227618E-01 -0.12105300967E-01  0.10199814170E+01  0.10197002287E+01 0.  0.
     999903    2    3    3    0    0  0.61148299787E-01  0.89982276659E-01 -0.69810255498E-01  0.13092582346E+00  0.20788814240E-01 0.  0.
         14    1    1    2    0    0 -0.15910565379E-01  0.13185227618E-01  0.12105300967E-01  0.23948583038E-01  0.00000000000E+00 0.  1.
     999901    1    3    3    0    0 -0.45237734408E-01 -0.10316750428E+00  0.57704954531E-01  0.88905559350E+00  0.88000000000E+00 0. -1.
        -11    1    4    4    0    0  0.60121779654E-01  0.77547983845E-01 -0.64009901864E-01  0.11715735933E+00  0.51100000000E-03 0.  1.
         11    1    4    4    0    0  0.10265201321E-02  0.12434292814E-01 -0.58003536347E-02  0.13768464136E-01  0.51100000000E-03 0. -1.
</event>
<event>
 8    1  0.1115874E+005  0.1043930E+01  0.7957747E-01            NaN
         13   -1    0    0    0    0  0.00000000000E+00  0.00000000000E+00  0.74505805969E-08  0.10566000000E+00  0.10566000000E+00 0.  1.
     999900   -1    0    0    0    0 -0.00000000000E+00 -0.00000000000E+00 -0.74505805969E-08  0.93827000000E+00  0.93827000000E+00 0.  1.
     999902    2    1    2    0    0 -0.23834771559E-01 -0.30824653995E-02 -0.46028881350E-02  0.10194599263E+01  0.10191662067E+01 0.  0.
     999903    2    3    3    0    0  0.74692699751E-01  0.59210649455E-01  0.82202482916E-01  0.12753881587E+00  0.20591283398E-01 0.  0.
         14    1    1    2    0    0  0.23834771559E-01  0.30824653995E-02  0.46028881350E-02  0.24470073710E-01  0.00000000000E+00 0. -1.
     999901    1    3    3    0    0 -0.98527471310E-01 -0.62293114854E-01 -0.86805371051E-01  0.89192111042E+00  0.88000000000E+00 0. -1.
        -11    1    4    4    0    0  0.42156087077E-01  0.31605113226E-01  0.58478588448E-01  0.78714835244E-01  0.51100000000E-03 0. -1.
         11    1    4    4    0    0  0.32536612674E-01  0.27605536229E-01  0.23723894468E-01  0.48823980630E-01  0.51100000000E-03 0.  1.
</event>
<event>
 8    1  0.1115874E+005  0.1043930E+01  0.7957747E-01            NaN
         13   -1    0    0    0    0  0.00000000000E+00  0.00000000000E+00  0.74505805969E-08  0.10566000000E+00  0.10566000000E+00 0. -1.
     999900   -1    0    0    0    0 -0.00000000000E+00 -0.00000000000E+00 -0.74505805969E-08  0.93827000000E+00  0.93827000000E+00 0.  1.
     999902    2    1    2    0    0  0.16142674124E-01 -0.12961189496E-01  0.10806997199E-01  0.10205768514E+01  0.10203096295E+01 0.  0.
     999903    2    3    3    0    0  0.57963359338E-01  0.37701637766E-01 -0.10841572467E+00  0.13011082218E+00  0.19841677777E-01 0.  0.
         14    1    1    2    0    0 -0.16142674124E-01  0.12961189496E-01 -0.10806997199E-01  0.23353148599E-01  0.00000000000E+00 0. -1.
     999901    1    3    3    0    0 -0.41820685214E-01 -0.50662827262E-01  0.11922272187E+00  0.89046602922E+00  0.88000000000E+00 0. -1.
        -11    1    4    4    0    0  0.53093241854E-01  0.36936255371E-01 -0.88675165973E-01  0.10975757592E+00  0.51100000000E-03 0.  1.
         11    1    4    4    0    0  0.48701174839E-02  0.76538239491E-03 -0.19740558700E-01  0.20353246260E-01  0.51100000000E-03 0. -1.
</event>
<event>
 8    1  0.1115874E+005  0.1043930E+01  0.7957747E-01            NaN
         13   -1    0    0    0    0  0.00000000000E+00  0.00000000000E+00  0.74505805969E-08  0.10566000000E+00  0.10566000000E+00 0. -1.
     999900   -1    0    0    0    0 -0.00000000000E+00 -0.00000000000E+00 -0.74505805969E-08  0.93827000000E+00  0.93827000000E+00 0. -1.
     999902    2    1    2    0    0 -0.29446885915E-02  0.17206978067E-01  0.16338618329E-01  0.10200197149E+01  0.10197394359E+01 0.  0.
     999903    2    3    3    0    0  0.28581115552E-01 -0.12203809044E+00  0.19792199170E-01  0.12850695971E+00  0.20301031057E-01 0.  0.
         14    1    1    2    0    0  0.29446885915E-02 -0.17206978067E-01 -0.16338618329E-01  0.23910285109E-01  0.00000000000E+00 0.  1.
     999901    1    3    3    0    0 -0.31525804144E-01  0.13924506850E+00 -0.34535808410E-02  0.89151275518E+00  0.88000000000E+00 0. -1.
        -11    1    4    4    0    0  0.27674786445E-01 -0.75807203466E-01  0.13893635507E-01  0.81889682688E-01  0.51100000000E-03 0.  1.
         11    1    4    4    0    0  0.90632910676E-03 -0.46230886971E-01  0.58985636629E-02  0.46617277021E-01  0.51100000000E-03 0. -1.
</event>
<event>
 8    1  0.1115874E+005  0.1043930E+01  0.7957747E-01            NaN
         13   -1    0    0    0    0  0.00000000000E+00  0.00000000000E+00  0.74505805969E-08  0.10566000000E+00  0.10566000000E+00 0. -1.
     999900   -1    0    0    0    0 -0.00000000000E+00 -0.00000000000E+00 -0.74505805969E-08  0.93827000000E+00  0.93827000000E+00 0.  1.
     999902    2    1    2    0    0  0.49084397730E-02  0.24898286267E-01 -0.71167668031E-02  0.10175734864E+01  0.10172320947E+01 0.  0.
     999903    2    3    3    0    0 -0.69899128260E-01  0.89100364238E-01  0.59521002289E-01  0.12956522555E+00  0.20484992530E-01 0.  0.
         14    1    1    2    0    0 -0.49084397730E-02 -0.24898286267E-01  0.71167668031E-02  0.26356513612E-01  0.00000000000E+00 0. -1.
     999901    1    3    3    0    0  0.74807568033E-01 -0.64202077971E-01 -0.66637769092E-01  0.88800826084E+00  0.88000000000E+00 0.  1.
        -11    1    4    4    0    0 -0.36948490758E-01  0.38915682669E-01  0.18137342233E-01  0.56646673611E-01  0.51100000000E-03 0. -1.
         11    1    4    4    0    0 -0.32950637502E-01  0.50184681569E-01  0.41383660056E-01  0.72918551937E-01  0.51100000000E-03 0.  1.
</event>
<event>
 8    1  0.1115874E+005  0.1043930E+01  0.7957747E-01            NaN
         13   -1    0    0    0    0  0.00000000000E+00  0.00000000000E+00  0.74505805969E-08  0.10566000000E+00  0.10566000000E+00 0. -1.
     999900   -1    0    0    0    0 -0.00000000000E+00 -0.00000000000E+00 -0.74505805969E-08  0.93827000000E+00  0.93827000000E+00 0.  1.
     999902    2    1    2    0    0 -0.28585388913E-02  0.45027479775E-03 -0.24057601048E-01  0.10196989835E+01  0.10194110431E+01 0.  0.
     999903    2    3    3    0    0  0.35976818635E-01  0.12038837947E-01  0.11949342672E+00  0.12714681284E+00  0.21174699251E-01 0.  0.
         14    1    1    2    0    0  0.28585388913E-02 -0.45027479775E-03  0.24057601048E-01  0.24231016490E-01  0.00000000000E+00 0. -1.
     999901    1    3    3    0    0 -0.38835357526E-01 -0.11588563150E-01 -0.14355102777E+00  0.89255217067E+00  0.88000000000E+00 0.  1.
        -11    1    4    4    0    0  0.36582923842E-01  0.14686820291E-01  0.10054798666E+00  0.10800079513E+00  0.51100000000E-03 0.  1.
         11    1    4    4    0    0 -0.60610520696E-03 -0.26479823440E-02  0.18945440064E-01  0.19146017712E-01  0.51100000000E-03 0. -1.
</event>
<event>
 8    1  0.1115874E+005  0.1043930E+01  0.7957747E-01            NaN
         13   -1    0    0    0    0  0.00000000000E+00  0.00000000000E+00  0.74505805969E-08  0.10566000000E+00  0.10566000000E+00 0. -1.
     999900   -1    0    0    0    0 -0.00000000000E+00 -0.00000000000E+00 -0.74505805969E-08  0.93827000000E+00  0.93827000000E+00 0.  1.
     999902    2    1    2    0    0 -0.41125369374E-02  0.22854671945E-01 -0.10474083804E-02  0.10206846552E+01  0.10204199230E+01 0.  0.
     999903    2    3    3    0    0  0.26888419914E-01  0.52718730919E-01  0.11606665069E+00  0.13188286394E+00  0.20478542015E-01 0.  0.
         14    1    1    2    0    0  0.41125369374E-02 -0.22854671945E-01  0.10474083804E-02  0.23245344783E-01  0.00000000000E+00 0. -1.
     999901    1    3    3    0    0 -0.31000956851E-01 -0.29864058974E-01 -0.11711405907E+00  0.88880179128E+00  0.88000000000E+00 0.  1.
        -11    1    4    4    0    0  0.24865118320E-02 -0.37886675113E-03  0.14319123754E-01  0.14547326462E-01  0.51100000000E-03 0. -1.
         11    1    4    4    0    0  0.24401908082E-01  0.53097597670E-01  0.10174752694E+00  0.11733553748E+00  0.51100000000E-03 0.  1.
</event>
<event>
 8    1  0.1115874E+005  0.1043930E+01  0.7957747E-01            NaN
         13   -1    0    0    0    0  0.00000000000E+00  0.00000000000E+00  0.74505805969E-08  0.10566000000E+00  0.10566000000E+00 0.  1.
     999900   -1    0    0    0    0 -0.00000000000E+00 -0.00000000000E+00 -0.74505805969E-08  0.93827000000E+00  0.93827000000E+00 0.  1.
     999902    2    1    2    0    0 -0.16782813927E-02 -0.20782101943E-01  0.12568625221E-01  0.10195849239E+01  0.10192942335E+01 0.  0.
     999903    2    3    3    0    0 -0.46951227819E-01  0.11110699878E+00  0.37597982520E-01  0.12825398465E+00  0.22052059246E-01 0.  0.
         14    1    1    2    0    0  0.16782813927E-02  0.20782101943E-01 -0.12568625221E-01  0.24345076085E-01  0.00000000000E+00 0. -1.
     999901    1    3    3    0    0  0.45272946426E-01 -0.13188910072E+00 -0.25029357299E-01  0.89133093927E+00  0.88000000000E+00 0. -1.
        -11    1    4    4    0    0 -0.23142495808E-01  0.51745266577E-01  0.62677510789E-02  0.57032390358E-01  0.51100000000E-03 0.  1.
         11    1    4    4    0    0 -0.23808732011E-01  0.59361732203E-01  0.31330231442E-01  0.71221594290E-01  0.51100000000E-03 0. -1.
</event>
<event>
 8    1  0.1115874E+005  0.1043930E+01  0.7957747E-01            NaN
         13   -1    0    0    0    0  0.00000000000E+00  0.00000000000E+00  0.74505805969E-08  0.10566000000E+00  0.10566000000E+00 0. -1.
     999900   -1    0    0    0    0 -0.00000000000E+00 -0.00000000000E+00 -0.74505805969E-08  0.93827000000E+00  0.93827000000E+00 0.  1.
     999902    2    1    2    0    0 -0.13953710347E-01  0.15890205130E-01  0.91702159286E-02  0.10208801082E+01  0.10206198596E+01 0.  0.
     999903    2    3    3    0    0  0.70334419175E-01 -0.61643542938E-01 -0.85622108536E-01  0.12841074983E+00  0.20280983572E-01 0.  0.
         14    1    1    2    0    0  0.13953710347E-01 -0.15890205130E-01 -0.91702159286E-02  0.23049891793E-01  0.00000000000E+00 0. -1.
     999901    1    3    3    0    0 -0.84288129521E-01  0.77533748068E-01  0.94792324464E-01  0.89246935838E+00  0.88000000000E+00 0. -1.
        -11    1    4    4    0    0  0.89448692351E-02 -0.18826280888E-01 -0.18457790687E-01  0.27845838033E-01  0.51100000000E-03 0. -1.
         11    1    4    4    0    0  0.61389549940E-01 -0.42817262050E-01 -0.67164317849E-01  0.10056491180E+00  0.51100000000E-03 0.  1.
</event>
<event>
 8    1  0.1115874E+005  0.1043930E+01  0.7957747E-01            NaN
         13   -1    0    0    0    0  0.00000000000E+00  0.00000000000E+00  0.74505805969E-08  0.10566000000E+00  0.10566000000E+00 0. -1.
     999900   -1    0    0    0    0 -0.00000000000E+00 -0.00000000000E+00 -0.74505805969E-08  0.93827000000E+00  0.93827000000E+00 0.  1.
     999902    2    1    2    0    0 -0.18068569706E-01 -0.80515380964E-02 -0.11251363440E-01  0.10211727230E+01  0.10209191136E+01 0.  0.
     999903    2    3    3    0    0  0.92398315107E-01  0.84111556058E-01 -0.26792644370E-01  0.12935519684E+00  0.20067851406E-01 0.  0.
         14    1    1    2    0    0  0.18068569706E-01  0.80515380964E-02  0.11251363440E-01  0.22757276994E-01  0.00000000000E+00 0. -1.
     999901    1    3    3    0    0 -0.11046688481E+00 -0.92163094154E-01  0.15541280930E-01  0.89181752617E+00  0.88000000000E+00 0. -1.
        -11    1    4    4    0    0  0.78717471382E-01  0.68243178309E-01 -0.14853715491E-01  0.10523528720E+00  0.51100000000E-03 0.  1.
         11    1    4    4    0    0  0.13680843725E-01  0.15868377748E-01 -0.11938928879E-01  0.24119909643E-01  0.51100000000E-03 0. -1.
</event>
<event>
 8    1  0.1115874E+005  0.1043930E+01  0.7957747E-01            NaN
         13   -1    0    0    0    0  0.00000000000E+00  0.00000000000E+00  0.74505805969E-08  0.10566000000E+00  0.10566000000E+00 0. -1.
     999900   -1    0    0    0    0 -0.00000000000E+00 -0.00000000000E+00 -0.74505805969E-08  0.93827000000E+00  0.93827000000E+00 0. -1.
     999902    2    1    2    0    0  0.22065478191E-01 -0.16490769441E-03  0.29461955903E-02  0.10216680910E+01  0.10214255213E+01 0.  0.
     999903    2    3    3    0    0 -0.88023823743E-01  0.90830578259E-01  0.22049347307E-01  0.12994797616E+00  0.20047825284E-01 0.  0.
         14    1    1    2    0    0 -0.22065478191E-01  0.16490769441E-03 -0.29461955903E-02  0.22261908966E-01  0.00000000000E+00 0.  1.
     999901    1    3    3    0    0  0.11008930193E+00 -0.90995485953E-01 -0.19103151717E-01  0.89172011487E+00  0.88000000000E+00 0.  1.
        -11    1    4    4    0    0 -0.25686907517E-01  0.21378502834E-01  0.14127265258E-01  0.36286338281E-01  0.51100000000E-03 0. -1.
         11    1    4    4    0    0 -0.62336916226E-01  0.69452075425E-01  0.79220820497E-02  0.93661637880E-01  0.51100000000E-03 0.  1.
</event>
<event>
 8    1  0.1115874E+005  0.1043930E+01  0.7957747E-01            NaN
         13   -1    0    0    0    0  0.00000000000E+00  0.00000000000E+00  0.74505805969E-08  0.10566000000E+00  0.10566000000E+00 0.  1.
     999900   -1    0    0    0    0 -0.00000000000E+00 -0.00000000000E+00 -0.74505805969E-08  0.93827000000E+00  0.93827000000E+00 0. -1.
     999902    2    1    2    0    0  0.95600495409E-02 -0.14130714216E-02  0.21685038700E-01  0.10201890602E+01  0.10199127837E+01 0.  0.
     999903    2    3    3    0    0  0.51168774358E-01 -0.53122521715E-01 -0.10371290310E+00  0.12882505094E+00  0.19982034425E-01 0.  0.
         14    1    1    2    0    0 -0.95600495409E-02  0.14130714216E-02 -0.21685038700E-01  0.23740939777E-01  0.00000000000E+00 0. -1.
     999901    1    3    3    0    0 -0.41608724817E-01  0.51709450294E-01  0.12539794180E+00  0.89136400928E+00  0.88000000000E+00 0.  1.
        -11    1    4    4    0    0  0.12386349277E-01 -0.22615023096E-01 -0.24967893022E-01  0.35895929032E-01  0.51100000000E-03 0.  1.
         11    1    4    4    0    0  0.38782425081E-01 -0.30507498619E-01 -0.78745010073E-01  0.92929121913E-01  0.51100000000E-03 0. -1.
</event>
<event>
 8    1  0.1115874E+005  0.1043930E+01  0.7957747E-01            NaN
         13   -1    0    0    0    0  0.00000000000E+00  0.00000000000E+00  0.74505805969E-08  0.10566000000E+00  0.10566000000E+00 0. -1.
     999900   -1    0    0    0    0 -0.00000000000E+00 -0.00000000000E+00 -0.74505805969E-08  0.93827000000E+00  0.93827000000E+00 0. -1.
     999902    2    1    2    0    0 -0.12897251500E-01  0.19843075179E-01 -0.24518971983E-02  0.10201371748E+01  0.10198596751E+01 0.  0.
     999903    2    3    3    0    0  0.59166728713E-02 -0.74618068271E-01  0.10265783161E+00  0.12866371677E+00  0.20318919520E-01 0.  0.
         14    1    1    2    0    0  0.12897251500E-01 -0.19843075179E-01  0.24518971983E-02  0.23792825151E-01  0.00000000000E+00 0. -1.
     999901    1    3    3    0    0 -0.18813924371E-01  0.94461143449E-01 -0.10510972881E+00  0.89147345808E+00  0.88000000000E+00 0. -1.
        -11    1    4    4    0    0  0.62254163807E-03 -0.47428231342E-01  0.48555655432E-01  0.67880317337E-01  0.51100000000E-03 0. -1.
         11    1    4    4    0    0  0.52941312332E-02 -0.27189836929E-01  0.54102176182E-01  0.60783399431E-01  0.51100000000E-03 0.  1.
</event>
<event>
 8    1  0.1115874E+005  0.1043930E+01  0.7957747E-01            NaN
         13   -1    0    0    0    0  0.00000000000E+00  0.00000000000E+00  0.74505805969E-08  0.10566000000E+00  0.10566000000E+00 0.  1.
     999900   -1    0    0    0    0 -0.00000000000E+00 -0.00000000000E+00 -0.74505805969E-08  0.93827000000E+00  0.93827000000E+00 0.  1.
     999902    2    1    2    0    0 -0.15251876378E-01  0.13467808164E-01 -0.70013117599E-02  0.10224121015E+01  0.10221856413E+01 0.  0.
     999903    2    3    3    0    0  0.84455752714E-01 -0.92051176640E-01  0.27707948689E-01  0.12984244023E+00  0.22025793427E-01 0.  0.
         14    1    1    2    0    0  0.15251876378E-01 -0.13467808164E-01  0.70013117599E-02  0.21517898507E-01  0.00000000000E+00 0. -1.
     999901    1    3    3    0    0 -0.99707629093E-01  0.10551898480E+00 -0.34709260448E-01  0.89256966127E+00  0.88000000000E+00 0.  1.
        -11    1    4    4    0    0  0.56970689102E-01 -0.55142380529E-01  0.27182685463E-01  0.83818262074E-01  0.51100000000E-03 0. -1.
         11    1    4    4    0    0  0.27485063612E-01 -0.36908796110E-01  0.52526322545E-03  0.46024178152E-01  0.51100000000E-03 0.  1.
</event>
<event>
 8    1  0.1115874E+005  0.1043930E+01  0.7957747E-01            NaN
         13   -1    0    0    0    0  0.00000000000E+00  0.00000000000E+00  0.74505805969E-08  0.10566000000E+00  0.10566000000E+00 0.  1.
     999900   -1    0    0    0    0 -0.00000000000E+00 -0.00000000000E+00 -0.74505805969E-08  0.93827000000E+00  0.93827000000E+00 0. -1.
     999902    2    1    2    0    0 -0.16898905168E-01  0.78760024063E-02  0.14838305039E-01  0.10201018715E+01  0.10198235380E+01 0.  0.
     999903    2    3    3    0    0 -0.52990438962E-01 -0.44137976838E-01 -0.10760005484E+00  0.12937228023E+00  0.20081520625E-01 0.  0.
         14    1    1    2    0    0  0.16898905168E-01 -0.78760024063E-02 -0.14838305039E-01  0.23828128467E-01  0.00000000000E+00 0.  1.
     999901    1    3    3    0    0  0.36091533794E-01  0.52013979244E-01  0.12243835988E+00  0.89072959130E+00  0.88000000000E+00 0.  1.
        -11    1    4    4    0    0 -0.17753543645E-01 -0.26541040830E-01 -0.40649189472E-01  0.51693644542E-01  0.51100000000E-03 0.  1.
         11    1    4    4    0    0 -0.35236895317E-01 -0.17596936008E-01 -0.66950865367E-01  0.77678635691E-01  0.51100000000E-03 0. -1.
</event>
<event>
 8    1  0.1115874E+005  0.1043930E+01  0.7957747E-01            NaN
         13   -1    0    0    0    0  0.00000000000E+00  0.00000000000E+00  0.74505805969E-08  0.10566000000E+00  0.10566000000E+00 0. -1.
     999900   -1    0    0    0    0 -0.00000000000E+00 -0.00000000000E+00 -0.74505805969E-08  0.93827000000E+00  0.93827000000E+00 0. -1.
     999902    2    1    2    0    0  0.66298331515E-02 -0.22246366515E-01 -0.15062201449E-02  0.10206679234E+01  0.10204028055E+01 0.  0.
     999903    2    3    3    0    0  0.46430527632E-01  0.97613268839E-01  0.66782124249E-01  0.12903250153E+00  0.22480884829E-01 0.  0.
         14    1    1    2    0    0 -0.66298331515E-02  0.22246366515E-01  0.15062201449E-02  0.23262076646E-01  0.00000000000E+00 0.  1.
     999901    1    3    3    0    0 -0.39800694481E-01 -0.11985963535E+00 -0.68288344394E-01  0.89163542182E+00  0.88000000000E+00 0. -1.
        -11    1    4    4    0    0  0.30060891869E-02  0.22048522827E-01  0.20924804650E-01  0.30549672694E-01  0.51100000000E-03 0.  1.
         11    1    4    4    0    0  0.43424438445E-01  0.75564746011E-01  0.45857319599E-01  0.98482828838E-01  0.51100000000E-03 0. -1.
</event>
<event>
 8    1  0.1115874E+005  0.1043930E+01  0.7957747E-01            NaN
         13   -1    0    0    0    0  0.00000000000E+00  0.00000000000E+00  0.74505805969E-08  0.10566000000E+00  0.10566000000E+00 0.  1.
     999900   -1    0    0    0    0 -0.00000000000E+00 -0.00000000000E+00 -0.74505805969E-08  0.93827000000E+00  0.93827000000E+00 0.  1.
     999902    2    1    2    0    0 -0.48233537131E-02 -0.23288125221E-01  0.12251140265E-02  0.10201160876E+01  0.10198380900E+01 0.  0.
     999903    2    3    3    0    0  0.92113528005E-01  0.75518486825E-01 -0.43628167821E-01  0.12816803842E+00  0.18321712566E-01 0.  0.
         14    1    1    2    0    0  0.48233537131E-02  0.23288125221E-01 -0.12251140265E-02  0.23813912356E-01  0.00000000000E+00 0.  1.
     999901    1    3    3    0    0 -0.96936881718E-01 -0.98806612045E-01  0.44853281847E-01  0.89194804922E+00  0.88000000000E+00 0. -1.
        -11    1    4    4    0    0  0.51216514510E-01  0.52775456914E-01 -0.29988889492E-01  0.79422760120E-01  0.51100000000E-03 0. -1.
         11    1    4    4    0    0  0.40897013494E-01  0.22743029911E-01 -0.13639278329E-01  0.48745278301E-01  0.51100000000E-03 0.  1.
</event>
<event>
 8    1  0.1115874E+005  0.1043930E+01  0.7957747E-01            NaN
         13   -1    0    0    0    0  0.00000000000E+00  0.00000000000E+00  0.74505805969E-08  0.10566000000E+00  0.10566000000E+00 0.  1.
     999900   -1    0    0    0    0 -0.00000000000E+00 -0.00000000000E+00 -0.74505805969E-08  0.93827000000E+00  0.93827000000E+00 0.  1.
     999902    2    1    2    0    0 -0.44039340250E-02 -0.10375078170E-02 -0.23830088907E-01  0.10196741926E+01  0.10193856556E+01 0.  0.
     999903    2    3    3    0    0 -0.20242524440E-01 -0.58655272687E-01  0.10928733784E+00  0.12765910464E+00  0.22425966499E-01 0.  0.
         14    1    1    2    0    0  0.44039340250E-02  0.10375078170E-02  0.23830088907E-01  0.24255807443E-01  0.00000000000E+00 0.  1.
     999901    1    3    3    0    0  0.15838590415E-01  0.57617764870E-01 -0.13311742675E+00  0.89201508792E+00  0.88000000000E+00 0.  1.
        -11    1    4    4    0    0 -0.12809776813E-01 -0.56779255517E-01  0.98539320181E-01  0.11444751191E+00  0.51100000000E-03 0. -1.
         11    1    4    4    0    0 -0.74327476275E-02 -0.18760171707E-02  0.10748017664E-01  0.13211592728E-01  0.51100000000E-03 0.  1.
</event>
<event>
 8    1  0.1115874E+005  0.1043930E+01  0.7957747E-01            NaN
         13   -1    0    0    0    0  0.00000000000E+00  0.00000000000E+00  0.74505805969E-08  0.10566000000E+00  0.10566000000E+00 0. -1.
     999900   -1    0    0    0    0 -0.00000000000E+00 -0.00000000000E+00 -0.74505805969E-08  0.93827000000E+00  0.93827000000E+00 0. -1.
     999902    2    1    2    0    0  0.52956005503E-02  0.20070901496E-01  0.12950839992E-01  0.10194635183E+01  0.10191698859E+01 0.  0.
     999903    2    3    3    0    0 -0.49599944012E-03 -0.55038355584E-01  0.11636984178E+00  0.13021077969E+00  0.19581636053E-01 0.  0.
         14    1    1    2    0    0 -0.52956005503E-02 -0.20070901496E-01 -0.12950839992E-01  0.24466481736E-01  0.00000000000E+00 0.  1.
     999901    1    3    3    0    0  0.57915999905E-02  0.75109257080E-01 -0.10341900179E+00  0.88925273857E+00  0.88000000000E+00 0. -1.
        -11    1    4    4    0    0  0.83735170455E-02 -0.39374219781E-01  0.84653708057E-01  0.93738766687E-01  0.51100000000E-03 0. -1.
         11    1    4    4    0    0 -0.88695164856E-02 -0.15664135803E-01  0.31716133724E-01  0.36472013003E-01  0.51100000000E-03 0.  1.
</event>
<event>
 8    1  0.1115874E+005  0.1043930E+01  0.7957747E-01            NaN
         13   -1    0    0    0    0  0.00000000000E+00  0.00000000000E+00  0.74505805969E-08  0.10566000000E+00  0.10566000000E+00 0.  1.
     999900   -1    0    0    0    0 -0.00000000000E+00 -0.00000000000E+00 -0.74505805969E-08  0.93827000000E+00  0.93827000000E+00 0.  1.
     999902    2    1    2    0    0 -0.18355404597E-01  0.84103633100E-02 -0.99509890643E-02  0.10214205071E+01  0.10211724511E+01 0.  0.
     999903    2    3    3    0    0 -0.54442339158E-01  0.11707428518E+00  0.26496339544E-01  0.13325468779E+00  0.19606102725E-01 0.  0.
         14    1    1    2    0    0  0.18355404597E-01 -0.84103633100E-02  0.99509890643E-02  0.22509492937E-01  0.00000000000E+00 0. -1.
     999901    1    3    3    0    0  0.36086934561E-01 -0.10866392187E+00 -0.36447328608E-01  0.88816581927E+00  0.88000000000E+00 0.  1.
        -11    1    4    4    0    0 -0.25960329935E-01  0.77158702373E-01  0.13485165012E-01  0.82519784770E-01  0.51100000000E-03 0.  1.
         11    1    4    4    0    0 -0.28482009224E-01  0.39915582812E-01  0.13011174532E-01  0.50734903019E-01  0.51100000000E-03 0. -1.
</event>
<event>
 8    1  0.1115874E+005  0.1043930E+01  0.7957747E-01            NaN
         13   -1    0    0    0    0  0.00000000000E+00  0.00000000000E+00  0.74505805969E-08  0.10566000000E+00  0.10566000000E+00 0.  1.
     999900   -1    0    0    0    0 -0.00000000000E+00 -0.00000000000E+00 -0.74505805969E-08  0.93827000000E+00  0.93827000000E+00 0. -1.
     999902    2    1    2    0    0  0.18805510805E-01 -0.13807546799E-03 -0.13836457999E-01  0.10205823262E+01  0.10203152310E+01 0.  0.
     999903    2    3    3    0    0 -0.22749801947E-01  0.10946003820E+00 -0.65947851970E-01  0.13128249605E+00  0.19670311069E-01 0.  0.
         14    1    1    2    0    0 -0.18805510805E-01  0.13807546799E-03  0.13836457999E-01  0.23347673790E-01  0.00000000000E+00 0. -1.
     999901    1    3    3    0    0  0.41555312752E-01 -0.10959811367E+00  0.52111393970E-01  0.88929983016E+00  0.88000000000E+00 0.  1.
        -11    1    4    4    0    0 -0.11548533679E-01  0.39128173737E-01 -0.14019961026E-01  0.43141662443E-01  0.51100000000E-03 0. -1.
         11    1    4    4    0    0 -0.11201268268E-01  0.70331864468E-01 -0.51927890944E-01  0.88140833608E-01  0.51100000000E-03 0.  1.
</event>
<event>
 8    1  0.1115874E+005  0.1043930E+01  0.7957747E-01            NaN
         13   -1    0    0    0    0  0.00000000000E+00  0.00000000000E+00  0.74505805969E-08  0.10566000000E+00  0.10566000000E+00 0.  1.
     999900   -1    0    0    0    0 -0.00000000000E+00 -0.00000000000E+00 -0.74505805969E-08  0.93827000000E+00  0.93827000000E+00 0.  1.
     999902    2    1    2    0    0 -0.29011803350E-02  0.22072582747E-01 -0.53895776802E-02  0.10210244700E+01  0.10207675078E+01 0.  0.
     999903    2    3    3    0    0 -0.12519622269E+00  0.76720117439E-02 -0.35391654819E-01  0.13194428327E+00  0.20585692021E-01 0.  0.
         14    1    1    2    0    0  0.29011803350E-02 -0.22072582747E-01  0.53895776802E-02  0.22905529988E-01  0.00000000000E+00 0. -1.
     999901    1    3    3    0    0  0.12229504236E+00  0.14400571003E-01  0.30002077139E-01  0.88908018675E+00  0.88000000000E+00 0.  1.
        -11    1    4    4    0    0 -0.79708267244E-01  0.14762722078E-01 -0.22099282868E-01  0.84023718404E-01  0.51100000000E-03 0.  1.
         11    1    4    4    0    0 -0.45487955446E-01 -0.70907103339E-02 -0.13292371951E-01  0.47920564863E-01  0.51100000000E-03 0. -1.
</event>
<event>
 8    1  0.1115874E+005  0.1043930E+01  0.7957747E-01            NaN
         13   -1    0    0    0    0  0.00000000000E+00  0.00000000000E+00  0.74505805969E-08  0.10566000000E+00  0.10566000000E+00 0.  1.
     999900   -1    0    0    0    0 -0.00000000000E+00 -0.00000000000E+00 -0.74505805969E-08  0.93827000000E+00  0.93827000000E+00 0. -1.
     999902    2    1    2    0    0  0.69639136362E-02  0.18170782578E-01  0.12448399105E-01  0.10208294357E+01  0.10205680284E+01 0.  0.
     999903    2    3    3    0    0 -0.99366556065E-01  0.83960007330E-01 -0.63871348411E-02  0.13179109665E+00  0.20127155056E-01 0.  0.
         14    1    1    2    0    0 -0.69639136362E-02 -0.18170782578E-01 -0.12448399105E-01  0.23100564342E-01  0.00000000000E+00 0. -1.
     999901    1    3    3    0    0  0.10633046970E+00 -0.65789224752E-01  0.18835533946E-01  0.88903833900E+00  0.88000000000E+00 0.  1.
        -11    1    4    4    0    0 -0.66961156286E-01  0.43940872049E-01 -0.56021278087E-02  0.80288490112E-01  0.51100000000E-03 0. -1.
         11    1    4    4    0    0 -0.32405399779E-01  0.40019135281E-01 -0.78500703240E-03  0.51502606541E-01  0.51100000000E-03 0.  1.
</event>
<event>
 8    1  0.1115874E+005  0.1043930E+01  0.7957747E-01            NaN
         13   -1    0    0    0    0  0.00000000000E+00  0.00000000000E+00  0.74505805969E-08  0.10566000000E+00  0.10566000000E+00 0. -1.
     999900   -1    0    0    0    0 -0.00000000000E+00 -0.00000000000E+00 -0.74505805969E-08  0.93827000000E+00  0.93827000000E+00 0.  1.
     999902    2    1    2    0    0  0.26536991694E-02 -0.25547281237E-01  0.17257183875E-01  0.10129862431E+01  0.10125135123E+01 0.  0.
     999903    2    3    3    0    0 -0.11177410923E+00 -0.89819930918E-02  0.50802495325E-01  0.12478951935E+00  0.20430440841E-01 0.  0.
         14    1    1    2    0    0 -0.26536991694E-02  0.25547281237E-01 -0.17257183875E-01  0.30943756934E-01  0.00000000000E+00 0.  1.
     999901    1    3    3    0    0  0.11442780840E+00 -0.16565288145E-01 -0.33545311450E-01  0.88819672372E+00  0.88000000000E+00 0.  1.
        -11    1    4    4    0    0 -0.53290157502E-01 -0.14217666616E-01  0.27268626264E-01  0.61529034040E-01  0.51100000000E-03 0.  1.
         11    1    4    4    0    0 -0.58483951730E-01  0.52356735242E-02  0.23533869061E-01  0.63260485306E-01  0.51100000000E-03 0. -1.
</event>
<event>
 8    1  0.1115874E+005  0.1043930E+01  0.7957747E-01            NaN
         13   -1    0    0    0    0  0.00000000000E+00  0.00000000000E+00  0.74505805969E-08  0.10566000000E+00  0.10566000000E+00 0. -1.
     999900   -1    0    0    0    0 -0.00000000000E+00 -0.00000000000E+00 -0.74505805969E-08  0.93827000000E+00  0.93827000000E+00 0. -1.
     999902    2    1    2    0    0  0.97197052875E-02  0.21730497986E-01  0.50238335143E-02  0.10196004682E+01  0.10193101533E+01 0.  0.
     999903    2    3    3    0    0  0.56841395261E-01  0.49888692685E-01  0.10646504170E+00  0.13207376084E+00  0.19719212050E-01 0.  0.
         14    1    1    2    0    0 -0.97197052875E-02 -0.21730497986E-01 -0.50238335143E-02  0.24329531783E-01  0.00000000000E+00 0. -1.
     999901    1    3    3    0    0 -0.47121689974E-01 -0.28158194699E-01 -0.10144120819E+00  0.88752670738E+00  0.88000000000E+00 0. -1.
        -11    1    4    4    0    0  0.39185151000E-01  0.22047748711E-01  0.56467652072E-01  0.72183350806E-01  0.51100000000E-03 0.  1.
         11    1    4    4    0    0  0.17656244262E-01  0.27840943975E-01  0.49997389630E-01  0.59890410030E-01  0.51100000000E-03 0. -1.
</event>
<event>
 8    1  0.1115874E+005  0.1043930E+01  0.7957747E-01            NaN
         13   -1    0    0    0    0  0.00000000000E+00  0.00000000000E+00  0.74505805969E-08  0.10566000000E+00  0.10566000000E+00 0. -1.
     999900   -1    0    0    0    0 -0.00000000000E+00 -0.00000000000E+00 -0.74505805969E-08  0.93827000000E+00  0.93827000000E+00 0.  1.
     999902    2    1    2    0    0 -0.13355483952E-01 -0.19466999221E-01 -0.57373047414E-03  0.10203151281E+01  0.10200418121E+01 0.  0.
     999903    2    3    3    0    0 -0.55682319827E-01  0.35813706966E-01 -0.11086364399E+00  0.13070207592E+00  0.20227277172E-01 0.  0.
         14    1    1    2    0    0  0.13355483952E-01  0.19466999221E-01  0.57373047414E-03  0.23614871944E-01  0.00000000000E+00 0.  1.
     999901    1    3    3    0    0  0.42326835875E-01 -0.55280706187E-01  0.11028991352E+00  0.88961305214E+00  0.88000000000E+00 0. -1.
        -11    1    4    4    0    0 -0.44496338101E-01  0.34448501951E-01 -0.79745708968E-01  0.97602574816E-01  0.51100000000E-03 0.  1.
         11    1    4    4    0    0 -0.11185981727E-01  0.13652050153E-02 -0.31117935025E-01  0.33099501101E-01  0.51100000000E-03 0. -1.
</event>
<event>
 8    1  0.1115874E+005  0.1043930E+01  0.7957747E-01            NaN
         13   -1    0    0    0    0  0.00000000000E+00  0.00000000000E+00  0.74505805969E-08  0.10566000000E+00  0.10566000000E+00 0. -1.
     999900   -1    0    0    0    0 -0.00000000000E+00 -0.00000000000E+00 -0.74505805969E-08  0.93827000000E+00  0.93827000000E+00 0.  1.
     999902    2    1    2    0    0 -0.11262369470E-01  0.80671835169E-02 -0.19146067032E-01  0.10202975583E+01  0.10200238307E+01 0.  0.
     999903    2    3    3    0    0  0.38305314230E-01 -0.22711339220E-01  0.11827145955E+00  0.12772383626E+00  0.18496977517E-01 0.  0.
         14    1    1    2    0    0  0.11262369470E-01 -0.80671835169E-02  0.19146067032E-01  0.23632441659E-01  0.00000000000E+00 0. -1.
     999901    1    3    3    0    0 -0.49567683700E-01  0.30778522737E-01 -0.13741752659E+00  0.89257372208E+00  0.88000000000E+00 0.  1.
        -11    1    4    4    0    0  0.21247785819E-01 -0.17022333011E-01  0.47994333561E-01  0.55181023896E-01  0.51100000000E-03 0. -1.
         11    1    4    4    0    0  0.17057528411E-01 -0.56890062090E-02  0.70277125994E-01  0.72542812367E-01  0.51100000000E-03 0.  1.
</event>
<event>
 8    1  0.1115874E+005  0.1043930E+01  0.7957747E-01            NaN
         13   -1    0    0    0    0  0.00000000000E+00  0.00000000000E+00  0.74505805969E-08  0.10566000000E+00  0.10566000000E+00 0. -1.
     999900   -1    0    0    0    0 -0.00000000000E+00 -0.00000000000E+00 -0.74505805969E-08  0.93827000000E+00  0.93827000000E+00 0.  1.
     999902    2    1    2    0    0  0.87778374947E-02 -0.23320875040E-01  0.48391427628E-02  0.10185463252E+01  0.10182299768E+01 0.  0.
     999903    2    3    3    0    0  0.13024145578E-01 -0.10736870192E+00 -0.69220084867E-01  0.13143481162E+00  0.28036102373E-01 0.  0.
         14    1    1    2    0    0 -0.87778374947E-02  0.23320875040E-01 -0.48391427628E-02  0.25383674801E-01  0.00000000000E+00 0. -1.
     999901    1    3    3    0    0 -0.42463080830E-02  0.84047826876E-01  0.74059227630E-01  0.88711151358E+00  0.88000000000E+00 0. -1.
        -11    1    4    4    0    0  0.14624130620E-01 -0.45315300058E-01 -0.17833038169E-01  0.50848991996E-01  0.51100000000E-03 0. -1.
         11    1    4    4    0    0 -0.15999850425E-02 -0.62053401858E-01 -0.51387046698E-01  0.80585819619E-01  0.51100000000E-03 0.  1.
</event>
<event>
 8    1  0.1115874E+005  0.1043930E+01  0.7957747E-01            NaN
         13   -1    0    0    0    0  0.00000000000E+00  0.00000000000E+00  0.74505805969E-08  0.10566000000E+00  0.10566000000E+00 0.  1.
     999900   -1    0    0    0    0 -0.00000000000E+00 -0.00000000000E+00 -0.74505805969E-08  0.93827000000E+00  0.93827000000E+00 0. -1.
     999902    2    1    2    0    0  0.91903058518E-02  0.21472404012E-01  0.26040096407E-02  0.10204287932E+01  0.10201581325E+01 0.  0.
     999903    2    3    3    0    0 -0.98385774535E-01  0.82631846988E-01 -0.19258136609E-01  0.13150188731E+00  0.20349146767E-01 0.  0.
         14    1    1    2    0    0 -0.91903058518E-02 -0.21472404012E-01 -0.26040096407E-02  0.23501206818E-01  0.00000000000E+00 0. -1.
     999901    1    3    3    0    0  0.10757608039E+00 -0.61159442976E-01  0.21862146250E-01  0.88892690587E+00  0.88000000000E+00 0. -1.
        -11    1    4    4    0    0 -0.35982388014E-01  0.24960523987E-01 -0.15460322519E-01  0.46443973756E-01  0.51100000000E-03 0.  1.
         11    1    4    4    0    0 -0.62403386521E-01  0.57671323001E-01 -0.37978140897E-02  0.85057913558E-01  0.51100000000E-03 0. -1.
</event>
<event>
 8    1  0.1115874E+005  0.1043930E+01  0.7957747E-01            NaN
         13   -1    0    0    0    0  0.00000000000E+00  0.00000000000E+00  0.74505805969E-08  0.10566000000E+00  0.10566000000E+00 0. -1.
     999900   -1    0    0    0    0 -0.00000000000E+00 -0.00000000000E+00 -0.74505805969E-08  0.93827000000E+00  0.93827000000E+00 0.  1.
     999902    2    1    2    0    0 -0.67036719601E-03 -0.88810590972E-02 -0.17146367131E-01  0.10246084962E+01  0.10244263029E+01 0.  0.
     999903    2    3    3    0    0 -0.75634358811E-01  0.91509310454E-01 -0.60042629655E-01  0.13469955948E+00  0.21079464308E-01 0.  0.
         14    1    1    2    0    0  0.67036719601E-03  0.88810590972E-02  0.17146367131E-01  0.19321503789E-01  0.00000000000E+00 0. -1.
     999901    1    3    3    0    0  0.74963991615E-01 -0.10039036955E+00  0.42896262524E-01  0.88990893673E+00  0.88000000000E+00 0. -1.
        -11    1    4    4    0    0 -0.61968159314E-01  0.64911521784E-01 -0.37570303962E-01  0.97290016394E-01  0.51100000000E-03 0.  1.
         11    1    4    4    0    0 -0.13666199496E-01  0.26597788670E-01 -0.22472325693E-01  0.37409543085E-01  0.51100000000E-03 0. -1.
</event>
<event>
 8    1  0.1115874E+005  0.1043930E+01  0.7957747E-01            NaN
         13   -1    0    0    0    0  0.00000000000E+00  0.00000000000E+00  0.74505805969E-08  0.10566000000E+00  0.10566000000E+00 0. -1.
     999900   -1    0    0    0    0 -0.00000000000E+00 -0.00000000000E+00 -0.74505805969E-08  0.93827000000E+00  0.93827000000E+00 0.  1.
     999902    2    1    2    0    0  0.11623716441E-01 -0.12091283041E-01  0.16403378316E-01  0.10204698054E+01  0.10202000995E+01 0.  0.
     999903    2    3    3    0    0 -0.82229329173E-01 -0.13852395047E-01 -0.95941884803E-01  0.12837510539E+00  0.17937976433E-01 0.  0.
         14    1    1    2    0    0 -0.11623716441E-01  0.12091283041E-01 -0.16403378316E-01  0.23460194578E-01  0.00000000000E+00 0.  1.
     999901    1    3    3    0    0  0.93853045614E-01  0.17611120062E-02  0.11234526312E+00  0.89209470004E+00  0.88000000000E+00 0.  1.
        -11    1    4    4    0    0 -0.54837917693E-01 -0.17411293012E-01 -0.61434563792E-01  0.84171355523E-01  0.51100000000E-03 0.  1.
         11    1    4    4    0    0 -0.27391411480E-01  0.35588979648E-02 -0.34507321011E-01  0.44203749863E-01  0.51100000000E-03 0. -1.
</event>
<event>
 8    1  0.1115874E+005  0.1043930E+01  0.7957747E-01            NaN
         13   -1    0    0    0    0  0.00000000000E+00  0.00000000000E+00  0.74505805969E-08  0.10566000000E+00  0.10566000000E+00 0.  1.
     999900   -1    0    0    0    0 -0.00000000000E+00 -0.00000000000E+00 -0.74505805969E-08  0.93827000000E+00  0.93827000000E+00 0. -1.
     999902    2    1    2    0    0  0.16645656521E-01  0.13580514928E-01  0.71550744866E-02  0.10212870462E+01  0.10210360069E+01 0.  0.
     999903    2    3    3    0    0  0.48842858256E-01  0.68998872769E-01  0.10186719071E+00  0.13388733965E+00  0.20060556604E-01 0.  0.
         14    1    1    2    0    0 -0.16645656521E-01 -0.13580514928E-01 -0.71550744866E-02  0.22642953819E-01  0.00000000000E+00 0.  1.
     999901    1    3    3    0    0 -0.32197201735E-01 -0.55418357841E-01 -0.94712116220E-01  0.88739970653E+00  0.88000000000E+00 0. -1.
        -11    1    4    4    0    0  0.14918946430E-01  0.22417871167E-01  0.19033163663E-01  0.32979665709E-01  0.51100000000E-03 0. -1.
         11    1    4    4    0    0  0.33923911826E-01  0.46581001602E-01  0.82834027044E-01  0.10090767395E+00  0.51100000000E-03 0.  1.
</event>
<event>
 8    1  0.1115874E+005  0.1043930E+01  0.7957747E-01            NaN
         13   -1    0    0    0    0  0.00000000000E+00  0.00000000000E+00  0.74505805969E-08  0.10566000000E+00  0.10566000000E+00 0. -1.
     999900   -1    0    0    0    0 -0.00000000000E+00 -0.00000000000E+00 -0.74505805969E-08  0.93827000000E+00  0.93827000000E+00 0.  1.
     999902    2    1    2    0    0 -0.11076978350E-01 -0.12341075378E-01 -0.18411867338E-01  0.10191510079E+01  0.10188497330E+01 0.  0.
     999903    2    3    3    0    0  0.11428153717E+00  0.19839766583E-01  0.47906285670E-01  0.12721577402E+00  0.20855571853E-01 0.  0.
         14    1    1    2    0    0  0.11076978350E-01  0.12341075378E-01  0.18411867338E-01  0.24778992105E-01  0.00000000000E+00 0. -1.
     999901    1    3    3    0    0 -0.12535851552E+00 -0.32180841960E-01 -0.66318153008E-01  0.89193523387E+00  0.88000000000E+00 0.  1.
        -11    1    4    4    0    0  0.99966619849E-01  0.10078524794E-01  0.39635347152E-01  0.10800983108E+00  0.51100000000E-03 0. -1.
         11    1    4    4    0    0  0.14314917324E-01  0.97612417884E-02  0.82709385182E-02  0.19205942940E-01  0.51100000000E-03 0.  1.
</event>
<event>
 8    1  0.1115874E+005  0.1043930E+01  0.7957747E-01            NaN
         13   -1    0    0    0    0  0.00000000000E+00  0.00000000000E+00  0.74505805969E-08  0.10566000000E+00  0.10566000000E+00 0. -1.
     999900   -1    0    0    0    0 -0.00000000000E+00 -0.00000000000E+00 -0.74505805969E-08  0.93827000000E+00  0.93827000000E+00 0.  1.
     999902    2    1    2    0    0 -0.78384198056E-03  0.24864194271E-02 -0.24516007791E-01  0.10192757645E+01  0.10189775526E+01 0.  0.
     999903    2    3    3    0    0 -0.11419480536E+00 -0.20624862983E-01  0.51471095892E-01  0.12845018230E+00  0.19604516721E-01 0.  0.
         14    1    1    2    0    0  0.78384198056E-03 -0.24864194271E-02  0.24516007791E-01  0.24654235494E-01  0.00000000000E+00 0. -1.
     999901    1    3    3    0    0  0.11341096338E+00  0.23111282410E-01 -0.75987103683E-01  0.89082558221E+00  0.88000000000E+00 0.  1.
        -11    1    4    4    0    0 -0.64561638021E-01 -0.15107077080E-01  0.39181678682E-01  0.77018789572E-01  0.51100000000E-03 0.  1.
         11    1    4    4    0    0 -0.49633167339E-01 -0.55177859028E-02  0.12289417210E-01  0.51431392726E-01  0.51100000000E-03 0. -1.
</event>
<event>
 8    1  0.1115874E+005  0.1043930E+01  0.7957747E-01            NaN
         13   -1    0    0    0    0  0.00000000000E+00  0.00000000000E+00  0.74505805969E-08  0.10566000000E+00  0.10566000000E+00 0. -1.
     999900   -1    0    0    0    0 -0.00000000000E+00 -0.00000000000E+00 -0.74505805969E-08  0.93827000000E+00  0.93827000000E+00 0. -1.
     999902    2    1    2    0    0 -0.16577280141E-02  0.66310413025E-02 -0.23056052891E-01  0.10198821239E+01  0.10195985711E+01 0.  0.
     999903    2    3    3    0    0  0.44759215452E-01  0.74030236096E-01  0.92962022817E-01  0.12850264353E+00  0.19675580895E-01 0.  0.
         14    1    1    2    0    0  0.16577280141E-02 -0.66310413025E-02  0.23056052891E-01  0.24047876119E-01  0.00000000000E+00 0. -1.
     999901    1    3    3    0    0 -0.46416943466E-01 -0.67399194794E-01 -0.11601807571E+00  0.89137948035E+00  0.88000000000E+00 0. -1.
        -11    1    4    4    0    0  0.77247146048E-02  0.24385073333E-01  0.18103579904E-01  0.31341725280E-01  0.51100000000E-03 0.  1.
         11    1    4    4    0    0  0.37034500848E-01  0.49645162763E-01  0.74858442914E-01  0.97160918250E-01  0.51100000000E-03 0. -1.
</event>
<event>
 8    1  0.1115874E+005  0.1043930E+01  0.7957747E-01            NaN
         13   -1    0    0    0    0  0.00000000000E+00  0.00000000000E+00  0.74505805969E-08  0.10566000000E+00  0.10566000000E+00 0. -1.
     999900   -1    0    0    0    0 -0.00000000000E+00 -0.00000000000E+00 -0.74505805969E-08  0.93827000000E+00  0.93827000000E+00 0. -1.
     999902    2    1    2    0    0  0.10494231843E-01 -0.21431545787E-01  0.35710460782E-02  0.10198013360E+01  0.10195158520E+01 0.  0.
     999903    2    3    3    0    0 -0.48018181219E-01  0.14890435509E-01 -0.11714315872E+00  0.12889454623E+00  0.19073898792E-01 0.  0.
         14    1    1    2    0    0 -0.10494231843E-01  0.21431545787E-01 -0.35710460782E-02  0.24128664010E-01  0.00000000000E+00 0.  1.
     999901    1    3    3    0    0  0.58512413062E-01 -0.36321981296E-01  0.12071420480E+00  0.89090678976E+00  0.88000000000E+00 0.  1.
        -11    1    4    4    0    0 -0.11096068866E-01 -0.32951225868E-02 -0.37421249844E-01  0.39173864221E-01  0.51100000000E-03 0. -1.
         11    1    4    4    0    0 -0.36922112353E-01  0.18185558096E-01 -0.79721908875E-01  0.89720682006E-01  0.51100000000E-03 0.  1.
</event>
<event>
 8    1  0.1115874E+005  0.1043930E+01  0.7957747E-01            NaN
         13   -1    0    0    0    0  0.00000000000E+00  0.00000000000E+00  0.74505805969E-08  0.10566000000E+00  0.10566000000E+00 0. -1.
     999900   -1    0    0    0    0 -0.00000000000E+00 -0.00000000000E+00 -0.74505805969E-08  0.93827000000E+00  0.93827000000E+00 0. -1.
     999902    2    1    2    0    0  0.13927845259E-01 -0.10843800412E-01 -0.33275222087E-02  0.10259676704E+01  0.10258104188E+01 0.  0.
     999903    2    3    3    0    0 -0.72492681766E-01 -0.10724291651E+00 -0.35112669684E-01  0.13592745070E+00  0.22071253463E-01 0.  0.
         14    1    1    2    0    0 -0.13927845259E-01  0.10843800412E-01  0.33275222087E-02  0.17962329610E-01  0.00000000000E+00 0. -1.
     999901    1    3    3    0    0  0.86420527025E-01  0.96399116096E-01  0.31785147475E-01  0.89004021970E+00  0.88000000000E+00 0.  1.
        -11    1    4    4    0    0 -0.55377095701E-01 -0.73059658603E-01 -0.15567429244E-01  0.92988937072E-01  0.51100000000E-03 0.  1.
         11    1    4    4    0    0 -0.17115586064E-01 -0.34183257905E-01 -0.19545240440E-01  0.42938513623E-01  0.51100000000E-03 0. -1.
</event>
<event>
 8    1  0.1115874E+005  0.1043930E+01  0.7957747E-01            NaN
         13   -1    0    0    0    0  0.00000000000E+00  0.00000000000E+00  0.74505805969E-08  0.10566000000E+00  0.10566000000E+00 0. -1.
     999900   -1    0    0    0    0 -0.00000000000E+00 -0.00000000000E+00 -0.74505805969E-08  0.93827000000E+00  0.93827000000E+00 0.  1.
     999902    2    1    2    0    0 -0.22590877932E-01  0.20971559766E-02 -0.11622929630E-01  0.10184380734E+01  0.10181189867E+01 0.  0.
     999903    2    3    3    0    0 -0.12050142461E+00 -0.18268227704E-01 -0.46983960214E-01  0.13206815824E+00  0.19498318566E-01 0.  0.
         14    1    1    2    0    0  0.22590877932E-01 -0.20971559766E-02  0.11622929630E-01  0.25491926607E-01  0.00000000000E+00 0. -1.
     999901    1    3    3    0    0  0.97910546679E-01  0.20365383681E-01  0.35361030583E-01  0.88636991515E+00  0.88000000000E+00 0.  1.
        -11    1    4    4    0    0 -0.48406397516E-01 -0.12041180009E-01 -0.28205932307E-01  0.57306239405E-01  0.51100000000E-03 0.  1.
         11    1    4    4    0    0 -0.72095027095E-01 -0.62270476956E-02 -0.18778027907E-01  0.74761918835E-01  0.51100000000E-03 0. -1.
</event>
<event>
 8    1  0.1115874E+005  0.1043930E+01  0.7957747E-01            NaN
         13   -1    0    0    0    0  0.00000000000E+00  0.00000000000E+00  0.74505805969E-08  0.10566000000E+00  0.10566000000E+00 0.  1.
     999900   -1    0    0    0    0 -0.00000000000E+00 -0.00000000000E+00 -0.74505805969E-08  0.93827000000E+00  0.93827000000E+00 0. -1.
     999902    2    1    2    0    0 -0.79973863372E-02  0.21038812675E-01  0.13066078061E-01  0.10179047772E+01  0.10175720236E+01 0.  0.
     999903    2    3    3    0    0  0.99508789088E-01  0.80360239290E-01  0.23340926420E-02  0.12931500404E+00  0.18898548031E-01 0.  0.
         14    1    1    2    0    0  0.79973863372E-02 -0.21038812675E-01 -0.13066078061E-01  0.26025222822E-01  0.00000000000E+00 0. -1.
     999901    1    3    3    0    0 -0.10750617542E+00 -0.59321426615E-01  0.10731985419E-01  0.88858977314E+00  0.88000000000E+00 0.  1.
        -11    1    4    4    0    0  0.76570150756E-01  0.66878056255E-01 -0.47479202245E-02  0.10177655065E+00  0.51100000000E-03 0. -1.
         11    1    4    4    0    0  0.22938638331E-01  0.13482183036E-01  0.70820128665E-02  0.27538453390E-01  0.51100000000E-03 0.  1.
</event>
<event>
 8    1  0.1115874E+005  0.1043930E+01  0.7957747E-01            NaN
         13   -1    0    0    0    0  0.00000000000E+00  0.00000000000E+00  0.74505805969E-08  0.10566000000E+00  0.10566000000E+00 0.  1.
     999900   -1    0    0    0    0 -0.00000000000E+00 -0.00000000000E+00 -0.74505805969E-08  0.93827000000E+00  0.93827000000E+00 0. -1.
     999902    2    1    2    0    0  0.21014318977E-01  0.67251504441E-02  0.67783390900E-02  0.10208480778E+01  0.10205870971E+01 0.  0.
     999903    2    3    3    0    0 -0.23723892373E-01 -0.64553653642E-01 -0.10772949439E+00  0.12944793232E+00  0.20521353615E-01 0.  0.
         14    1    1    2    0    0 -0.21014318977E-01 -0.67251504441E-02 -0.67783390900E-02  0.23081922177E-01  0.00000000000E+00 0.  1.
     999901    1    3    3    0    0  0.44738211351E-01  0.71278804087E-01  0.11450783348E+00  0.89140014550E+00  0.88000000000E+00 0.  1.
        -11    1    4    4    0    0 -0.20172251932E-01 -0.60860382434E-01 -0.10623725197E+00  0.12408674678E+00  0.51100000000E-03 0. -1.
         11    1    4    4    0    0 -0.35516404416E-02 -0.36932712088E-02 -0.14922424143E-02  0.53611855471E-02  0.51100000000E-03 0.  1.
</event>
<event>
 8    1  0.1115874E+005  0.1043930E+01  0.7957747E-01            NaN
         13   -1    0    0    0    0  0.00000000000E+00  0.00000000000E+00  0.74505805969E-08  0.10566000000E+00  0.10566000000E+00 0. -1.
     999900   -1    0    0    0    0 -0.00000000000E+00 -0.00000000000E+00 -0.74505805969E-08  0.93827000000E+00  0.93827000000E+00 0.  1.
     999902    2    1    2    0    0 -0.76047203757E-02 -0.12675770302E-01  0.21443857432E-01  0.10178849247E+01  0.10175516567E+01 0.  0.
     999903    2    3    3    0    0 -0.88593531485E-01 -0.81753145047E-02 -0.88819007206E-01  0.12730233959E+00  0.20035469418E-01 0.  0.
         14    1    1    2    0    0  0.76047203757E-02  0.12675770302E-01 -0.21443857432E-01  0.26045075279E-01  0.00000000000E+00 0. -1.
     999901    1    3    3    0    0  0.80988811109E-01 -0.45004557972E-02  0.11026286464E+00  0.89058258513E+00  0.88000000000E+00 0. -1.
        -11    1    4    4    0    0 -0.33346563631E-01 -0.10364358998E-01 -0.43675282852E-01  0.55921415367E-01  0.51100000000E-03 0.  1.
         11    1    4    4    0    0 -0.55246967853E-01  0.21890444935E-02 -0.45143724354E-01  0.71380924219E-01  0.51100000000E-03 0. -1.
</event>
<event>
 8    1  0.1115874E+005  0.1043930E+01  0.7957747E-01            NaN
         13   -1    0    0    0    0  0.00000000000E+00  0.00000000000E+00  0.74505805969E-08  0.10566000000E+00  0.10566000000E+00 0. -1.
     999900   -1    0    0    0    0 -0.00000000000E+00 -0.00000000000E+00 -0.74505805969E-08  0.93827000000E+00  0.93827000000E+00 0.  1.
     999902    2    1    2    0    0 -0.10327143768E-01  0.87765361463E-03 -0.21421631717E-01  0.10201328052E+01  0.10198552024E+01 0.  0.
     999903    2    3    3    0    0  0.61514269875E-01 -0.78864959380E-01  0.77565653406E-01  0.12810222521E+00  0.19749994928E-01 0.  0.
         14    1    1    2    0    0  0.10327143768E-01 -0.87765361463E-03  0.21421631717E-01  0.23797194786E-01  0.00000000000E+00 0. -1.
     999901    1    3    3    0    0 -0.71841413644E-01  0.79742612995E-01 -0.98987285123E-01  0.89203058000E+00  0.88000000000E+00 0.  1.
        -11    1    4    4    0    0  0.27686577402E-01 -0.21081086103E-01  0.30260556369E-01  0.46118555401E-01  0.51100000000E-03 0.  1.
         11    1    4    4    0    0  0.33827692473E-01 -0.57783873278E-01  0.47305097037E-01  0.81983669811E-01  0.51100000000E-03 0. -1.
</event>
<event>
 8    1  0.1115874E+005  0.1043930E+01  0.7957747E-01            NaN
         13   -1    0    0    0    0  0.00000000000E+00  0.00000000000E+00  0.74505805969E-08  0.10566000000E+00  0.10566000000E+00 0. -1.
     999900   -1    0    0    0    0 -0.00000000000E+00 -0.00000000000E+00 -0.74505805969E-08  0.93827000000E+00  0.93827000000E+00 0.  1.
     999902    2    1    2    0    0  0.26285680579E-02 -0.19921653890E-01 -0.11295676240E-01  0.10208784498E+01  0.10206181633E+01 0.  0.
     999903    2    3    3    0    0 -0.11279312864E+00  0.27129415542E-01 -0.57115609755E-01  0.13091472163E+00  0.20449361990E-01 0.  0.
         14    1    1    2    0    0 -0.26285680579E-02  0.19921653890E-01  0.11295676240E-01  0.23051550175E-01  0.00000000000E+00 0. -1.
     999901    1    3    3    0    0  0.11542169669E+00 -0.47051069432E-01  0.45819933516E-01  0.88996372820E+00  0.88000000000E+00 0. -1.
        -11    1    4    4    0    0 -0.34585338146E-01  0.22820055791E-02 -0.25239762901E-01  0.42879597905E-01  0.51100000000E-03 0.  1.
         11    1    4    4    0    0 -0.78207790489E-01  0.24847409963E-01 -0.31875846854E-01  0.88035123722E-01  0.51100000000E-03 0. -1.
</event>
<event>
 8    1  0.1115874E+005  0.1043930E+01  0.7957747E-01            NaN
         13   -1    0    0    0    0  0.00000000000E+00  0.00000000000E+00  0.74505805969E-08  0.10566000000E+00  0.10566000000E+00 0.  1.
     999900   -1    0    0    0    0 -0.00000000000E+00 -0.00000000000E+00 -0.74505805969E-08  0.93827000000E+00  0.93827000000E+00 0. -1.
     999902    2    1    2    0    0 -0.13451354709E-01  0.27043646149E-02  0.18271366624E-01  0.10210805937E+01  0.10208249034E+01 0.  0.
     999903    2    3    3    0    0 -0.33754745765E-01  0.11973283486E+00  0.42526619184E-01  0.13276972026E+00  0.18545907185E-01 0.  0.
         14    1    1    2    0    0  0.13451354709E-01 -0.27043646149E-02 -0.18271366624E-01  0.22849406333E-01  0.00000000000E+00 0. -1.
     999901    1    3    3    0    0  0.20303391057E-01 -0.11702847025E+00 -0.24255252561E-01  0.88831087341E+00  0.88000000000E+00 0. -1.
        -11    1    4    4    0    0 -0.26381790321E-02  0.34932030139E-01  0.71434227531E-02  0.35756067008E-01  0.51100000000E-03 0. -1.
         11    1    4    4    0    0 -0.31116566733E-01  0.84800804722E-01  0.35383196431E-01  0.97013653253E-01  0.51100000000E-03 0.  1.
</event>
<event>
 8    1  0.1115874E+005  0.1043930E+01  0.7957747E-01            NaN
         13   -1    0    0    0    0  0.00000000000E+00  0.00000000000E+00  0.74505805969E-08  0.10566000000E+00  0.10566000000E+00 0. -1.
     999900   -1    0    0    0    0 -0.00000000000E+00 -0.00000000000E+00 -0.74505805969E-08  0.93827000000E+00  0.93827000000E+00 0.  1.
     999902    2    1    2    0    0  0.98962432431E-02 -0.27080970343E-02 -0.27642717932E-01  0.10144445922E+01  0.10140159966E+01 0.  0.
     999903    2    3    3    0    0 -0.74724439037E-01 -0.15708247933E-01  0.93117274598E-01  0.12208107903E+00  0.20061709472E-01 0.  0.
         14    1    1    2    0    0 -0.98962432431E-02  0.27080970343E-02  0.27642717932E-01  0.29485407824E-01  0.00000000000E+00 0. -1.
     999901    1    3    3    0    0  0.84620682280E-01  0.13000150898E-01 -0.12075999253E+00  0.89236351314E+00  0.88000000000E+00 0.  1.
        -11    1    4    4    0    0 -0.33084441881E-01 -0.66924139396E-02  0.56898346017E-01  0.66159289592E-01  0.51100000000E-03 0.  1.
         11    1    4    4    0    0 -0.41639997156E-01 -0.90158339929E-02  0.36218928581E-01  0.55921789441E-01  0.51100000000E-03 0. -1.
</event>
<event>
 8    1  0.1115874E+005  0.1043930E+01  0.7957747E-01            NaN
         13   -1    0    0    0    0  0.00000000000E+00  0.00000000000E+00  0.74505805969E-08  0.10566000000E+00  0.10566000000E+00 0.  1.
     999900   -1    0    0    0    0 -0.00000000000E+00 -0.00000000000E+00 -0.74505805969E-08  0.93827000000E+00  0.93827000000E+00 0. -1.
     999902    2    1    2    0    0 -0.16894352021E-01  0.95236059347E-02 -0.13672189205E-01  0.10202013895E+01  0.10199254032E+01 0.  0.
     999903    2    3    3    0    0 -0.15651933565E-01 -0.26825467355E-01 -0.12643212781E+00  0.13226130000E+00  0.23310508594E-01 0.  0.
         14    1    1    2    0    0  0.16894352021E-01 -0.95236059347E-02  0.13672189205E-01  0.23728610534E-01  0.00000000000E+00 0. -1.
     999901    1    3    3    0    0 -0.12424184554E-02  0.36349073289E-01  0.11275993861E+00  0.88794008947E+00  0.88000000000E+00 0.  1.
        -11    1    4    4    0    0  0.24444557615E-02 -0.18827609175E-01 -0.65220122958E-01  0.67929226339E-01  0.51100000000E-03 0.  1.
         11    1    4    4    0    0 -0.18096389327E-01 -0.79978581794E-02 -0.61212004852E-01  0.64332073658E-01  0.51100000000E-03 0. -1.
</event>
<event>
 8    1  0.1115874E+005  0.1043930E+01  0.7957747E-01            NaN
         13   -1    0    0    0    0  0.00000000000E+00  0.00000000000E+00  0.74505805969E-08  0.10566000000E+00  0.10566000000E+00 0.  1.
     999900   -1    0    0    0    0 -0.00000000000E+00 -0.00000000000E+00 -0.74505805969E-08  0.93827000000E+00  0.93827000000E+00 0. -1.
     999902    2    1    2    0    0 -0.71526646494E-02  0.58641230128E-02 -0.24081902963E-01  0.10181329730E+01  0.10178061034E+01 0.  0.
     999903    2    3    3    0    0 -0.84853545746E-01  0.19192355344E-01 -0.96859252219E-01  0.13161641297E+00  0.19305302178E-01 0.  0.
         14    1    1    2    0    0  0.71526646494E-02 -0.58641230128E-02  0.24081902963E-01  0.25797026972E-01  0.00000000000E+00 0.  1.
     999901    1    3    3    0    0  0.77700881096E-01 -0.13328232331E-01  0.72777349256E-01  0.88651656006E+00  0.88000000000E+00 0.  1.
        -11    1    4    4    0    0 -0.41296600389E-01  0.81918808787E-02 -0.32798352808E-01  0.53371426662E-01  0.51100000000E-03 0.  1.
         11    1    4    4    0    0 -0.43556945356E-01  0.11000474466E-01 -0.64060899411E-01  0.78244986303E-01  0.51100000000E-03 0. -1.
</event>
<event>
 8    1  0.1115874E+005  0.1043930E+01  0.7957747E-01            NaN
         13   -1    0    0    0    0  0.00000000000E+00  0.00000000000E+00  0.74505805969E-08  0.10566000000E+00  0.10566000000E+00 0.  1.
     999900   -1    0    0    0    0 -0.00000000000E+00 -0.00000000000E+00 -0.74505805969E-08  0.93827000000E+00  0.93827000000E+00 0. -1.
     999902    2    1    2    0    0  0.27342097160E-02  0.23333945447E-01 -0.28998947019E-02  0.10202581116E+01  0.10199834586E+01 0.  0.
     999903    2    3    3    0    0  0.20046823471E-01  0.13055060584E+00  0.17810104497E-02  0.13356929933E+00  0.19805300044E-01 0.  0.
         14    1    1    2    0    0 -0.27342097160E-02 -0.23333945447E-01  0.28998947019E-02  0.23671888437E-01  0.00000000000E+00 0.  1.
     999901    1    3    3    0    0 -0.17312613755E-01 -0.10721666039E+00 -0.46809051516E-02  0.88668881223E+00  0.88000000000E+00 0. -1.
        -11    1    4    4    0    0  0.41170401320E-02  0.55109020658E-01  0.95059764226E-02  0.56076544884E-01  0.51100000000E-03 0.  1.
         11    1    4    4    0    0  0.15929783339E-01  0.75441585181E-01 -0.77249659729E-02  0.77492754450E-01  0.51100000000E-03 0. -1.
</event>
<event>
 8    1  0.1115874E+005  0.1043930E+01  0.7957747E-01            NaN
         13   -1    0    0    0    0  0.00000000000E+00  0.00000000000E+00  0.74505805969E-08  0.10566000000E+00  0.10566000000E+00 0. -1.
     999900   -1    0    0    0    0 -0.00000000000E+00 -0.00000000000E+00 -0.74505805969E-08  0.93827000000E+00  0.93827000000E+00 0. -1.
     999902    2    1    2    0    0 -0.13278902543E-01 -0.14608425891E-01  0.13348426081E-01  0.10200990152E+01  0.10198206141E+01 0.  0.
     999903    2    3    3    0    0 -0.95432187327E-01  0.27364017638E-01  0.85358278921E-01  0.13235115280E+00  0.19357169919E-01 0.  0.
         14    1    1    2    0    0  0.13278902543E-01  0.14608425891E-01 -0.13348426081E-01  0.23830984843E-01  0.00000000000E+00 0.  1.
     999901    1    3    3    0    0  0.82153284784E-01 -0.41972443530E-01 -0.72009852841E-01  0.88774786236E+00  0.88000000000E+00 0. -1.
        -11    1    4    4    0    0 -0.22717195691E-01  0.11691470869E-01  0.31244520743E-01  0.40363878266E-01  0.51100000000E-03 0.  1.
         11    1    4    4    0    0 -0.72714991635E-01  0.15672546769E-01  0.54113758178E-01  0.91987274533E-01  0.51100000000E-03 0. -1.
</event>
<event>
 8    1  0.1147013E+005  0.1043930E+01  0.7957747E-01            NaN
         13   -1    0    0    0    0  0.00000000000E+00  0.00000000000E+00  0.74505805969E-08  0.10566000000E+00  0.10566000000E+00 0.  1.
     999900   -1    0    0    0    0 -0.00000000000E+00 -0.00000000000E+00 -0.74505805969E-08  0.93827000000E+00  0.93827000000E+00 0. -1.
     999902    2    1    2    0    0  0.15335801247E-01  0.11288829223E-01  0.13806627263E-01  0.10204087878E+01  0.10201376607E+01 0.  0.
     999903    2    3    3    0    0  0.32851446552E-01  0.11012386548E+00 -0.60811621913E-01  0.13156513155E+00  0.20120814859E-01 0.  0.
         14    1    1    2    0    0 -0.15335801247E-01 -0.11288829223E-01 -0.13806627263E-01  0.23521212160E-01  0.00000000000E+00 0. -1.
     999901    1    3    3    0    0 -0.17515645305E-01 -0.98835036256E-01  0.74618249176E-01  0.88884365629E+00  0.88000000000E+00 0.  1.
        -11    1    4    4    0    0  0.17757304900E-01  0.50024326194E-01 -0.17248518037E-01  0.55816911272E-01  0.51100000000E-03 0.  1.
         11    1    4    4    0    0  0.15094141653E-01  0.60099539285E-01 -0.43563103876E-01  0.75748220275E-01  0.51100000000E-03 0. -1.
</event>
<event>
 8    1  0.1115874E+005  0.1043930E+01  0.7957747E-01            NaN
         13   -1    0    0    0    0  0.00000000000E+00  0.00000000000E+00  0.74505805969E-08  0.10566000000E+00  0.10566000000E+00 0. -1.
     999900   -1    0    0    0    0 -0.00000000000E+00 -0.00000000000E+00 -0.74505805969E-08  0.93827000000E+00  0.93827000000E+00 0. -1.
     999902    2    1    2    0    0 -0.19238783492E-02 -0.25370783797E-01  0.86438031041E-02  0.10170582060E+01  0.10167031529E+01 0.  0.
     999903    2    3    3    0    0 -0.76180157434E-01 -0.17337941129E-01  0.10196246809E+00  0.12897775092E+00  0.11614419647E-01 0.  0.
         14    1    1    2    0    0  0.19238783492E-02  0.25370783797E-01 -0.86438031041E-02  0.26871793957E-01  0.00000000000E+00 0. -1.
     999901    1    3    3    0    0  0.74256279085E-01 -0.80328426672E-02 -0.93318664982E-01  0.88808045513E+00  0.88000000000E+00 0. -1.
        -11    1    4    4    0    0 -0.39826669725E-01 -0.13567592930E-01  0.60644092057E-01  0.73811992398E-01  0.51100000000E-03 0. -1.
         11    1    4    4    0    0 -0.36353487710E-01 -0.37703481993E-02  0.41318376029E-01  0.55165758518E-01  0.51100000000E-03 0.  1.
</event>
<event>
 8    1  0.1115874E+005  0.1043930E+01  0.7957747E-01            NaN
         13   -1    0    0    0    0  0.00000000000E+00  0.00000000000E+00  0.74505805969E-08  0.10566000000E+00  0.10566000000E+00 0. -1.
     999900   -1    0    0    0    0 -0.00000000000E+00 -0.00000000000E+00 -0.74505805969E-08  0.93827000000E+00  0.93827000000E+00 0.  1.
     999902    2    1    2    0    0 -0.81278798260E-02 -0.17812981612E-01 -0.12005757824E-01  0.10209625673E+01  0.10207041985E+01 0.  0.
     999903    2    3    3    0    0  0.64418768858E-01  0.34018738955E-01 -0.10723233009E+00  0.13134599620E+00  0.21117426953E-01 0.  0.
         14    1    1    2    0    0  0.81278798260E-02  0.17812981612E-01  0.12005757824E-01  0.22967432710E-01  0.00000000000E+00 0. -1.
     999901    1    3    3    0    0 -0.72546648684E-01 -0.51831720567E-01  0.95226572261E-01  0.88961657109E+00  0.88000000000E+00 0. -1.
        -11    1    4    4    0    0  0.61900253285E-01  0.31753916462E-01 -0.89887044982E-01  0.11366571402E+00  0.51100000000E-03 0. -1.
         11    1    4    4    0    0  0.25185155729E-02  0.22648224933E-02 -0.17345285103E-01  0.17680282179E-01  0.51100000000E-03 0.  1.
</event>
<event>
 8    1  0.1115874E+005  0.1043930E+01  0.7957747E-01            NaN
         13   -1    0    0    0    0  0.00000000000E+00  0.00000000000E+00  0.74505805969E-08  0.10566000000E+00  0.10566000000E+00 0. -1.
     999900   -1    0    0    0    0 -0.00000000000E+00 -0.00000000000E+00 -0.74505805969E-08  0.93827000000E+00  0.93827000000E+00 0.  1.
     999902    2    1    2    0    0  0.11450500084E-01  0.21053048607E-01 -0.21965155844E-02  0.10198640596E+01  0.10195800756E+01 0.  0.
     999903    2    3    3    0    0  0.15332897256E-01  0.93896168423E-01  0.89274622407E-01  0.13212076211E+00  0.20841050626E-01 0.  0.
         14    1    1    2    0    0 -0.11450500084E-01 -0.21053048607E-01  0.21965155844E-02  0.24065940425E-01  0.00000000000E+00 0.  1.
     999901    1    3    3    0    0 -0.38823971725E-02 -0.72843119816E-01 -0.91471137992E-01  0.88774329747E+00  0.88000000000E+00 0.  1.
        -11    1    4    4    0    0 -0.33102969887E-02  0.38926208794E-02  0.24843613696E-02  0.57047117262E-02  0.51100000000E-03 0. -1.
         11    1    4    4    0    0  0.18643194245E-01  0.90003547544E-01  0.86790261038E-01  0.12641605038E+00  0.51100000000E-03 0.  1.
</event>
<event>
 8    1  0.1115874E+005  0.1043930E+01  0.7957747E-01            NaN
         13   -1    0    0    0    0  0.00000000000E+00  0.00000000000E+00  0.74505805969E-08  0.10566000000E+00  0.10566000000E+00 0. -1.
     999900   -1    0    0    0    0 -0.00000000000E+00 -0.00000000000E+00 -0.74505805969E-08  0.93827000000E+00  0.93827000000E+00 0.  1.
     999902    2    1    2    0    0 -0.24354426528E-01 -0.24623124492E-02 -0.10153729373E-02  0.10194303662E+01  0.10191359279E+01 0.  0.
     999903    2    3    3    0    0  0.40596496090E-01 -0.11808750292E+00  0.25818698267E-01  0.12908892922E+00  0.20114985115E-01 0.  0.
         14    1    1    2    0    0  0.24354426528E-01  0.24623124492E-02  0.10153729373E-02  0.24499633800E-01  0.00000000000E+00 0. -1.
     999901    1    3    3    0    0 -0.64950922618E-01  0.11562519047E+00 -0.26834071204E-01  0.89034143698E+00  0.88000000000E+00 0. -1.
        -11    1    4    4    0    0  0.98394208707E-03 -0.27384711234E-01  0.76901069361E-02  0.28465583028E-01  0.51100000000E-03 0.  1.
         11    1    4    4    0    0  0.39612554003E-01 -0.90702791690E-01  0.18128591331E-01  0.10062334620E+00  0.51100000000E-03 0. -1.
</event>
<event>
 8    1  0.1115874E+005  0.1043930E+01  0.7957747E-01            NaN
         13   -1    0    0    0    0  0.00000000000E+00  0.00000000000E+00  0.74505805969E-08  0.10566000000E+00  0.10566000000E+00 0.  1.
     999900   -1    0    0    0    0 -0.00000000000E+00 -0.00000000000E+00 -0.74505805969E-08  0.93827000000E+00  0.93827000000E+00 0.  1.
     999902    2    1    2    0    0 -0.10184608381E-01 -0.21373414239E-01 -0.85891846693E-02  0.10187442267E+01  0.10184328531E+01 0.  0.
     999903    2    3    3    0    0 -0.11866665141E+00  0.32701194705E-01  0.34805620431E-01  0.12937617796E+00  0.19380967893E-01 0.  0.
         14    1    1    2    0    0  0.10184608381E-01  0.21373414239E-01  0.85891846693E-02  0.25185773314E-01  0.00000000000E+00 0.  1.
     999901    1    3    3    0    0  0.10848204303E+00 -0.54074608944E-01 -0.43394805100E-01  0.88936804873E+00  0.88000000000E+00 0.  1.
        -11    1    4    4    0    0 -0.74183015106E-01  0.27183377967E-01  0.29054798284E-01  0.84181341117E-01  0.51100000000E-03 0. -1.
         11    1    4    4    0    0 -0.44483636306E-01  0.55178167377E-02  0.57508221469E-02  0.45194836839E-01  0.51100000000E-03 0.  1.
</event>
<event>
 8    1  0.1115874E+005  0.1043930E+01  0.7957747E-01            NaN
         13   -1    0    0    0    0  0.00000000000E+00  0.00000000000E+00  0.74505805969E-08  0.10566000000E+00  0.10566000000E+00 0.  1.
     999900   -1    0    0    0    0 -0.00000000000E+00 -0.00000000000E+00 -0.74505805969E-08  0.93827000000E+00  0.93827000000E+00 0.  1.
     999902    2    1    2    0    0 -0.15261401893E-01 -0.22328130538E-02  0.17132018549E-01  0.10208778439E+01  0.10206175436E+01 0.  0.
     999903    2    3    3    0    0  0.10187409263E+00  0.51866269595E-01 -0.55169627704E-01  0.12853544163E+00  0.20229465229E-01 0.  0.
         14    1    1    2    0    0  0.15261401893E-01  0.22328130538E-02 -0.17132018549E-01  0.23052156113E-01  0.00000000000E+00 0. -1.
     999901    1    3    3    0    0 -0.11713549452E+00 -0.54099082648E-01  0.72301646253E-01  0.89234240226E+00  0.88000000000E+00 0. -1.
        -11    1    4    4    0    0  0.44075796842E-01  0.33659683647E-01 -0.24850047783E-01  0.60773646973E-01  0.51100000000E-03 0. -1.
         11    1    4    4    0    0  0.57798295783E-01  0.18206585947E-01 -0.30319579921E-01  0.67761794655E-01  0.51100000000E-03 0.  1.
</event>
<event>
 8    1  0.1115874E+005  0.1043930E+01  0.7957747E-01            NaN
         13   -1    0    0    0    0  0.00000000000E+00  0.00000000000E+00  0.74505805969E-08  0.10566000000E+00  0.10566000000E+00 0. -1.
     999900   -1    0    0    0    0 -0.00000000000E+00 -0.00000000000E+00 -0.74505805969E-08  0.93827000000E+00  0.93827000000E+00 0.  1.
     999902    2    1    2    0    0 -0.15568975774E-01  0.15024865727E-01 -0.60551542359E-02  0.10214621454E+01  0.10212150166E+01 0.  0.
     999903    2    3    3    0    0  0.55147135040E-02 -0.12436826614E+00  0.30066130652E-01  0.12950939197E+00  0.19257017082E-01 0.  0.
         14    1    1    2    0    0  0.15568975774E-01 -0.15024865727E-01  0.60551542359E-02  0.22467854583E-01  0.00000000000E+00 0. -1.
     999901    1    3    3    0    0 -0.21083689278E-01  0.13939313187E+00 -0.36121284888E-01  0.89195275345E+00  0.88000000000E+00 0.  1.
        -11    1    4    4    0    0  0.28071023501E-03 -0.55961112668E-01  0.39691947215E-02  0.56104728473E-01  0.51100000000E-03 0.  1.
         11    1    4    4    0    0  0.52340032690E-02 -0.68407153474E-01  0.26096935931E-01  0.73404663494E-01  0.51100000000E-03 0. -1.
</event>
<event>
 8    1  0.1115874E+005  0.1043930E+01  0.7957747E-01            NaN
         13   -1    0    0    0    0  0.00000000000E+00  0.00000000000E+00  0.74505805969E-08  0.10566000000E+00  0.10566000000E+00 0.  1.
     999900   -1    0    0    0    0 -0.00000000000E+00 -0.00000000000E+00 -0.74505805969E-08  0.93827000000E+00  0.93827000000E+00 0.  1.
     999902    2    1    2    0    0  0.16178376584E-01 -0.18933591338E-01 -0.29615979292E-02  0.10188502908E+01  0.10185415668E+01 0.  0.
     999903    2    3    3    0    0  0.53655852924E-01  0.47876125238E-01 -0.10586968589E+00  0.12954821952E+00  0.20081754638E-01 0.  0.
         14    1    1    2    0    0 -0.16178376584E-01  0.18933591338E-01  0.29615979292E-02  0.25079709171E-01  0.00000000000E+00 0. -1.
     999901    1    3    3    0    0 -0.37477476340E-01 -0.66809716576E-01  0.10290808796E+00  0.88930207131E+00  0.88000000000E+00 0. -1.
        -11    1    4    4    0    0  0.14716708096E-01  0.25828521912E-01 -0.37913468108E-01  0.48180766145E-01  0.51100000000E-03 0. -1.
         11    1    4    4    0    0  0.38939144828E-01  0.22047603326E-01 -0.67956217786E-01  0.81367453377E-01  0.51100000000E-03 0.  1.
</event>
<event>
 7    1  0.1115874E+005  0.1043930E+01  0.7957747E-01            NaN
         13   -1    0    0    0    0  0.00000000000E+00  0.00000000000E+00  0.74505805969E-08  0.10566000000E+00  0.10566000000E+00 0. -1.
     999900   -1    0    0    0    0 -0.00000000000E+00 -0.00000000000E+00 -0.74505805969E-08  0.93827000000E+00  0.93827000000E+00 0.  1.
     999903    2    1    2    0    0 -0.14466804803E-01 -0.86939058875E-01  0.25623636055E-01  0.93903014118E-01  0.19837261316E-01 0.  0.
         14    1    1    2    0    0 -0.23532637978E-01  0.62435442664E-01 -0.16869883052E-01  0.68822688882E-01  0.00000000000E+00 0.  1.
     999901    1    1    2    0    0  0.37999442780E-01  0.24503616211E-01 -0.87537530029E-02  0.88120429700E+00  0.88000000000E+00 0.  1.
        -11    1    3    3    0    0 -0.13090527226E-01 -0.86943990493E-01  0.22979568820E-01  0.90878716376E-01  0.51100000000E-03 0.  1.
         11    1    3    3    0    0 -0.13762775770E-02  0.49316183013E-05  0.26440672353E-02  0.30242977424E-02  0.51100000000E-03 0. -1.
</event>
<event>
 8    1  0.1115874E+005  0.1043930E+01  0.7957747E-01            NaN
         13   -1    0    0    0    0  0.00000000000E+00  0.00000000000E+00  0.74505805969E-08  0.10566000000E+00  0.10566000000E+00 0. -1.
     999900   -1    0    0    0    0 -0.00000000000E+00 -0.00000000000E+00 -0.74505805969E-08  0.93827000000E+00  0.93827000000E+00 0. -1.
     999902    2    1    2    0    0  0.12217302293E-01 -0.13514682502E-01  0.14380359831E-01  0.10207200050E+01  0.10204560866E+01 0.  0.
     999903    2    3    3    0    0  0.92586648651E-01 -0.89386296313E-01  0.29525067328E-01  0.13367711102E+00  0.20872061067E-01 0.  0.
         14    1    1    2    0    0 -0.12217302293E-01  0.13514682502E-01 -0.14380359831E-01  0.23209994987E-01  0.00000000000E+00 0.  1.
     999901    1    3    3    0    0 -0.80369346358E-01  0.75871613811E-01 -0.15144707497E-01  0.88704289399E+00  0.88000000000E+00 0. -1.
        -11    1    4    4    0    0  0.53267599236E-01 -0.64349362416E-01  0.15199905177E-01  0.84909220995E-01  0.51100000000E-03 0.  1.
         11    1    4    4    0    0  0.39319049415E-01 -0.25036933898E-01  0.14325162151E-01  0.48767890026E-01  0.51100000000E-03 0. -1.
</event>
<event>
 8    1  0.1115874E+005  0.1043930E+01  0.7957747E-01            NaN
         13   -1    0    0    0    0  0.00000000000E+00  0.00000000000E+00  0.74505805969E-08  0.10566000000E+00  0.10566000000E+00 0.  1.
     999900   -1    0    0    0    0 -0.00000000000E+00 -0.00000000000E+00 -0.74505805969E-08  0.93827000000E+00  0.93827000000E+00 0. -1.
     999902    2    1    2    0    0 -0.82386082868E-02 -0.35880968147E-02 -0.21230716520E-01  0.10208758804E+01  0.10206155353E+01 0.  0.
     999903    2    3    3    0    0  0.11345598186E+00 -0.38950986245E-01  0.44680122052E-01  0.12935787957E+00  0.18646944825E-01 0.  0.
         14    1    1    2    0    0  0.82386082868E-02  0.35880968147E-02  0.21230716520E-01  0.23054119571E-01  0.00000000000E+00 0.  1.
     999901    1    3    3    0    0 -0.12169459014E+00  0.35362889430E-01 -0.65910838571E-01  0.89151800086E+00  0.88000000000E+00 0.  1.
        -11    1    4    4    0    0  0.11236561560E-01 -0.80700899616E-02  0.10022931427E-01  0.17091136389E-01  0.51100000000E-03 0.  1.
         11    1    4    4    0    0  0.10221942030E+00 -0.30880896283E-01  0.34657190625E-01  0.11226674318E+00  0.51100000000E-03 0. -1.
</event>
<event>
 8    1  0.1115874E+005  0.1043930E+01  0.7957747E-01            NaN
         13   -1    0    0    0    0  0.00000000000E+00  0.00000000000E+00  0.74505805969E-08  0.10566000000E+00  0.10566000000E+00 0.  1.
     999900   -1    0    0    0    0 -0.00000000000E+00 -0.00000000000E+00 -0.74505805969E-08  0.93827000000E+00  0.93827000000E+00 0. -1.
     999902    2    1    2    0    0 -0.22367306042E-01  0.38520190570E-02  0.62719130119E-03  0.10212247627E+01  0.10209723249E+01 0.  0.
     999903    2    3    3    0    0 -0.11351330222E+00 -0.67650637395E-01 -0.25485709779E-02  0.13362670732E+00  0.19690687524E-01 0.  0.
         14    1    1    2    0    0  0.22367306042E-01 -0.38520190570E-02 -0.62719130119E-03  0.22705237266E-01  0.00000000000E+00 0. -1.
     999901    1    3    3    0    0  0.91145996180E-01  0.71502656452E-01  0.31757622791E-02  0.88759805541E+00  0.88000000000E+00 0.  1.
        -11    1    4    4    0    0 -0.50480681341E-01 -0.23276856175E-01 -0.88139975642E-02  0.56285512311E-01  0.51100000000E-03 0.  1.
         11    1    4    4    0    0 -0.63032620882E-01 -0.44373781219E-01  0.62654265863E-02  0.77341195014E-01  0.51100000000E-03 0. -1.
</event>
<event>
 8    1  0.1115874E+005  0.1043930E+01  0.7957747E-01            NaN
         13   -1    0    0    0    0  0.00000000000E+00  0.00000000000E+00  0.74505805969E-08  0.10566000000E+00  0.10566000000E+00 0. -1.
     999900   -1    0    0    0    0 -0.00000000000E+00 -0.00000000000E+00 -0.74505805969E-08  0.93827000000E+00  0.93827000000E+00 0.  1.
     999902    2    1    2    0    0  0.86308498579E-02 -0.16047813054E-01  0.22397830283E-02  0.10255713372E+01  0.10254070056E+01 0.  0.
     999903    2    3    3    0    0  0.71984117849E-02  0.11531904054E+00  0.63697498020E-01  0.13369895121E+00  0.21627298869E-01 0.  0.
         14    1    1    2    0    0 -0.86308498579E-02  0.16047813054E-01 -0.22397830283E-02  0.18358662836E-01  0.00000000000E+00 0. -1.
     999901    1    3    3    0    0  0.14324380730E-02 -0.13136685359E+00 -0.61457714992E-01  0.89187238596E+00  0.88000000000E+00 0.  1.
        -11    1    4    4    0    0  0.38712343764E-02  0.50237945495E-01  0.15753409599E-01  0.52794589289E-01  0.51100000000E-03 0.  1.
         11    1    4    4    0    0  0.33271774086E-02  0.65081095045E-01  0.47944088421E-01  0.80904361918E-01  0.51100000000E-03 0. -1.
</event>
<event>
 8    1  0.1115874E+005  0.1043930E+01  0.7957747E-01            NaN
         13   -1    0    0    0    0  0.00000000000E+00  0.00000000000E+00  0.74505805969E-08  0.10566000000E+00  0.10566000000E+00 0. -1.
     999900   -1    0    0    0    0 -0.00000000000E+00 -0.00000000000E+00 -0.74505805969E-08  0.93827000000E+00  0.93827000000E+00 0.  1.
     999902    2    1    2    0    0  0.22695291467E-01  0.23724650418E-02 -0.41466277824E-02  0.10207373424E+01  0.10204738227E+01 0.  0.
     999903    2    3    3    0    0 -0.63249554081E-01  0.21481733288E-02  0.11084577089E+00  0.12910411144E+00  0.19389840766E-01 0.  0.
         14    1    1    2    0    0 -0.22695291467E-01 -0.23724650418E-02  0.41466277824E-02  0.23192657612E-01  0.00000000000E+00 0.  1.
     999901    1    3    3    0    0  0.85944845548E-01  0.22429171292E-03 -0.11499239868E+00  0.89163323095E+00  0.88000000000E+00 0.  1.
        -11    1    4    4    0    0 -0.16336000775E-01  0.66366045541E-02  0.43162059990E-01  0.46627609684E-01  0.51100000000E-03 0.  1.
         11    1    4    4    0    0 -0.46913553307E-01 -0.44884312253E-02  0.67683710904E-01  0.82476501753E-01  0.51100000000E-03 0. -1.
</event>
<event>
 8    1  0.1115874E+005  0.1043930E+01  0.7957747E-01            NaN
         13   -1    0    0    0    0  0.00000000000E+00  0.00000000000E+00  0.74505805969E-08  0.10566000000E+00  0.10566000000E+00 0.  1.
     999900   -1    0    0    0    0 -0.00000000000E+00 -0.00000000000E+00 -0.74505805969E-08  0.93827000000E+00  0.93827000000E+00 0. -1.
     999902    2    1    2    0    0 -0.22082259856E-01 -0.78241216535E-02 -0.59576256066E-02  0.10197569492E+01  0.10194704013E+01 0.  0.
     999903    2    3    3    0    0  0.11306565120E+00 -0.33179170436E-01 -0.45606230569E-01  0.12819660455E+00  0.21673539595E-01 0.  0.
         14    1    1    2    0    0  0.22082259856E-01  0.78241216535E-02  0.59576256066E-02  0.24173050756E-01  0.00000000000E+00 0. -1.
     999901    1    3    3    0    0 -0.13514791106E+00  0.25355048782E-01  0.39648604963E-01  0.89156034470E+00  0.88000000000E+00 0. -1.
        -11    1    4    4    0    0  0.79462440044E-01 -0.20570194520E-01 -0.21156247589E-01  0.84765914219E-01  0.51100000000E-03 0.  1.
         11    1    4    4    0    0  0.33603211156E-01 -0.12608975915E-01 -0.24449982980E-01  0.43430690328E-01  0.51100000000E-03 0. -1.
</event>
<event>
 8    1  0.1115874E+005  0.1043930E+01  0.7957747E-01            NaN
         13   -1    0    0    0    0  0.00000000000E+00  0.00000000000E+00  0.74505805969E-08  0.10566000000E+00  0.10566000000E+00 0.  1.
     999900   -1    0    0    0    0 -0.00000000000E+00 -0.00000000000E+00 -0.74505805969E-08  0.93827000000E+00  0.93827000000E+00 0.  1.
     999902    2    1    2    0    0  0.92339621974E-02 -0.22113610172E-01  0.10657692077E-01  0.10177028344E+01  0.10173648289E+01 0.  0.
     999903    2    3    3    0    0 -0.86137261283E-01 -0.31089479540E-01 -0.86162032882E-01  0.12722526839E+00  0.19395604857E-01 0.  0.
         14    1    1    2    0    0 -0.92339621974E-02  0.22113610172E-01 -0.10657692077E-01  0.26227165556E-01  0.00000000000E+00 0. -1.
     999901    1    3    3    0    0  0.95371223481E-01  0.89758693683E-02  0.96819724959E-01  0.89047756605E+00  0.88000000000E+00 0. -1.
        -11    1    4    4    0    0 -0.60844799651E-01 -0.29163901340E-01 -0.55067953534E-01  0.87093991833E-01  0.51100000000E-03 0.  1.
         11    1    4    4    0    0 -0.25292461632E-01 -0.19255781999E-02 -0.31094079348E-01  0.40131276559E-01  0.51100000000E-03 0. -1.
</event>
<event>
 8    1  0.1115874E+005  0.1043930E+01  0.7957747E-01            NaN
         13   -1    0    0    0    0  0.00000000000E+00  0.00000000000E+00  0.74505805969E-08  0.10566000000E+00  0.10566000000E+00 0. -1.
     999900   -1    0    0    0    0 -0.00000000000E+00 -0.00000000000E+00 -0.74505805969E-08  0.93827000000E+00  0.93827000000E+00 0. -1.
     999902    2    1    2    0    0  0.17590884761E-01 -0.12137641374E-01 -0.14276958809E-01  0.10182279939E+01  0.10179035585E+01 0.  0.
     999903    2    3    3    0    0 -0.64906442703E-01 -0.10834711045E+00 -0.17304704909E-01  0.12914349947E+00  0.20655459239E-01 0.  0.
         14    1    1    2    0    0 -0.17590884761E-01  0.12137641374E-01  0.14276958809E-01  0.25702006101E-01  0.00000000000E+00 0. -1.
     999901    1    3    3    0    0  0.82497327465E-01  0.96209469080E-01  0.30277461002E-02  0.88908449442E+00  0.88000000000E+00 0. -1.
        -11    1    4    4    0    0 -0.25773862135E-01 -0.37171646104E-01  0.32664282724E-02  0.45353653856E-01  0.51100000000E-03 0.  1.
         11    1    4    4    0    0 -0.39132580568E-01 -0.71175464350E-01 -0.20571133181E-01  0.83789845618E-01  0.51100000000E-03 0. -1.
</event>
<event>
 8    1  0.1115874E+005  0.1043930E+01  0.7957747E-01            NaN
         13   -1    0    0    0    0  0.00000000000E+00  0.00000000000E+00  0.74505805969E-08  0.10566000000E+00  0.10566000000E+00 0. -1.
     999900   -1    0    0    0    0 -0.00000000000E+00 -0.00000000000E+00 -0.74505805969E-08  0.93827000000E+00  0.93827000000E+00 0. -1.
     999902    2    1    2    0    0 -0.50439677573E-04 -0.10612509778E-01  0.20245432236E-01  0.10210716222E+01  0.10208157289E+01 0.  0.
     999903    2    3    3    0    0 -0.57822938565E-01 -0.29223906098E-01  0.11549177494E+00  0.13385354785E+00  0.19516487425E-01 0.  0.
         14    1    1    2    0    0  0.50439677573E-04  0.10612509778E-01 -0.20245432236E-01  0.22858377772E-01  0.00000000000E+00 0.  1.
     999901    1    3    3    0    0  0.57772498887E-01  0.18611396321E-01 -0.95246342705E-01  0.88721807438E+00  0.88000000000E+00 0. -1.
        -11    1    4    4    0    0 -0.44457412661E-01 -0.30762602318E-01  0.88944299192E-01  0.10408721690E+00  0.51100000000E-03 0.  1.
         11    1    4    4    0    0 -0.13365525904E-01  0.15386962201E-02  0.26547475750E-01  0.29766330954E-01  0.51100000000E-03 0. -1.
</event>
<event>
 8    1  0.1115874E+005  0.1043930E+01  0.7957747E-01            NaN
         13   -1    0    0    0    0  0.00000000000E+00  0.00000000000E+00  0.74505805969E-08  0.10566000000E+00  0.10566000000E+00 0. -1.
     999900   -1    0    0    0    0 -0.00000000000E+00 -0.00000000000E+00 -0.74505805969E-08  0.93827000000E+00  0.93827000000E+00 0.  1.
     999902    2    1    2    0    0 -0.21031009409E-01 -0.10573870372E-01 -0.33688698338E-02  0.10201506103E+01  0.10198734276E+01 0.  0.
     999903    2    3    3    0    0 -0.11627141550E-01 -0.11656383429E-02  0.12821837501E+00  0.13026738729E+00  0.19826531926E-01 0.  0.
         14    1    1    2    0    0  0.21031009409E-01  0.10573870372E-01  0.33688698338E-02  0.23779389718E-01  0.00000000000E+00 0.  1.
     999901    1    3    3    0    0 -0.94038678589E-02 -0.94082320288E-02 -0.13158724484E+00  0.88988322299E+00  0.88000000000E+00 0.  1.
        -11    1    4    4    0    0 -0.42891405406E-02 -0.99829052993E-02  0.47059753883E-01  0.48300483241E-01  0.51100000000E-03 0.  1.
         11    1    4    4    0    0 -0.73380010093E-02  0.88172669564E-02  0.81158621124E-01  0.81966904048E-01  0.51100000000E-03 0. -1.
</event>
<event>
 8    1  0.1115874E+005  0.1043930E+01  0.7957747E-01            NaN
         13   -1    0    0    0    0  0.00000000000E+00  0.00000000000E+00  0.74505805969E-08  0.10566000000E+00  0.10566000000E+00 0.  1.
     999900   -1    0    0    0    0 -0.00000000000E+00 -0.00000000000E+00 -0.74505805969E-08  0.93827000000E+00  0.93827000000E+00 0.  1.
     999902    2    1    2    0    0 -0.10661463851E-01 -0.71431863783E-02 -0.20544922431E-03  0.10310951205E+01  0.10310152343E+01 0.  0.
     999903    2    3    3    0    0  0.33099366787E-01 -0.32112866937E-01 -0.13071854257E+00  0.14004396438E+00  0.19954204632E-01 0.  0.
         14    1    1    2    0    0  0.10661463851E-01  0.71431863783E-02  0.20544922431E-03  0.12834879527E-01  0.00000000000E+00 0.  1.
     999901    1    3    3    0    0 -0.43760830638E-01  0.24969680559E-01  0.13051309335E+00  0.89105115610E+00  0.88000000000E+00 0. -1.
        -11    1    4    4    0    0  0.13710003314E-01 -0.26516615313E-01 -0.71663933845E-01  0.77634242533E-01  0.51100000000E-03 0. -1.
         11    1    4    4    0    0  0.19389363473E-01 -0.55962516243E-02 -0.59054608724E-01  0.62409721844E-01  0.51100000000E-03 0.  1.
</event>
<event>
 8    1  0.1115874E+005  0.1043930E+01  0.7957747E-01            NaN
         13   -1    0    0    0    0  0.00000000000E+00  0.00000000000E+00  0.74505805969E-08  0.10566000000E+00  0.10566000000E+00 0.  1.
     999900   -1    0    0    0    0 -0.00000000000E+00 -0.00000000000E+00 -0.74505805969E-08  0.93827000000E+00  0.93827000000E+00 0. -1.
     999902    2    1    2    0    0  0.20504809557E-02  0.22213588264E-01 -0.22237715657E-02  0.10215114109E+01  0.10212653766E+01 0.  0.
     999903    2    3    3    0    0 -0.60819172667E-01  0.10447059999E+00 -0.54132930889E-01  0.13392289696E+00  0.19796214175E-01 0.  0.
         14    1    1    2    0    0 -0.20504809557E-02 -0.22213588264E-01  0.22237715657E-02  0.22418589066E-01  0.00000000000E+00 0.  1.
     999901    1    3    3    0    0  0.62869653622E-01 -0.82257011729E-01  0.51909159324E-01  0.88758851398E+00  0.88000000000E+00 0.  1.
        -11    1    4    4    0    0 -0.14360870689E-01  0.28500074763E-01 -0.52806749855E-02  0.32351746749E-01  0.51100000000E-03 0.  1.
         11    1    4    4    0    0 -0.46458301978E-01  0.75970525230E-01 -0.48852255904E-01  0.10157115021E+00  0.51100000000E-03 0. -1.
</event>
<event>
 8    1  0.1115874E+005  0.1043930E+01  0.7957747E-01            NaN
         13   -1    0    0    0    0  0.00000000000E+00  0.00000000000E+00  0.74505805969E-08  0.10566000000E+00  0.10566000000E+00 0.  1.
     999900   -1    0    0    0    0 -0.00000000000E+00 -0.00000000000E+00 -0.74505805969E-08  0.93827000000E+00  0.93827000000E+00 0. -1.
     999902    2    1    2    0    0  0.22407123855E-01  0.60818344771E-02  0.14687038186E-02  0.10206657570E+01  0.10204005893E+01 0.  0.
     999903    2    3    3    0    0  0.49651680642E-01  0.11948598561E+00 -0.21349844330E-01  0.13267732608E+00  0.20131240775E-01 0.  0.
         14    1    1    2    0    0 -0.22407123855E-01 -0.60818344771E-02 -0.14687038186E-02  0.23264242970E-01  0.00000000000E+00 0. -1.
     999901    1    3    3    0    0 -0.27244556787E-01 -0.11340415113E+00  0.22818548149E-01  0.88798843095E+00  0.88000000000E+00 0. -1.
        -11    1    4    4    0    0  0.28000528575E-02  0.28125890829E-01 -0.50620732636E-02  0.28719187622E-01  0.51100000000E-03 0.  1.
         11    1    4    4    0    0  0.46851627784E-01  0.91360094777E-01 -0.16287771066E-01  0.10395813846E+00  0.51100000000E-03 0. -1.
</event>
<event>
 8    1  0.1115874E+005  0.1043930E+01  0.7957747E-01            NaN
         13   -1    0    0    0    0  0.00000000000E+00  0.00000000000E+00  0.74505805969E-08  0.10566000000E+00  0.10566000000E+00 0. -1.
     999900   -1    0    0    0    0 -0.00000000000E+00 -0.00000000000E+00 -0.74505805969E-08  0.93827000000E+00  0.93827000000E+00 0. -1.
     999902    2    1    2    0    0  0.22171869679E-01  0.39622109030E-02 -0.76436410036E-02  0.10201452114E+01  0.10198679013E+01 0.  0.
     999903    2    3    3    0    0  0.24696081405E-02  0.82880691682E-02 -0.12944053063E+00  0.13152753520E+00  0.21676034949E-01 0.  0.
         14    1    1    2    0    0 -0.22171869679E-01 -0.39622109030E-02  0.76436410036E-02  0.23784788586E-01  0.00000000000E+00 0. -1.
     999901    1    3    3    0    0  0.19702261538E-01 -0.43258582653E-02  0.12179688963E+00  0.88861767622E+00  0.88000000000E+00 0.  1.
        -11    1    4    4    0    0 -0.42273833243E-02  0.96812303075E-02 -0.29266041682E-01  0.31118472115E-01  0.51100000000E-03 0. -1.
         11    1    4    4    0    0  0.66969914648E-02 -0.13931611392E-02 -0.10017448895E+00  0.10040906308E+00  0.51100000000E-03 0.  1.
</event>
<event>
 8    1  0.1115874E+005  0.1043930E+01  0.7957747E-01            NaN
         13   -1    0    0    0    0  0.00000000000E+00  0.00000000000E+00  0.74505805969E-08  0.10566000000E+00  0.10566000000E+00 0.  1.
     999900   -1    0    0    0    0 -0.00000000000E+00 -0.00000000000E+00 -0.74505805969E-08  0.93827000000E+00  0.93827000000E+00 0. -1.
     999902    2    1    2    0    0  0.21076924049E-01 -0.10506753492E-01 -0.24793356672E-02  0.10202492969E+01  0.10199744369E+01 0.  0.
     999903    2    3    3    0    0 -0.11117779580E+00  0.52613293012E-01  0.27526685495E-01  0.12762630112E+00  0.20052267773E-01 0.  0.
         14    1    1    2    0    0 -0.21076924049E-01  0.10506753492E-01  0.24793356672E-02  0.23680703149E-01  0.00000000000E+00 0. -1.
     999901    1    3    3    0    0  0.13225471985E+00 -0.63120046504E-01 -0.30006021162E-01  0.89262299573E+00  0.88000000000E+00 0. -1.
        -11    1    4    4    0    0 -0.86298891175E-01  0.46232661022E-01  0.15002991854E-01  0.99047001211E-01  0.51100000000E-03 0.  1.
         11    1    4    4    0    0 -0.24878904629E-01  0.63806319901E-02  0.12523693641E-01  0.28579299914E-01  0.51100000000E-03 0. -1.
</event>
<event>
 8    1  0.1115874E+005  0.1043930E+01  0.7957747E-01            NaN
         13   -1    0    0    0    0  0.00000000000E+00  0.00000000000E+00  0.74505805969E-08  0.10566000000E+00  0.10566000000E+00 0. -1.
     999900   -1    0    0    0    0 -0.00000000000E+00 -0.00000000000E+00 -0.74505805969E-08  0.93827000000E+00  0.93827000000E+00 0. -1.
     999902    2    1    2    0    0 -0.15778563994E-01 -0.15637047487E-01  0.89157741659E-02  0.10199931797E+01  0.10197122709E+01 0.  0.
     999903    2    3    3    0    0  0.24031263260E-01  0.77900052267E-01 -0.96415345986E-01  0.12790088840E+00  0.20415644836E-01 0.  0.
         14    1    1    2    0    0  0.15778563994E-01  0.15637047487E-01 -0.89157741659E-02  0.23936820273E-01  0.00000000000E+00 0. -1.
     999901    1    3    3    0    0 -0.39809827254E-01 -0.93537099754E-01  0.10533112015E+00  0.89209229133E+00  0.88000000000E+00 0.  1.
        -11    1    4    4    0    0 -0.14558670082E-02  0.95527130184E-02 -0.20222304903E-01  0.22418220522E-01  0.51100000000E-03 0. -1.
         11    1    4    4    0    0  0.25487130269E-01  0.68347339249E-01 -0.76193041083E-01  0.10548266788E+00  0.51100000000E-03 0.  1.
</event>
<event>
 8    1  0.1115874E+005  0.1043930E+01  0.7957747E-01            NaN
         13   -1    0    0    0    0  0.00000000000E+00  0.00000000000E+00  0.74505805969E-08  0.10566000000E+00  0.10566000000E+00 0.  1.
     999900   -1    0    0    0    0 -0.00000000000E+00 -0.00000000000E+00 -0.74505805969E-08  0.93827000000E+00  0.93827000000E+00 0.  1.
     999902    2    1    2    0    0  0.19902345954E-01  0.13638161414E-01 -0.40439213534E-02  0.10194666372E+01  0.10191730806E+01 0.  0.
     999903    2    3    3    0    0 -0.47061970592E-01 -0.11517993543E+00  0.17978498145E-01  0.12729887899E+00  0.20013285486E-01 0.  0.
         14    1    1    2    0    0 -0.19902345954E-01 -0.13638161414E-01  0.40439213534E-02  0.24463362834E-01  0.00000000000E+00 0.  1.
     999901    1    3    3    0    0  0.66964316546E-01  0.12881809684E+00 -0.22022419498E-01  0.89216775817E+00  0.88000000000E+00 0.  1.
        -11    1    4    4    0    0 -0.55333429729E-02 -0.36836847554E-01  0.76205741542E-02  0.38025064019E-01  0.51100000000E-03 0.  1.
         11    1    4    4    0    0 -0.41528627620E-01 -0.78343087874E-01  0.10357923991E-01  0.89273814974E-01  0.51100000000E-03 0. -1.
</event>
<event>
 8    1  0.1115874E+005  0.1043930E+01  0.7957747E-01            NaN
         13   -1    0    0    0    0  0.00000000000E+00  0.00000000000E+00  0.74505805969E-08  0.10566000000E+00  0.10566000000E+00 0.  1.
     999900   -1    0    0    0    0 -0.00000000000E+00 -0.00000000000E+00 -0.74505805969E-08  0.93827000000E+00  0.93827000000E+00 0. -1.
     999902    2    1    2    0    0 -0.11756250602E-01 -0.14806560979E-01 -0.14110784382E-01  0.10203385203E+01  0.10200657519E+01 0.  0.
     999903    2    3    3    0    0 -0.40871960683E-01 -0.11484294481E+00 -0.50443803324E-01  0.13344783321E+00  0.20107902727E-01 0.  0.
         14    1    1    2    0    0  0.11756250602E-01  0.14806560979E-01  0.14110784382E-01  0.23591479651E-01  0.00000000000E+00 0.  1.
     999901    1    3    3    0    0  0.29115710081E-01  0.10003638383E+00  0.36333018942E-01  0.88689068714E+00  0.88000000000E+00 0.  1.
        -11    1    4    4    0    0 -0.40338121160E-01 -0.10401357180E+00 -0.40379724808E-01  0.11864556643E+00  0.51100000000E-03 0.  1.
         11    1    4    4    0    0 -0.53383952288E-03 -0.10829373012E-01 -0.10064078516E-01  0.14802266781E-01  0.51100000000E-03 0. -1.
</event>
<event>
 8    1  0.1115874E+005  0.1043930E+01  0.7957747E-01            NaN
         13   -1    0    0    0    0  0.00000000000E+00  0.00000000000E+00  0.74505805969E-08  0.10566000000E+00  0.10566000000E+00 0.  1.
     999900   -1    0    0    0    0 -0.00000000000E+00 -0.00000000000E+00 -0.74505805969E-08  0.93827000000E+00  0.93827000000E+00 0. -1.
     999902    2    1    2    0    0  0.10706212124E-01  0.21785481194E-01 -0.40081003031E-02  0.10193272555E+01  0.10190303032E+01 0.  0.
     999903    2    3    3    0    0 -0.53705127780E-02  0.72321045635E-01 -0.10805552085E+00  0.13161211533E+00  0.19661568311E-01 0.  0.
         14    1    1    2    0    0 -0.10706212124E-01 -0.21785481194E-01  0.40081003031E-02  0.24602744500E-01  0.00000000000E+00 0.  1.
     999901    1    3    3    0    0  0.16076724902E-01 -0.50535564441E-01  0.10404742054E+00  0.88771514017E+00  0.88000000000E+00 0.  1.
        -11    1    4    4    0    0  0.35080892693E-02  0.37345454241E-01 -0.41794430320E-01  0.56160708414E-01  0.51100000000E-03 0.  1.
         11    1    4    4    0    0 -0.88786020473E-02  0.34975591394E-01 -0.66261090526E-01  0.75451406921E-01  0.51100000000E-03 0. -1.
</event>
<event>
 8    1  0.1115874E+005  0.1043930E+01  0.7957747E-01            NaN
         13   -1    0    0    0    0  0.00000000000E+00  0.00000000000E+00  0.74505805969E-08  0.10566000000E+00  0.10566000000E+00 0. -1.
     999900   -1    0    0    0    0 -0.00000000000E+00 -0.00000000000E+00 -0.74505805969E-08  0.93827000000E+00  0.93827000000E+00 0. -1.
     999902    2    1    2    0    0  0.70523947929E-02  0.18949281617E-01  0.91723970296E-02  0.10217276485E+01  0.10214863892E+01 0.  0.
     999903    2    3    3    0    0  0.17075369512E-01 -0.11728882974E+00 -0.48593889096E-01  0.12931618125E+00  0.17693808244E-01 0.  0.
         14    1    1    2    0    0 -0.70523947929E-02 -0.18949281617E-01 -0.91723970296E-02  0.22202351529E-01  0.00000000000E+00 0.  1.
     999901    1    3    3    0    0 -0.10022974719E-01  0.13623811136E+00  0.57766286125E-01  0.89241146722E+00  0.88000000000E+00 0.  1.
        -11    1    4    4    0    0  0.14323516881E-01 -0.68277165118E-01 -0.20318079396E-01  0.72663745318E-01  0.51100000000E-03 0.  1.
         11    1    4    4    0    0  0.27518526312E-02 -0.49011664625E-01 -0.28275809700E-01  0.56652435935E-01  0.51100000000E-03 0. -1.
</event>
<event>
 8    1  0.1115874E+005  0.1043930E+01  0.7957747E-01            NaN
         13   -1    0    0    0    0  0.00000000000E+00  0.00000000000E+00  0.74505805969E-08  0.10566000000E+00  0.10566000000E+00 0.  1.
     999900   -1    0    0    0    0 -0.00000000000E+00 -0.00000000000E+00 -0.74505805969E-08  0.93827000000E+00  0.93827000000E+00 0.  1.
     999902    2    1    2    0    0  0.29629298538E-02  0.23523316228E-01 -0.14313915364E-02  0.10201776477E+01  0.10199011023E+01 0.  0.
     999903    2    3    3    0    0 -0.10075728725E+00  0.80474048950E-01 -0.17724905526E-01  0.13210853549E+00  0.22591799093E-01 0.  0.
         14    1    1    2    0    0 -0.29629298538E-02 -0.23523316228E-01  0.14313915364E-02  0.23752352334E-01  0.00000000000E+00 0.  1.
     999901    1    3    3    0    0  0.10372021710E+00 -0.56950732722E-01  0.16293513989E-01  0.88806911217E+00  0.88000000000E+00 0.  1.
        -11    1    4    4    0    0 -0.64560295091E-01  0.60402640829E-01 -0.20025649888E-01  0.90652073864E-01  0.51100000000E-03 0. -1.
         11    1    4    4    0    0 -0.36196992160E-01  0.20071408121E-01  0.23007443628E-02  0.41456461631E-01  0.51100000000E-03 0.  1.
</event>
<event>
 8    1  0.1115874E+005  0.1043930E+01  0.7957747E-01            NaN
         13   -1    0    0    0    0  0.00000000000E+00  0.00000000000E+00  0.74505805969E-08  0.10566000000E+00  0.10566000000E+00 0.  1.
     999900   -1    0    0    0    0 -0.00000000000E+00 -0.00000000000E+00 -0.74505805969E-08  0.93827000000E+00  0.93827000000E+00 0. -1.
     999902    2    1    2    0    0 -0.97548623982E-02 -0.21033768219E-01  0.38927259274E-02  0.10204197882E+01  0.10201489176E+01 0.  0.
     999903    2    3    3    0    0 -0.76924361126E-01 -0.69790136973E-01  0.81468309035E-01  0.13311662905E+00  0.17173555267E-01 0.  0.
         14    1    1    2    0    0  0.97548623982E-02  0.21033768219E-01 -0.38927259274E-02  0.23510211846E-01  0.00000000000E+00 0.  1.
     999901    1    3    3    0    0  0.67169498728E-01  0.48756368753E-01 -0.77575583107E-01  0.88730315910E+00  0.88000000000E+00 0. -1.
        -11    1    4    4    0    0 -0.40898765568E-01 -0.35171426634E-01  0.31575650478E-01  0.62506168501E-01  0.51100000000E-03 0. -1.
         11    1    4    4    0    0 -0.36025595558E-01 -0.34618710339E-01  0.49892658557E-01  0.70610460554E-01  0.51100000000E-03 0.  1.
</event>
<event>
 8    1  0.1115874E+005  0.1043930E+01  0.7957747E-01            NaN
         13   -1    0    0    0    0  0.00000000000E+00  0.00000000000E+00  0.74505805969E-08  0.10566000000E+00  0.10566000000E+00 0. -1.
     999900   -1    0    0    0    0 -0.00000000000E+00 -0.00000000000E+00 -0.74505805969E-08  0.93827000000E+00  0.93827000000E+00 0. -1.
     999902    2    1    2    0    0 -0.21848175900E-01  0.52480120730E-02 -0.80360626184E-02  0.10200665819E+01  0.10197874135E+01 0.  0.
     999903    2    3    3    0    0 -0.47035089237E-01 -0.10934712355E+00  0.49477856222E-01  0.13041818137E+00  0.19792693796E-01 0.  0.
         14    1    1    2    0    0  0.21848175900E-01 -0.52480120730E-02  0.80360626184E-02  0.23863418098E-01  0.00000000000E+00 0. -1.
     999901    1    3    3    0    0  0.25186913337E-01  0.11459513562E+00 -0.57513918841E-01  0.88964840053E+00  0.88000000000E+00 0. -1.
        -11    1    4    4    0    0 -0.31863140636E-01 -0.58274935675E-01  0.19213734201E-01  0.69142292138E-01  0.51100000000E-03 0. -1.
         11    1    4    4    0    0 -0.15171948602E-01 -0.51072187871E-01  0.30264122021E-01  0.61275889231E-01  0.51100000000E-03 0.  1.
</event>
<event>
 8    1  0.1115874E+005  0.1043930E+01  0.7957747E-01            NaN
         13   -1    0    0    0    0  0.00000000000E+00  0.00000000000E+00  0.74505805969E-08  0.10566000000E+00  0.10566000000E+00 0.  1.
     999900   -1    0    0    0    0 -0.00000000000E+00 -0.00000000000E+00 -0.74505805969E-08  0.93827000000E+00  0.93827000000E+00 0.  1.
     999902    2    1    2    0    0  0.79026347408E-02 -0.19304927932E-01  0.13075937989E-01  0.10193106573E+01  0.10190132993E+01 0.  0.
     999903    2    3    3    0    0  0.56687836646E-01 -0.11821027674E+00 -0.13045604047E-01  0.13204260377E+00  0.88250254227E-02 0.  0.
         14    1    1    2    0    0 -0.79026347408E-02  0.19304927932E-01 -0.13075937989E-01  0.24619342651E-01  0.00000000000E+00 0. -1.
     999901    1    3    3    0    0 -0.48785201906E-01  0.98905348809E-01  0.26121542036E-01  0.88726805358E+00  0.88000000000E+00 0.  1.
        -11    1    4    4    0    0  0.29275314342E-01 -0.71025795089E-01 -0.78061904644E-02  0.77219850612E-01  0.51100000000E-03 0. -1.
         11    1    4    4    0    0  0.27412522305E-01 -0.47184481652E-01 -0.52394135827E-02  0.54822753155E-01  0.51100000000E-03 0.  1.
</event>
<event>
 8    1  0.1115874E+005  0.1043930E+01  0.7957747E-01            NaN
         13   -1    0    0    0    0  0.00000000000E+00  0.00000000000E+00  0.74505805969E-08  0.10566000000E+00  0.10566000000E+00 0.  1.
     999900   -1    0    0    0    0 -0.00000000000E+00 -0.00000000000E+00 -0.74505805969E-08  0.93827000000E+00  0.93827000000E+00 0.  1.
     999902    2    1    2    0    0  0.75291232536E-02  0.83713488310E-02 -0.22678208151E-01  0.10186106733E+01  0.10182959469E+01 0.  0.
     999903    2    3    3    0    0 -0.83854295687E-01  0.96161997320E-01  0.37378988441E-02  0.12914120340E+00  0.19616469988E-01 0.  0.
         14    1    1    2    0    0 -0.75291232536E-02 -0.83713488310E-02  0.22678208151E-01  0.25319326672E-01  0.00000000000E+00 0.  1.
     999901    1    3    3    0    0  0.91383418941E-01 -0.87790648489E-01 -0.26416106995E-01  0.88946946992E+00  0.88000000000E+00 0.  1.
        -11    1    4    4    0    0 -0.64671502495E-01  0.76750140502E-01  0.10804614212E-01  0.10094547098E+00  0.51100000000E-03 0.  1.
         11    1    4    4    0    0 -0.19182793192E-01  0.19411856818E-01 -0.70667153683E-02  0.28195732423E-01  0.51100000000E-03 0. -1.
</event>
<event>
 8    1  0.1115874E+005  0.1043930E+01  0.7957747E-01            NaN
         13   -1    0    0    0    0  0.00000000000E+00  0.00000000000E+00  0.74505805969E-08  0.10566000000E+00  0.10566000000E+00 0.  1.
     999900   -1    0    0    0    0 -0.00000000000E+00 -0.00000000000E+00 -0.74505805969E-08  0.93827000000E+00  0.93827000000E+00 0. -1.
     999902    2    1    2    0    0 -0.17395098844E-01  0.21513557739E-01 -0.11795139643E-02  0.10162385955E+01  0.10158612450E+01 0.  0.
     999903    2    3    3    0    0 -0.57805676624E-01  0.12929851681E-01 -0.11218867517E+00  0.12830293979E+00  0.19148582383E-01 0.  0.
         14    1    1    2    0    0  0.17395098844E-01 -0.21513557739E-01  0.11795139643E-02  0.27691404507E-01  0.00000000000E+00 0.  1.
     999901    1    3    3    0    0  0.40410577780E-01  0.85837060583E-02  0.11100916120E+00  0.88793565571E+00  0.88000000000E+00 0.  1.
        -11    1    4    4    0    0 -0.31431360989E-01 -0.13141308218E-03 -0.44427195400E-01  0.54424117220E-01  0.51100000000E-03 0. -1.
         11    1    4    4    0    0 -0.26374315635E-01  0.13061264763E-01 -0.67761479767E-01  0.73878822565E-01  0.51100000000E-03 0.  1.
</event>
<event>
 8    1  0.1115874E+005  0.1043930E+01  0.7957747E-01            NaN
         13   -1    0    0    0    0  0.00000000000E+00  0.00000000000E+00  0.74505805969E-08  0.10566000000E+00  0.10566000000E+00 0.  1.
     999900   -1    0    0    0    0 -0.00000000000E+00 -0.00000000000E+00 -0.74505805969E-08  0.93827000000E+00  0.93827000000E+00 0. -1.
     999902    2    1    2    0    0 -0.10615230155E-01 -0.16434755154E-01 -0.12819167430E-01  0.10205395032E+01  0.10202714159E+01 0.  0.
     999903    2    3    3    0    0  0.29389315655E-01  0.76955941640E-01  0.95871914962E-01  0.12805088290E+00  0.20485499835E-01 0.  0.
         14    1    1    2    0    0  0.10615230155E-01  0.16434755154E-01  0.12819167430E-01  0.23390496827E-01  0.00000000000E+00 0. -1.
     999901    1    3    3    0    0 -0.40004545810E-01 -0.93390696794E-01 -0.10869108239E+00  0.89248862028E+00  0.88000000000E+00 0. -1.
        -11    1    4    4    0    0  0.15352121404E-01  0.45241543976E-01  0.70121450959E-01  0.84851422725E-01  0.51100000000E-03 0. -1.
         11    1    4    4    0    0  0.14037194251E-01  0.31714397664E-01  0.25750464003E-01  0.43199460171E-01  0.51100000000E-03 0.  1.
</event>
<event>
 8    1  0.1115874E+005  0.1043930E+01  0.7957747E-01            NaN
         13   -1    0    0    0    0  0.00000000000E+00  0.00000000000E+00  0.74505805969E-08  0.10566000000E+00  0.10566000000E+00 0.  1.
     999900   -1    0    0    0    0 -0.00000000000E+00 -0.00000000000E+00 -0.74505805969E-08  0.93827000000E+00  0.93827000000E+00 0. -1.
     999902    2    1    2    0    0  0.12787346052E-01  0.63755816420E-02 -0.19207824288E-01  0.10199903932E+01  0.10197094181E+01 0.  0.
     999903    2    3    3    0    0 -0.52745366649E-03 -0.12289796813E+00 -0.38192352951E-01  0.13024360511E+00  0.20013797005E-01 0.  0.
         14    1    1    2    0    0 -0.12787346052E-01 -0.63755816420E-02  0.19207824288E-01  0.23939606810E-01  0.00000000000E+00 0.  1.
     999901    1    3    3    0    0  0.13314799718E-01  0.12927354978E+00  0.18984528663E-01  0.88974678808E+00  0.88000000000E+00 0. -1.
        -11    1    4    4    0    0 -0.49329006781E-03 -0.70775047655E-01 -0.11586561683E-01  0.71720709968E-01  0.51100000000E-03 0.  1.
         11    1    4    4    0    0 -0.34163598684E-04 -0.52122920479E-01 -0.26605791268E-01  0.58522895147E-01  0.51100000000E-03 0. -1.
</event>
<event>
 8    1  0.1115874E+005  0.1043930E+01  0.7957747E-01            NaN
         13   -1    0    0    0    0  0.00000000000E+00  0.00000000000E+00  0.74505805969E-08  0.10566000000E+00  0.10566000000E+00 0.  1.
     999900   -1    0    0    0    0 -0.00000000000E+00 -0.00000000000E+00 -0.74505805969E-08  0.93827000000E+00  0.93827000000E+00 0.  1.
     999902    2    1    2    0    0  0.52771807788E-02  0.22937619028E-01 -0.50336570514E-02  0.10198609180E+01  0.10195768590E+01 0.  0.
     999903    2    3    3    0    0  0.11117766423E+00  0.13210559167E-01 -0.65870232388E-01  0.13137309201E+00  0.19621668919E-01 0.  0.
         14    1    1    2    0    0 -0.52771807788E-02 -0.22937619028E-01  0.50336570514E-02  0.24069081971E-01  0.00000000000E+00 0.  1.
     999901    1    3    3    0    0 -0.10590048345E+00  0.97270598607E-02  0.60836575336E-01  0.88848782602E+00  0.88000000000E+00 0. -1.
        -11    1    4    4    0    0  0.23633443071E-01  0.11034192676E-01 -0.14553210422E-01  0.29872229478E-01  0.51100000000E-03 0.  1.
         11    1    4    4    0    0  0.87544221161E-01  0.21763664914E-02 -0.51317021966E-01  0.10150086253E+00  0.51100000000E-03 0. -1.
</event>
<event>
 8    1  0.1115874E+005  0.1043930E+01  0.7957747E-01            NaN
         13   -1    0    0    0    0  0.00000000000E+00  0.00000000000E+00  0.74505805969E-08  0.10566000000E+00  0.10566000000E+00 0. -1.
     999900   -1    0    0    0    0 -0.00000000000E+00 -0.00000000000E+00 -0.74505805969E-08  0.93827000000E+00  0.93827000000E+00 0. -1.
     999902    2    1    2    0    0 -0.22889123716E-01  0.36634463265E-02  0.68866398737E-02  0.10197482169E+01  0.10194614595E+01 0.  0.
     999903    2    3    3    0    0 -0.26685340127E-01  0.81121997727E-01  0.98136786136E-01  0.13163739748E+00  0.20116901569E-01 0.  0.
         14    1    1    2    0    0  0.22889123716E-01 -0.36634463265E-02 -0.68866398737E-02  0.24181783065E-01  0.00000000000E+00 0.  1.
     999901    1    3    3    0    0  0.37962164114E-02 -0.77458551400E-01 -0.91250146262E-01  0.88811081946E+00  0.88000000000E+00 0. -1.
        -11    1    4    4    0    0 -0.87709170045E-02  0.88063600766E-02  0.84306740717E-02  0.15027253548E-01  0.51100000000E-03 0. -1.
         11    1    4    4    0    0 -0.17914423122E-01  0.72315637650E-01  0.89706112064E-01  0.11661014393E+00  0.51100000000E-03 0.  1.
</event>
<event>
 8    1  0.1115874E+005  0.1043930E+01  0.7957747E-01            NaN
         13   -1    0    0    0    0  0.00000000000E+00  0.00000000000E+00  0.74505805969E-08  0.10566000000E+00  0.10566000000E+00 0. -1.
     999900   -1    0    0    0    0 -0.00000000000E+00 -0.00000000000E+00 -0.74505805969E-08  0.93827000000E+00  0.93827000000E+00 0.  1.
     999902    2    1    2    0    0  0.19296703989E-01 -0.72903702328E-02 -0.11554495905E-01  0.10202864246E+01  0.10200124360E+01 0.  0.
     999903    2    3    3    0    0 -0.10730783515E+00 -0.53705510835E-01  0.41377866820E-01  0.12844287909E+00  0.19651767057E-01 0.  0.
         14    1    1    2    0    0 -0.19296703989E-01  0.72903702328E-02  0.11554495905E-01  0.23643575419E-01  0.00000000000E+00 0. -1.
     999901    1    3    3    0    0  0.12660453914E+00  0.46415140602E-01 -0.52932362726E-01  0.89184354549E+00  0.88000000000E+00 0.  1.
        -11    1    4    4    0    0 -0.77626348298E-01 -0.45764309542E-01  0.36953431659E-01  0.97396299777E-01  0.51100000000E-03 0. -1.
         11    1    4    4    0    0 -0.29681486850E-01 -0.79412012934E-02  0.44244351610E-02  0.31046579314E-01  0.51100000000E-03 0.  1.
</event>
<event>
 8    1  0.1115874E+005  0.1043930E+01  0.7957747E-01            NaN
         13   -1    0    0    0    0  0.00000000000E+00  0.00000000000E+00  0.74505805969E-08  0.10566000000E+00  0.10566000000E+00 0.  1.
     999900   -1    0    0    0    0 -0.00000000000E+00 -0.00000000000E+00 -0.74505805969E-08  0.93827000000E+00  0.93827000000E+00 0.  1.
     999902    2    1    2    0    0  0.20001700242E-01 -0.11655124692E-01  0.75424272619E-02  0.10195825535E+01  0.10192918057E+01 0.  0.
     999903    2    3    3    0    0  0.41027017265E-01  0.11195563941E+00  0.47682178926E-01  0.12978882195E+00  0.18821975874E-01 0.  0.
         14    1    1    2    0    0 -0.20001700242E-01  0.11655124692E-01 -0.75424272619E-02  0.24347446543E-01  0.00000000000E+00 0. -1.
     999901    1    3    3    0    0 -0.21025317023E-01 -0.12361076410E+00 -0.40139751664E-01  0.88979373150E+00  0.88000000000E+00 0.  1.
        -11    1    4    4    0    0  0.23497652359E-01  0.42718491354E-01  0.13407289454E-01  0.50567041652E-01  0.51100000000E-03 0.  1.
         11    1    4    4    0    0  0.17529364906E-01  0.69237148056E-01  0.34274889472E-01  0.79221780302E-01  0.51100000000E-03 0. -1.
</event>
<event>
 8    1  0.1115874E+005  0.1043930E+01  0.7957747E-01            NaN
         13   -1    0    0    0    0  0.00000000000E+00  0.00000000000E+00  0.74505805969E-08  0.10566000000E+00  0.10566000000E+00 0. -1.
     999900   -1    0    0    0    0 -0.00000000000E+00 -0.00000000000E+00 -0.74505805969E-08  0.93827000000E+00  0.93827000000E+00 0. -1.
     999902    2    1    2    0    0  0.10625598004E-01  0.14776073934E-01 -0.15068966143E-01  0.10203014276E+01  0.10200277906E+01 0.  0.
     999903    2    3    3    0    0  0.75319995212E-01 -0.55234157675E-01 -0.91917818775E-01  0.13182377243E+00  0.14307610418E-01 0.  0.
         14    1    1    2    0    0 -0.10625598004E-01 -0.14776073934E-01  0.15068966143E-01  0.23628572417E-01  0.00000000000E+00 0. -1.
     999901    1    3    3    0    0 -0.64694397208E-01  0.70010231609E-01  0.76848852632E-01  0.88847765516E+00  0.88000000000E+00 0. -1.
        -11    1    4    4    0    0  0.23365634434E-01 -0.25248265003E-01 -0.30643747439E-01  0.46073073875E-01  0.51100000000E-03 0. -1.
         11    1    4    4    0    0  0.51954360778E-01 -0.29985892672E-01 -0.61274071336E-01  0.85750698553E-01  0.51100000000E-03 0.  1.
</event>
<event>
 8    1  0.1115874E+005  0.1043930E+01  0.7957747E-01            NaN
         13   -1    0    0    0    0  0.00000000000E+00  0.00000000000E+00  0.74505805969E-08  0.10566000000E+00  0.10566000000E+00 0. -1.
     999900   -1    0    0    0    0 -0.00000000000E+00 -0.00000000000E+00 -0.74505805969E-08  0.93827000000E+00  0.93827000000E+00 0.  1.
     999902    2    1    2    0    0 -0.34264011446E-02 -0.75804015444E-02 -0.22126846108E-01  0.10202910484E+01  0.10200171682E+01 0.  0.
     999903    2    3    3    0    0 -0.57321981822E-01 -0.32449323899E-01  0.10864712921E+00  0.12864928767E+00  0.20190896733E-01 0.  0.
         14    1    1    2    0    0  0.34264011446E-02  0.75804015444E-02  0.22126846108E-01  0.23638951565E-01  0.00000000000E+00 0. -1.
     999901    1    3    3    0    0  0.53895580678E-01  0.24868922355E-01 -0.13077397532E+00  0.89164176076E+00  0.88000000000E+00 0.  1.
        -11    1    4    4    0    0 -0.49123189692E-01 -0.22603431482E-01  0.98218778908E-01  0.11212132951E+00  0.51100000000E-03 0.  1.
         11    1    4    4    0    0 -0.81987921305E-02 -0.98458924169E-02  0.10428350305E-01  0.16527958161E-01  0.51100000000E-03 0. -1.
</event>
<event>
 8    1  0.1115874E+005  0.1043930E+01  0.7957747E-01            NaN
         13   -1    0    0    0    0  0.00000000000E+00  0.00000000000E+00  0.74505805969E-08  0.10566000000E+00  0.10566000000E+00 0. -1.
     999900   -1    0    0    0    0 -0.00000000000E+00 -0.00000000000E+00 -0.74505805969E-08  0.93827000000E+00  0.93827000000E+00 0.  1.
     999902    2    1    2    0    0 -0.74289201396E-03 -0.19012263601E-01  0.11871568678E-01  0.10215034042E+01  0.10212571922E+01 0.  0.
     999903    2    3    3    0    0 -0.69785639628E-01  0.10433659460E+00 -0.24532239709E-01  0.12947925707E+00  0.20171434169E-01 0.  0.
         14    1    1    2    0    0  0.74289201396E-03  0.19012263601E-01 -0.11871568678E-01  0.22426595789E-01  0.00000000000E+00 0.  1.
     999901    1    3    3    0    0  0.69042747614E-01 -0.12334885820E+00  0.36403808387E-01  0.89202414714E+00  0.88000000000E+00 0. -1.
        -11    1    4    4    0    0 -0.65585636252E-01  0.10265455970E+00 -0.20777100542E-01  0.12357743863E+00  0.51100000000E-03 0. -1.
         11    1    4    4    0    0 -0.42000033757E-02  0.16820348907E-02 -0.37551391670E-02  0.59018184395E-02  0.51100000000E-03 0.  1.
</event>
<event>
 8    1  0.1115874E+005  0.1043930E+01  0.7957747E-01            NaN
         13   -1    0    0    0    0  0.00000000000E+00  0.00000000000E+00  0.74505805969E-08  0.10566000000E+00  0.10566000000E+00 0. -1.
     999900   -1    0    0    0    0 -0.00000000000E+00 -0.00000000000E+00 -0.74505805969E-08  0.93827000000E+00  0.93827000000E+00 0.  1.
     999902    2    1    2    0    0 -0.11507906490E-01 -0.18681270737E-01  0.78583002571E-02  0.10206238920E+01  0.10203577579E+01 0.  0.
     999903    2    3    3    0    0 -0.95458543865E-01  0.22647512705E-02 -0.87757442878E-01  0.13122588451E+00  0.20035001619E-01 0.  0.
         14    1    1    2    0    0  0.11507906490E-01  0.18681270737E-01 -0.78583002571E-02  0.23306108021E-01  0.00000000000E+00 0.  1.
     999901    1    3    3    0    0  0.83950637375E-01 -0.20946022008E-01  0.95615743136E-01  0.88939800747E+00  0.88000000000E+00 0. -1.
        -11    1    4    4    0    0 -0.68369324408E-01 -0.35622609666E-02 -0.71962302675E-01  0.99327178307E-01  0.51100000000E-03 0.  1.
         11    1    4    4    0    0 -0.27089219457E-01  0.58270122371E-02 -0.15795140204E-01  0.31898706204E-01  0.51100000000E-03 0. -1.
</event>
<event>
 8    1  0.1115874E+005  0.1043930E+01  0.7957747E-01            NaN
         13   -1    0    0    0    0  0.00000000000E+00  0.00000000000E+00  0.74505805969E-08  0.10566000000E+00  0.10566000000E+00 0. -1.
     999900   -1    0    0    0    0 -0.00000000000E+00 -0.00000000000E+00 -0.74505805969E-08  0.93827000000E+00  0.93827000000E+00 0.  1.
     999902    2    1    2    0    0  0.78265540789E-02  0.21666619561E-01 -0.14115451640E-01  0.10169125366E+01  0.10165535715E+01 0.  0.
     999903    2    3    3    0    0  0.72491802847E-01 -0.93945437884E-01  0.35458967795E-01  0.12561832859E+00  0.21019498120E-01 0.  0.
         14    1    1    2    0    0 -0.78265540789E-02 -0.21666619561E-01  0.14115451640E-01  0.27017463370E-01  0.00000000000E+00 0. -1.
     999901    1    3    3    0    0 -0.64665248768E-01  0.11561205745E+00 -0.49574419435E-01  0.89129420804E+00  0.88000000000E+00 0. -1.
        -11    1    4    4    0    0  0.50880873594E-01 -0.76674003886E-01  0.33311797131E-01  0.97865740270E-01  0.51100000000E-03 0. -1.
         11    1    4    4    0    0  0.21610929253E-01 -0.17271433998E-01  0.21471706646E-02  0.27752588319E-01  0.51100000000E-03 0.  1.
</event>
<event>
 8    1  0.1115874E+005  0.1043930E+01  0.7957747E-01            NaN
         13   -1    0    0    0    0  0.00000000000E+00  0.00000000000E+00  0.74505805969E-08  0.10566000000E+00  0.10566000000E+00 0. -1.
     999900   -1    0    0    0    0 -0.00000000000E+00 -0.00000000000E+00 -0.74505805969E-08  0.93827000000E+00  0.93827000000E+00 0.  1.
     999902    2    1    2    0    0 -0.20837912158E-01  0.94857500944E-02 -0.57200901552E-02  0.10203309011E+01  0.10200579544E+01 0.  0.
     999903    2    3    3    0    0 -0.12940364735E+00  0.85194737027E-02  0.22950565863E-01  0.13319536519E+00  0.19909581957E-01 0.  0.
         14    1    1    2    0    0  0.20837912158E-01 -0.94857500944E-02  0.57200901552E-02  0.23599098909E-01  0.00000000000E+00 0. -1.
     999901    1    3    3    0    0  0.10856573519E+00  0.96627639172E-03 -0.28670656018E-01  0.88713553590E+00  0.88000000000E+00 0. -1.
        -11    1    4    4    0    0 -0.91291887775E-01  0.14924130624E-01  0.14532506826E-01  0.93639699509E-01  0.51100000000E-03 0. -1.
         11    1    4    4    0    0 -0.38111759576E-01 -0.64046569208E-02  0.84180590368E-02  0.39555665678E-01  0.51100000000E-03 0.  1.
</event>
<event>
 8    1  0.1115874E+005  0.1043930E+01  0.7957747E-01            NaN
         13   -1    0    0    0    0  0.00000000000E+00  0.00000000000E+00  0.74505805969E-08  0.10566000000E+00  0.10566000000E+00 0. -1.
     999900   -1    0    0    0    0 -0.00000000000E+00 -0.00000000000E+00 -0.74505805969E-08  0.93827000000E+00  0.93827000000E+00 0. -1.
     999902    2    1    2    0    0  0.10222726546E-02 -0.10068843713E-01  0.21483021294E-01  0.10201824347E+01  0.10199060021E+01 0.  0.
     999903    2    3    3    0    0 -0.86505435441E-02  0.69094974546E-01 -0.10511292190E+00  0.12755316878E+00  0.19290855432E-01 0.  0.
         14    1    1    2    0    0 -0.10222726546E-02  0.10068843713E-01 -0.21483021294E-01  0.23747565328E-01  0.00000000000E+00 0.  1.
     999901    1    3    3    0    0  0.96728161987E-02 -0.79163818259E-01  0.12659594320E+00  0.89262926589E+00  0.88000000000E+00 0.  1.
        -11    1    4    4    0    0  0.16391495366E-02  0.34835242600E-01 -0.65281525760E-01  0.74014320674E-01  0.51100000000E-03 0. -1.
         11    1    4    4    0    0 -0.10289693081E-01  0.34259731946E-01 -0.39831396144E-01  0.53538848105E-01  0.51100000000E-03 0.  1.
</event>
<event>
 8    1  0.1115874E+005  0.1043930E+01  0.7957747E-01            NaN
         13   -1    0    0    0    0  0.00000000000E+00  0.00000000000E+00  0.74505805969E-08  0.10566000000E+00  0.10566000000E+00 0.  1.
     999900   -1    0    0    0    0 -0.00000000000E+00 -0.00000000000E+00 -0.74505805969E-08  0.93827000000E+00  0.93827000000E+00 0. -1.
     999902    2    1    2    0    0  0.12952825412E-01  0.11700899485E-01  0.75625153111E-02  0.10249068990E+01  0.10247303417E+01 0.  0.
     999903    2    3    3    0    0  0.82584729860E-01  0.23744195395E-01  0.10429857392E+00  0.13679006649E+00  0.21196824048E-01 0.  0.
         14    1    1    2    0    0 -0.12952825412E-01 -0.11700899485E-01 -0.75625153111E-02  0.19023101029E-01  0.00000000000E+00 0. -1.
     999901    1    3    3    0    0 -0.69631904448E-01 -0.12043295910E-01 -0.96736058605E-01  0.88811683248E+00  0.88000000000E+00 0. -1.
        -11    1    4    4    0    0  0.41014162192E-01  0.11888287626E-01  0.68208843659E-01  0.80474843009E-01  0.51100000000E-03 0. -1.
         11    1    4    4    0    0  0.41570567668E-01  0.11855907769E-01  0.36089730257E-01  0.56315223486E-01  0.51100000000E-03 0.  1.
</event>
<event>
 8    1  0.1115874E+005  0.1043930E+01  0.7957747E-01            NaN
         13   -1    0    0    0    0  0.00000000000E+00  0.00000000000E+00  0.74505805969E-08  0.10566000000E+00  0.10566000000E+00 0. -1.
     999900   -1    0    0    0    0 -0.00000000000E+00 -0.00000000000E+00 -0.74505805969E-08  0.93827000000E+00  0.93827000000E+00 0. -1.
     999902    2    1    2    0    0 -0.12412283005E-01  0.19440918790E-01  0.14922624816E-02  0.10208163473E+01  0.10205546404E+01 0.  0.
     999903    2    3    3    0    0 -0.46302241659E-01 -0.90269333858E-01  0.78825403554E-01  0.12999353467E+00  0.19809709555E-01 0.  0.
         14    1    1    2    0    0  0.12412283005E-01 -0.19440918790E-01 -0.14922624816E-02  0.23113652678E-01  0.00000000000E+00 0. -1.
     999901    1    3    3    0    0  0.33889958653E-01  0.10971025265E+00 -0.77333141072E-01  0.89082281265E+00  0.88000000000E+00 0.  1.
        -11    1    4    4    0    0 -0.13752904291E-01 -0.11311314516E-01  0.16307903160E-01  0.24151543201E-01  0.51100000000E-03 0.  1.
         11    1    4    4    0    0 -0.32549337368E-01 -0.78958019342E-01  0.62517500394E-01  0.10584199147E+00  0.51100000000E-03 0. -1.
</event>
<event>
 7    1  0.1115874E+005  0.1043930E+01  0.7957747E-01            NaN
         13   -1    0    0    0    0  0.00000000000E+00  0.00000000000E+00  0.74505805969E-08  0.10566000000E+00  0.10566000000E+00 0. -1.
     999900   -1    0    0    0    0 -0.00000000000E+00 -0.00000000000E+00 -0.74505805969E-08  0.93827000000E+00  0.93827000000E+00 0.  1.
     999903    2    1    2    0    0 -0.92158129078E-01  0.30872852525E-01 -0.44365436576E-01  0.10877749380E+00  0.20444985142E-01 0.  0.
         14    1    1    2    0    0  0.59036939521E-02  0.45353783983E-01 -0.65172345575E-02  0.46198416316E-01  0.00000000000E+00 0.  1.
     999901    1    1    2    0    0  0.86254435126E-01 -0.76226636508E-01  0.50882671134E-01  0.88895408988E+00  0.88000000000E+00 0. -1.
        -11    1    3    3    0    0 -0.25977481024E-01 -0.41644143909E-03 -0.92323837783E-02  0.27577182144E-01  0.51100000000E-03 0.  1.
         11    1    3    3    0    0 -0.66180648055E-01  0.31289293965E-01 -0.35133052798E-01  0.81200311660E-01  0.51100000000E-03 0. -1.
</event>
<event>
 8    1  0.1115874E+005  0.1043930E+01  0.7957747E-01            NaN
         13   -1    0    0    0    0  0.00000000000E+00  0.00000000000E+00  0.74505805969E-08  0.10566000000E+00  0.10566000000E+00 0.  1.
     999900   -1    0    0    0    0 -0.00000000000E+00 -0.00000000000E+00 -0.74505805969E-08  0.93827000000E+00  0.93827000000E+00 0.  1.
     999902    2    1    2    0    0  0.21766582770E-01  0.69267716630E-02  0.92608150118E-02  0.10192819375E+01  0.10189838768E+01 0.  0.
     999903    2    3    3    0    0  0.49561900713E-01  0.91798357709E-01  0.77737158679E-01  0.13211522516E+00  0.22979260179E-01 0.  0.
         14    1    1    2    0    0 -0.21766582770E-01 -0.69267716630E-02 -0.92608150118E-02  0.24648062517E-01  0.00000000000E+00 0. -1.
     999901    1    3    3    0    0 -0.27795317943E-01 -0.84871586046E-01 -0.68476343667E-01  0.88716671233E+00  0.88000000000E+00 0.  1.
        -11    1    4    4    0    0  0.15286488085E-01  0.42324604211E-01  0.22043341415E-01  0.50112063032E-01  0.51100000000E-03 0.  1.
         11    1    4    4    0    0  0.34275412629E-01  0.49473753498E-01  0.55693817264E-01  0.82003162125E-01  0.51100000000E-03 0. -1.
</event>
<event>
 8    1  0.1115874E+005  0.1043930E+01  0.7957747E-01            NaN
         13   -1    0    0    0    0  0.00000000000E+00  0.00000000000E+00  0.74505805969E-08  0.10566000000E+00  0.10566000000E+00 0. -1.
     999900   -1    0    0    0    0 -0.00000000000E+00 -0.00000000000E+00 -0.74505805969E-08  0.93827000000E+00  0.93827000000E+00 0. -1.
     999902    2    1    2    0    0  0.22855111197E-02 -0.24806291274E-01  0.38577630695E-03  0.10190156573E+01  0.10187110412E+01 0.  0.
     999903    2    3    3    0    0 -0.26754765624E-01 -0.96385729055E-01  0.83409274204E-01  0.13173900667E+00  0.19799813271E-01 0.  0.
         14    1    1    2    0    0 -0.22855111197E-02  0.24806291274E-01 -0.38577630695E-03  0.24914342681E-01  0.00000000000E+00 0. -1.
     999901    1    3    3    0    0  0.29040276744E-01  0.71579437781E-01 -0.83023497897E-01  0.88727665065E+00  0.88000000000E+00 0. -1.
        -11    1    4    4    0    0 -0.20861310717E-01 -0.77282749256E-01  0.76090614234E-01  0.11044392384E+00  0.51100000000E-03 0. -1.
         11    1    4    4    0    0 -0.58934549074E-02 -0.19102979799E-01  0.73186599701E-02  0.21295082829E-01  0.51100000000E-03 0.  1.
</event>
<event>
 8    1  0.1115874E+005  0.1043930E+01  0.7957747E-01            NaN
         13   -1    0    0    0    0  0.00000000000E+00  0.00000000000E+00  0.74505805969E-08  0.10566000000E+00  0.10566000000E+00 0. -1.
     999900   -1    0    0    0    0 -0.00000000000E+00 -0.00000000000E+00 -0.74505805969E-08  0.93827000000E+00  0.93827000000E+00 0.  1.
     999902    2    1    2    0    0  0.13123629609E-02  0.21565580891E-01 -0.96988527164E-02  0.10202474258E+01  0.10199725220E+01 0.  0.
     999903    2    3    3    0    0 -0.73098938365E-01  0.10845026321E+00 -0.11627921909E-01  0.13284125552E+00  0.20166214780E-01 0.  0.
         14    1    1    2    0    0 -0.13123629609E-02 -0.21565580891E-01  0.96988527164E-02  0.23682574178E-01  0.00000000000E+00 0. -1.
     999901    1    3    3    0    0  0.74411301326E-01 -0.86884682322E-01  0.19290691928E-02  0.88740617030E+00  0.88000000000E+00 0.  1.
        -11    1    4    4    0    0 -0.55559172814E-01  0.73085383285E-01 -0.15747900818E-01  0.93148013585E-01  0.51100000000E-03 0. -1.
         11    1    4    4    0    0 -0.17539765551E-01  0.35364879928E-01  0.41199789089E-02  0.39693241932E-01  0.51100000000E-03 0.  1.
</event>
<event>
 8    1  0.1115874E+005  0.1043930E+01  0.7957747E-01            NaN
         13   -1    0    0    0    0  0.00000000000E+00  0.00000000000E+00  0.74505805969E-08  0.10566000000E+00  0.10566000000E+00 0. -1.
     999900   -1    0    0    0    0 -0.00000000000E+00 -0.00000000000E+00 -0.74505805969E-08  0.93827000000E+00  0.93827000000E+00 0.  1.
     999902    2    1    2    0    0 -0.44721561541E-02  0.12084224788E-01 -0.19529781933E-01  0.10205325418E+01  0.10202642931E+01 0.  0.
     999903    2    3    3    0    0  0.81483319821E-01 -0.92248522963E-01 -0.36922731345E-01  0.13004044141E+00  0.19947604241E-01 0.  0.
         14    1    1    2    0    0  0.44721561541E-02 -0.12084224788E-01  0.19529781933E-01  0.23397458233E-01  0.00000000000E+00 0. -1.
     999901    1    3    3    0    0 -0.85955475975E-01  0.10433274775E+00  0.17392949412E-01  0.89049210035E+00  0.88000000000E+00 0.  1.
        -11    1    4    4    0    0  0.22790566717E-01 -0.34053297186E-01 -0.20296742720E-01  0.45730251110E-01  0.51100000000E-03 0.  1.
         11    1    4    4    0    0  0.58692753105E-01 -0.58195225777E-01 -0.16625988625E-01  0.84310190304E-01  0.51100000000E-03 0. -1.
</event>
<event>
 7    1  0.1115874E+005  0.1043930E+01  0.7957747E-01            NaN
         13   -1    0    0    0    0  0.00000000000E+00  0.00000000000E+00  0.74505805969E-08  0.10566000000E+00  0.10566000000E+00 0. -1.
     999900   -1    0    0    0    0 -0.00000000000E+00 -0.00000000000E+00 -0.74505805969E-08  0.93827000000E+00  0.93827000000E+00 0.  1.
     999902    2    1    2    0    0 -0.12602482472E-01  0.16077304321E-01 -0.12907588597E-01  0.10197658091E+01  0.10194794737E+01 0.  0.
         14    1    1    2    0    0  0.12602482472E-01 -0.16077304321E-01  0.12907588597E-01  0.24164190905E-01  0.00000000000E+00 0. -1.
     999901    1    3    3    0    0 -0.24646712451E-01 -0.79327869523E-01  0.62262037332E-01  0.88610210056E+00  0.88000000000E+00 0. -1.
        -11    1    3    3    0    0  0.33428775411E-01  0.66699998325E-01 -0.47912415902E-01  0.88669236608E-01  0.51100000000E-03 0.  1.
         11    1    3    3    0    0 -0.21384545432E-01  0.28705175519E-01 -0.27257210027E-01  0.44994471931E-01  0.51100000000E-03 0. -1.
</event>
<event>
 8    1  0.1115874E+005  0.1043930E+01  0.7957747E-01            NaN
         13   -1    0    0    0    0  0.00000000000E+00  0.00000000000E+00  0.74505805969E-08  0.10566000000E+00  0.10566000000E+00 0. -1.
     999900   -1    0    0    0    0 -0.00000000000E+00 -0.00000000000E+00 -0.74505805969E-08  0.93827000000E+00  0.93827000000E+00 0.  1.
     999902    2    1    2    0    0  0.23716559201E-01  0.22265045361E-02 -0.51390753765E-02  0.10195611141E+01  0.10192698479E+01 0.  0.
     999903    2    3    3    0    0  0.34218568779E-01 -0.45474210704E-01 -0.11647641841E+00  0.13120214705E+00  0.20209726751E-01 0.  0.
         14    1    1    2    0    0 -0.23716559201E-01 -0.22265045361E-02  0.51390753765E-02  0.24368885869E-01  0.00000000000E+00 0. -1.
     999901    1    3    3    0    0 -0.10502009578E-01  0.47700715240E-01  0.11133734304E+00  0.88835896708E+00  0.88000000000E+00 0. -1.
        -11    1    4    4    0    0  0.23949743103E-01 -0.19379994906E-01 -0.75508741503E-01  0.81553697413E-01  0.51100000000E-03 0. -1.
         11    1    4    4    0    0  0.10268825676E-01 -0.26094215797E-01 -0.40967676911E-01  0.49648449637E-01  0.51100000000E-03 0.  1.
</event>
<event>
 8    1  0.1115874E+005  0.1043930E+01  0.7957747E-01            NaN
         13   -1    0    0    0    0  0.00000000000E+00  0.00000000000E+00  0.74505805969E-08  0.10566000000E+00  0.10566000000E+00 0.  1.
     999900   -1    0    0    0    0 -0.00000000000E+00 -0.00000000000E+00 -0.74505805969E-08  0.93827000000E+00  0.93827000000E+00 0. -1.
     999902    2    1    2    0    0 -0.25382128109E-02 -0.11258981725E-01  0.20024450900E-01  0.10208175396E+01  0.10205558599E+01 0.  0.
     999903    2    3    3    0    0  0.11133954108E+00 -0.63176985448E-01 -0.18643271377E-01  0.13112162820E+00  0.21388897025E-01 0.  0.
         14    1    1    2    0    0  0.25382128109E-02  0.11258981725E-01 -0.20024450900E-01  0.23112460440E-01  0.00000000000E+00 0. -1.
     999901    1    3    3    0    0 -0.11387775389E+00  0.51918003723E-01  0.38667722276E-01  0.88969591136E+00  0.88000000000E+00 0. -1.
        -11    1    4    4    0    0  0.70182469071E-01 -0.41037916047E-01 -0.22116830351E-01  0.84256185673E-01  0.51100000000E-03 0.  1.
         11    1    4    4    0    0  0.41157072011E-01 -0.22139069401E-01  0.34735589742E-02  0.46865442528E-01  0.51100000000E-03 0. -1.
</event>
<event>
 8    1  0.1115874E+005  0.1043930E+01  0.7957747E-01            NaN
         13   -1    0    0    0    0  0.00000000000E+00  0.00000000000E+00  0.74505805969E-08  0.10566000000E+00  0.10566000000E+00 0. -1.
     999900   -1    0    0    0    0 -0.00000000000E+00 -0.00000000000E+00 -0.74505805969E-08  0.93827000000E+00  0.93827000000E+00 0.  1.
     999902    2    1    2    0    0  0.12052085416E-01  0.19547988316E-01  0.27662477741E-02  0.10207993118E+01  0.10205372145E+01 0.  0.
     999903    2    3    3    0    0 -0.59983158746E-01  0.89934703215E-01  0.73419188003E-01  0.13224137671E+00  0.20277435051E-01 0.  0.
         14    1    1    2    0    0 -0.12052085416E-01 -0.19547988316E-01 -0.27662477741E-02  0.23130688205E-01  0.00000000000E+00 0. -1.
     999901    1    3    3    0    0  0.72035244162E-01 -0.70386714898E-01 -0.70652940229E-01  0.88855793508E+00  0.88000000000E+00 0.  1.
        -11    1    4    4    0    0 -0.40123042473E-01  0.62551878729E-01  0.38792205688E-01  0.83831333122E-01  0.51100000000E-03 0. -1.
         11    1    4    4    0    0 -0.19860116273E-01  0.27382824486E-01  0.34626982315E-01  0.48410043591E-01  0.51100000000E-03 0.  1.
</event>
<event>
 8    1  0.1115874E+005  0.1043930E+01  0.7957747E-01            NaN
         13   -1    0    0    0    0  0.00000000000E+00  0.00000000000E+00  0.74505805969E-08  0.10566000000E+00  0.10566000000E+00 0. -1.
     999900   -1    0    0    0    0 -0.00000000000E+00 -0.00000000000E+00 -0.74505805969E-08  0.93827000000E+00  0.93827000000E+00 0.  1.
     999902    2    1    2    0    0 -0.23270224790E-01  0.76578787343E-03  0.24031390381E-02  0.10205234866E+01  0.10202550278E+01 0.  0.
     999903    2    3    3    0    0 -0.55777550223E-01 -0.98655636798E-01 -0.64388342317E-01  0.13181518356E+00  0.19629422045E-01 0.  0.
         14    1    1    2    0    0  0.23270224790E-01 -0.76578787343E-03 -0.24031390381E-02  0.23406513412E-01  0.00000000000E+00 0. -1.
     999901    1    3    3    0    0  0.32507325432E-01  0.99421424671E-01  0.66791481355E-01  0.88870830303E+00  0.88000000000E+00 0. -1.
        -11    1    4    4    0    0 -0.20031499050E-01 -0.53427315216E-01 -0.36838957174E-01  0.67919870819E-01  0.51100000000E-03 0.  1.
         11    1    4    4    0    0 -0.35746051172E-01 -0.45228321581E-01 -0.27549385143E-01  0.63895312741E-01  0.51100000000E-03 0. -1.
</event>
<event>
 8    1  0.1115874E+005  0.1043930E+01  0.7957747E-01            NaN
         13   -1    0    0    0    0  0.00000000000E+00  0.00000000000E+00  0.74505805969E-08  0.10566000000E+00  0.10566000000E+00 0.  1.
     999900   -1    0    0    0    0 -0.00000000000E+00 -0.00000000000E+00 -0.74505805969E-08  0.93827000000E+00  0.93827000000E+00 0. -1.
     999902    2    1    2    0    0 -0.15293299124E-01 -0.13536936424E-01 -0.11722083540E-01  0.10203813081E+01  0.10201095398E+01 0.  0.
     999903    2    3    3    0    0 -0.71501937495E-01 -0.10416448819E+00 -0.38567919608E-01  0.13353664131E+00  0.19539254957E-01 0.  0.
         14    1    1    2    0    0  0.15293299124E-01  0.13536936424E-01  0.11722083540E-01  0.23548691861E-01  0.00000000000E+00 0.  1.
     999901    1    3    3    0    0  0.56208638371E-01  0.90627551767E-01  0.26845836067E-01  0.88684466683E+00  0.88000000000E+00 0.  1.
        -11    1    4    4    0    0 -0.38700360501E-01 -0.49884743003E-01 -0.28681241874E-01  0.69347532355E-01  0.51100000000E-03 0.  1.
         11    1    4    4    0    0 -0.32801576994E-01 -0.54279745188E-01 -0.98866777343E-02  0.64189108956E-01  0.51100000000E-03 0. -1.
</event>
<event>
 8    1  0.1115874E+005  0.1043930E+01  0.7957747E-01            NaN
         13   -1    0    0    0    0  0.00000000000E+00  0.00000000000E+00  0.74505805969E-08  0.10566000000E+00  0.10566000000E+00 0. -1.
     999900   -1    0    0    0    0 -0.00000000000E+00 -0.00000000000E+00 -0.74505805969E-08  0.93827000000E+00  0.93827000000E+00 0.  1.
     999902    2    1    2    0    0  0.54488565363E-02 -0.15557068937E-01  0.16699435476E-01  0.10204654826E+01  0.10201956761E+01 0.  0.
     999903    2    3    3    0    0 -0.24736003290E-01 -0.96043274770E-01  0.87078233461E-01  0.13348051638E+00  0.19956177597E-01 0.  0.
         14    1    1    2    0    0 -0.54488565363E-02  0.15557068937E-01 -0.16699435476E-01  0.23464517397E-01  0.00000000000E+00 0.  1.
     999901    1    3    3    0    0  0.30184859826E-01  0.80486205832E-01 -0.70378797984E-01  0.88698496622E+00  0.88000000000E+00 0.  1.
        -11    1    4    4    0    0 -0.86177808429E-02 -0.46952137441E-01  0.29510700001E-01  0.56124075872E-01  0.51100000000E-03 0. -1.
         11    1    4    4    0    0 -0.16118222447E-01 -0.49091137329E-01  0.57567533460E-01  0.77356440512E-01  0.51100000000E-03 0.  1.
</event>
<event>
 8    1  0.1115874E+005  0.1043930E+01  0.7957747E-01            NaN
         13   -1    0    0    0    0  0.00000000000E+00  0.00000000000E+00  0.74505805969E-08  0.10566000000E+00  0.10566000000E+00 0.  1.
     999900   -1    0    0    0    0 -0.00000000000E+00 -0.00000000000E+00 -0.74505805969E-08  0.93827000000E+00  0.93827000000E+00 0. -1.
     999902    2    1    2    0    0 -0.28510586088E-02 -0.21182896595E-01 -0.91186137123E-02  0.10206922557E+01  0.10204276986E+01 0.  0.
     999903    2    3    3    0    0  0.57341595461E-01  0.10507893788E+00 -0.42979186450E-01  0.12900186952E+00  0.21555280459E-01 0.  0.
         14    1    1    2    0    0  0.28510586088E-02  0.21182896595E-01  0.91186137123E-02  0.23237744283E-01  0.00000000000E+00 0.  1.
     999901    1    3    3    0    0 -0.60192654069E-01 -0.12626183448E+00  0.33860572738E-01  0.89169038620E+00  0.88000000000E+00 0. -1.
        -11    1    4    4    0    0  0.19778630725E-01  0.34286421468E-01 -0.25152821334E-01  0.46900729979E-01  0.51100000000E-03 0. -1.
         11    1    4    4    0    0  0.37562964735E-01  0.70792516414E-01 -0.17826365116E-01  0.82101139542E-01  0.51100000000E-03 0.  1.
</event>
<event>
 8    1  0.1115874E+005  0.1043930E+01  0.7957747E-01            NaN
         13   -1    0    0    0    0  0.00000000000E+00  0.00000000000E+00  0.74505805969E-08  0.10566000000E+00  0.10566000000E+00 0. -1.
     999900   -1    0    0    0    0 -0.00000000000E+00 -0.00000000000E+00 -0.74505805969E-08  0.93827000000E+00  0.93827000000E+00 0.  1.
     999902    2    1    2    0    0 -0.10612795964E-01 -0.54479922263E-02  0.20291579861E-01  0.10203915151E+01  0.10201199850E+01 0.  0.
     999903    2    3    3    0    0 -0.22846933163E-02  0.65455780660E-01  0.11352703460E+00  0.13259111394E+00  0.20058336531E-01 0.  0.
         14    1    1    2    0    0  0.10612795964E-01  0.54479922263E-02 -0.20291579861E-01  0.23538484886E-01  0.00000000000E+00 0.  1.
     999901    1    3    3    0    0 -0.83281026480E-02 -0.70903772886E-01 -0.93235454743E-01  0.88780040117E+00  0.88000000000E+00 0.  1.
        -11    1    4    4    0    0  0.38944285147E-02  0.38081188490E-01  0.81247805212E-01  0.89815424416E-01  0.51100000000E-03 0. -1.
         11    1    4    4    0    0 -0.61791218310E-02  0.27374592170E-01  0.32279229392E-01  0.42775689524E-01  0.51100000000E-03 0.  1.
</event>
<event>
 8    1  0.1115874E+005  0.1043930E+01  0.7957747E-01            NaN
         13   -1    0    0    0    0  0.00000000000E+00  0.00000000000E+00  0.74505805969E-08  0.10566000000E+00  0.10566000000E+00 0.  1.
     999900   -1    0    0    0    0 -0.00000000000E+00 -0.00000000000E+00 -0.74505805969E-08  0.93827000000E+00  0.93827000000E+00 0.  1.
     999902    2    1    2    0    0  0.10962303168E-01  0.13955374401E-02 -0.14577642363E-01  0.10256371798E+01  0.10254740354E+01 0.  0.
     999903    2    3    3    0    0  0.13534428470E+00  0.28088961483E-02 -0.55605723766E-02  0.13684351278E+00  0.19216183963E-01 0.  0.
         14    1    1    2    0    0 -0.10962303168E-01 -0.13955374401E-02  0.14577642363E-01  0.18292820241E-01  0.00000000000E+00 0.  1.
     999901    1    3    3    0    0 -0.12438198153E+00 -0.14133587081E-02 -0.90170699864E-02  0.88879366698E+00  0.88000000000E+00 0.  1.
        -11    1    4    4    0    0  0.17088369844E-01 -0.13339228888E-02 -0.69576000857E-02  0.18505703287E-01  0.51100000000E-03 0.  1.
         11    1    4    4    0    0  0.11825591486E+00  0.41428190371E-02  0.13970277091E-02  0.11833780949E+00  0.51100000000E-03 0. -1.
</event>
<event>
 8    1  0.1115874E+005  0.1043930E+01  0.7957747E-01            NaN
         13   -1    0    0    0    0  0.00000000000E+00  0.00000000000E+00  0.74505805969E-08  0.10566000000E+00  0.10566000000E+00 0.  1.
     999900   -1    0    0    0    0 -0.00000000000E+00 -0.00000000000E+00 -0.74505805969E-08  0.93827000000E+00  0.93827000000E+00 0. -1.
     999902    2    1    2    0    0  0.21732661833E-01  0.20139150091E-01 -0.20132824749E-02  0.10142324031E+01  0.10137975243E+01 0.  0.
     999903    2    3    3    0    0 -0.24676464345E-01 -0.11741191165E+00 -0.13610376106E-01  0.12226346070E+00  0.19199650925E-01 0.  0.
         14    1    1    2    0    0 -0.21732661833E-01 -0.20139150091E-01  0.20132824749E-02  0.29697596924E-01  0.00000000000E+00 0.  1.
     999901    1    3    3    0    0  0.46409126178E-01  0.13755106174E+00  0.11597093632E-01  0.89196894237E+00  0.88000000000E+00 0. -1.
        -11    1    4    4    0    0 -0.19391710668E-01 -0.62149538659E-01 -0.14660207482E-01  0.66736694573E-01  0.51100000000E-03 0. -1.
         11    1    4    4    0    0 -0.52847536776E-02 -0.55262372990E-01  0.10498313753E-02  0.55526766129E-01  0.51100000000E-03 0.  1.
</event>
<event>
 8    1  0.1115874E+005  0.1043930E+01  0.7957747E-01            NaN
         13   -1    0    0    0    0  0.00000000000E+00  0.00000000000E+00  0.74505805969E-08  0.10566000000E+00  0.10566000000E+00 0.  1.
     999900   -1    0    0    0    0 -0.00000000000E+00 -0.00000000000E+00 -0.74505805969E-08  0.93827000000E+00  0.93827000000E+00 0.  1.
     999902    2    1    2    0    0  0.11668932047E-01 -0.12662863246E-01  0.20205116193E-01  0.10173827063E+01  0.10170362886E+01 0.  0.
     999903    2    3    3    0    0  0.22329152342E-01 -0.55746207451E-01  0.11494404604E+00  0.13118561783E+00  0.19781352735E-01 0.  0.
         14    1    1    2    0    0 -0.11668932047E-01  0.12662863246E-01 -0.20205116193E-01  0.26547293667E-01  0.00000000000E+00 0. -1.
     999901    1    3    3    0    0 -0.10660220295E-01  0.43083344205E-01 -0.94738929845E-01  0.88619708850E+00  0.88000000000E+00 0.  1.
        -11    1    4    4    0    0  0.20300653254E-01 -0.47296716010E-01  0.79649612605E-01  0.94833632099E-01  0.51100000000E-03 0. -1.
         11    1    4    4    0    0  0.20284990883E-02 -0.84494914405E-02  0.35294433433E-01  0.36351985730E-01  0.51100000000E-03 0.  1.
</event>
<event>
 8    1  0.1115874E+005  0.1043930E+01  0.7957747E-01            NaN
         13   -1    0    0    0    0  0.00000000000E+00  0.00000000000E+00  0.74505805969E-08  0.10566000000E+00  0.10566000000E+00 0. -1.
     999900   -1    0    0    0    0 -0.00000000000E+00 -0.00000000000E+00 -0.74505805969E-08  0.93827000000E+00  0.93827000000E+00 0.  1.
     999902    2    1    2    0    0 -0.18976491615E-02  0.78783502159E-02  0.22562115788E-01  0.10199567119E+01  0.10196749362E+01 0.  0.
     999903    2    3    3    0    0 -0.48046968380E-01 -0.21964189751E-01  0.12023639420E+00  0.13284871309E+00  0.20026314612E-01 0.  0.
         14    1    1    2    0    0  0.18976491615E-02 -0.78783502159E-02 -0.22562115788E-01  0.23973288120E-01  0.00000000000E+00 0.  1.
     999901    1    3    3    0    0  0.46149319219E-01  0.29842539967E-01 -0.97674278413E-01  0.88710799879E+00  0.88000000000E+00 0.  1.
        -11    1    4    4    0    0 -0.24284725171E-01 -0.52227273043E-02  0.36036277199E-01  0.43770985281E-01  0.51100000000E-03 0.  1.
         11    1    4    4    0    0 -0.23762243209E-01 -0.16741462447E-01  0.84200117002E-01  0.89077727807E-01  0.51100000000E-03 0. -1.
</event>
<event>
 8    1  0.1115874E+005  0.1043930E+01  0.7957747E-01            NaN
         13   -1    0    0    0    0  0.00000000000E+00  0.00000000000E+00  0.74505805969E-08  0.10566000000E+00  0.10566000000E+00 0. -1.
     999900   -1    0    0    0    0 -0.00000000000E+00 -0.00000000000E+00 -0.74505805969E-08  0.93827000000E+00  0.93827000000E+00 0.  1.
     999902    2    1    2    0    0 -0.19242239400E-01 -0.73563533756E-02  0.10967592268E-01  0.10205918811E+01  0.10203250071E+01 0.  0.
     999903    2    3    3    0    0  0.52556875624E-01  0.11375247571E+00  0.23754403296E-01  0.12930855697E+00  0.21320889336E-01 0.  0.
         14    1    1    2    0    0  0.19242239400E-01  0.73563533756E-02 -0.10967592268E-01  0.23338118867E-01  0.00000000000E+00 0.  1.
     999901    1    3    3    0    0 -0.71799115024E-01 -0.12110882909E+00 -0.12786811028E-01  0.89128332417E+00  0.88000000000E+00 0.  1.
        -11    1    4    4    0    0  0.37564902539E-01  0.57044421141E-01  0.15859344024E-01  0.70121093830E-01  0.51100000000E-03 0.  1.
         11    1    4    4    0    0  0.14991973085E-01  0.56708054574E-01  0.78950592714E-02  0.59187463136E-01  0.51100000000E-03 0. -1.
</event>
<event>
 8    1  0.1115874E+005  0.1043930E+01  0.7957747E-01            NaN
         13   -1    0    0    0    0  0.00000000000E+00  0.00000000000E+00  0.74505805969E-08  0.10566000000E+00  0.10566000000E+00 0.  1.
     999900   -1    0    0    0    0 -0.00000000000E+00 -0.00000000000E+00 -0.74505805969E-08  0.93827000000E+00  0.93827000000E+00 0.  1.
     999902    2    1    2    0    0 -0.17143223096E-03 -0.12309813603E-02 -0.23963900902E-01  0.10199338909E+01  0.10196515722E+01 0.  0.
     999903    2    3    3    0    0 -0.91352412306E-01 -0.84855945865E-01 -0.35851235335E-01  0.13119972677E+00  0.19551533132E-01 0.  0.
         14    1    1    2    0    0  0.17143223096E-03  0.12309813603E-02  0.23963900902E-01  0.23996109072E-01  0.00000000000E+00 0.  1.
     999901    1    3    3    0    0  0.91180980075E-01  0.83624964504E-01  0.11887334432E-01  0.88873416415E+00  0.88000000000E+00 0.  1.
        -11    1    4    4    0    0 -0.27298719937E-01 -0.28906538305E-01 -0.20639663898E-01  0.44800278055E-01  0.51100000000E-03 0.  1.
         11    1    4    4    0    0 -0.64053692369E-01 -0.55949407560E-01 -0.15211571437E-01  0.86399448719E-01  0.51100000000E-03 0. -1.
</event>
<event>
 8    1  0.1115874E+005  0.1043930E+01  0.7957747E-01            NaN
         13   -1    0    0    0    0  0.00000000000E+00  0.00000000000E+00  0.74505805969E-08  0.10566000000E+00  0.10566000000E+00 0.  1.
     999900   -1    0    0    0    0 -0.00000000000E+00 -0.00000000000E+00 -0.74505805969E-08  0.93827000000E+00  0.93827000000E+00 0. -1.
     999902    2    1    2    0    0 -0.63913902673E-02 -0.20620651492E-01  0.15040208980E-01  0.10176189942E+01  0.10172787958E+01 0.  0.
     999903    2    3    3    0    0  0.33062406791E-01 -0.10281302626E+00  0.71686682664E-01  0.13109713239E+00  0.19591746676E-01 0.  0.
         14    1    1    2    0    0  0.63913902673E-02  0.20620651492E-01 -0.15040208980E-01  0.26311005751E-01  0.00000000000E+00 0.  1.
     999901    1    3    3    0    0 -0.39453797058E-01  0.82192374770E-01 -0.56646473684E-01  0.88652186186E+00  0.88000000000E+00 0.  1.
        -11    1    4    4    0    0  0.34177127626E-01 -0.85465331728E-01  0.56467736048E-01  0.10798733868E+00  0.51100000000E-03 0. -1.
         11    1    4    4    0    0 -0.11147208355E-02 -0.17347694533E-01  0.15218946616E-01  0.23109793709E-01  0.51100000000E-03 0.  1.
</event>
<event>
 8    1  0.1115874E+005  0.1043930E+01  0.7957747E-01            NaN
         13   -1    0    0    0    0  0.00000000000E+00  0.00000000000E+00  0.74505805969E-08  0.10566000000E+00  0.10566000000E+00 0. -1.
     999900   -1    0    0    0    0 -0.00000000000E+00 -0.00000000000E+00 -0.74505805969E-08  0.93827000000E+00  0.93827000000E+00 0.  1.
     999902    2    1    2    0    0 -0.18995692248E-01 -0.11538315868E-01  0.96901348681E-02  0.10196840154E+01  0.10193957148E+01 0.  0.
     999903    2    3    3    0    0 -0.10407424102E+00 -0.60253636987E-01  0.53536712557E-01  0.13315479174E+00  0.20051697119E-01 0.  0.
         14    1    1    2    0    0  0.18995692248E-01  0.11538315868E-01 -0.96901348681E-02  0.24245984632E-01  0.00000000000E+00 0.  1.
     999901    1    3    3    0    0  0.85078548773E-01  0.48715321119E-01 -0.43846577689E-01  0.88652922363E+00  0.88000000000E+00 0.  1.
        -11    1    4    4    0    0 -0.87250342501E-01 -0.47413982287E-01  0.35871980746E-01  0.10558299156E+00  0.51100000000E-03 0.  1.
         11    1    4    4    0    0 -0.16823898520E-01 -0.12839654700E-01  0.17664731811E-01  0.27571800180E-01  0.51100000000E-03 0. -1.
</event>
<event>
 8    1  0.1115874E+005  0.1043930E+01  0.7957747E-01            NaN
         13   -1    0    0    0    0  0.00000000000E+00  0.00000000000E+00  0.74505805969E-08  0.10566000000E+00  0.10566000000E+00 0.  1.
     999900   -1    0    0    0    0 -0.00000000000E+00 -0.00000000000E+00 -0.74505805969E-08  0.93827000000E+00  0.93827000000E+00 0. -1.
     999902    2    1    2    0    0 -0.22510857209E-01  0.73977371046E-02 -0.13264832941E-03  0.10202343717E+01  0.10199591611E+01 0.  0.
     999903    2    3    3    0    0 -0.74247475639E-01 -0.17263913059E-02  0.10755367065E+00  0.13211485792E+00  0.19258129358E-01 0.  0.
         14    1    1    2    0    0  0.22510857209E-01 -0.73977371046E-02  0.13264832941E-03  0.23695628334E-01  0.00000000000E+00 0.  1.
     999901    1    3    3    0    0  0.51736618430E-01  0.91241284105E-02 -0.10768631898E+00  0.88811951375E+00  0.88000000000E+00 0. -1.
        -11    1    4    4    0    0 -0.50080678970E-02 -0.74306507880E-03  0.12404012415E-02  0.52376145345E-02  0.51100000000E-03 0. -1.
         11    1    4    4    0    0 -0.69239407742E-01 -0.98332622710E-03  0.10631326941E+00  0.12687724338E+00  0.51100000000E-03 0.  1.
</event>
<event>
 8    1  0.1115874E+005  0.1043930E+01  0.7957747E-01            NaN
         13   -1    0    0    0    0  0.00000000000E+00  0.00000000000E+00  0.74505805969E-08  0.10566000000E+00  0.10566000000E+00 0. -1.
     999900   -1    0    0    0    0 -0.00000000000E+00 -0.00000000000E+00 -0.74505805969E-08  0.93827000000E+00  0.93827000000E+00 0.  1.
     999902    2    1    2    0    0  0.20071227509E-01  0.18806940947E-02 -0.12762002399E-01  0.10200708322E+01  0.10197917644E+01 0.  0.
     999903    2    3    3    0    0 -0.11874975100E+00  0.65407359984E-02 -0.44327838991E-01  0.12861731005E+00  0.20812749612E-01 0.  0.
         14    1    1    2    0    0 -0.20071227509E-01 -0.18806940947E-02  0.12762002399E-01  0.23859167824E-01  0.00000000000E+00 0. -1.
     999901    1    3    3    0    0  0.13882097851E+00 -0.46600419037E-02  0.31565836592E-01  0.89145352212E+00  0.88000000000E+00 0.  1.
        -11    1    4    4    0    0 -0.83276335965E-01 -0.79264726840E-03 -0.39140392614E-01  0.92020692653E-01  0.51100000000E-03 0. -1.
         11    1    4    4    0    0 -0.35473415034E-01  0.73333832668E-02 -0.51874463774E-02  0.36596617401E-01  0.51100000000E-03 0.  1.
</event>
<event>
 8    1  0.1115874E+005  0.1043930E+01  0.7957747E-01            NaN
         13   -1    0    0    0    0  0.00000000000E+00  0.00000000000E+00  0.74505805969E-08  0.10566000000E+00  0.10566000000E+00 0. -1.
     999900   -1    0    0    0    0 -0.00000000000E+00 -0.00000000000E+00 -0.74505805969E-08  0.93827000000E+00  0.93827000000E+00 0. -1.
     999902    2    1    2    0    0  0.10030884814E-02 -0.20361105316E-02 -0.28698982623E-01  0.10151413992E+01  0.10147331062E+01 0.  0.
     999903    2    3    3    0    0  0.41834126263E-01  0.11434856578E+00 -0.28006225570E-01  0.12653966251E+00  0.20056143774E-01 0.  0.
         14    1    1    2    0    0 -0.10030884814E-02  0.20361105316E-02  0.28698982623E-01  0.28788600803E-01  0.00000000000E+00 0. -1.
     999901    1    3    3    0    0 -0.40831037781E-01 -0.11638467631E+00 -0.69275705279E-03  0.88860173668E+00  0.88000000000E+00 0. -1.
        -11    1    4    4    0    0  0.31479347679E-01  0.94138035055E-01 -0.30106174841E-01  0.10372830790E+00  0.51100000000E-03 0.  1.
         11    1    4    4    0    0  0.10354778583E-01  0.20210530721E-01  0.20999492716E-02  0.22811354617E-01  0.51100000000E-03 0. -1.
</event>
<event>
 8    1  0.1115874E+005  0.1043930E+01  0.7957747E-01            NaN
         13   -1    0    0    0    0  0.00000000000E+00  0.00000000000E+00  0.74505805969E-08  0.10566000000E+00  0.10566000000E+00 0.  1.
     999900   -1    0    0    0    0 -0.00000000000E+00 -0.00000000000E+00 -0.74505805969E-08  0.93827000000E+00  0.93827000000E+00 0.  1.
     999902    2    1    2    0    0  0.14706834404E-01  0.45313553808E-02  0.16619463250E-01  0.10212798186E+01  0.10210286172E+01 0.  0.
     999903    2    3    3    0    0  0.26219727938E-01 -0.69280680937E-01  0.10859109941E+00  0.13333863512E+00  0.22357948475E-01 0.  0.
         14    1    1    2    0    0 -0.14706834404E-01 -0.45313553808E-02 -0.16619463250E-01  0.22650181423E-01  0.00000000000E+00 0.  1.
     999901    1    3    3    0    0 -0.11512893533E-01  0.73812036318E-01 -0.91971636161E-01  0.88794118346E+00  0.88000000000E+00 0.  1.
        -11    1    4    4    0    0  0.18188117981E-01 -0.55876700882E-01  0.68187545747E-01  0.90015642269E-01  0.51100000000E-03 0. -1.
         11    1    4    4    0    0  0.80316099569E-02 -0.13403980055E-01  0.40403553664E-01  0.43322992850E-01  0.51100000000E-03 0.  1.
</event>
<event>
 8    1  0.1115874E+005  0.1043930E+01  0.7957747E-01            NaN
         13   -1    0    0    0    0  0.00000000000E+00  0.00000000000E+00  0.74505805969E-08  0.10566000000E+00  0.10566000000E+00 0.  1.
     999900   -1    0    0    0    0 -0.00000000000E+00 -0.00000000000E+00 -0.74505805969E-08  0.93827000000E+00  0.93827000000E+00 0. -1.
     999902    2    1    2    0    0 -0.31076968056E-02 -0.61509226941E-02 -0.22682101765E-01  0.10202241069E+01  0.10199486550E+01 0.  0.
     999903    2    3    3    0    0 -0.60912681619E-02  0.12348366929E+00 -0.37085603464E-01  0.13060537391E+00  0.19927407805E-01 0.  0.
         14    1    1    2    0    0  0.31076968056E-02  0.61509226941E-02  0.22682101765E-01  0.23705893147E-01  0.00000000000E+00 0.  1.
     999901    1    3    3    0    0  0.29835713563E-02 -0.12963459198E+00  0.14403501699E-01  0.88961873294E+00  0.88000000000E+00 0. -1.
        -11    1    4    4    0    0 -0.83317493294E-02  0.23775466137E-01 -0.11141449616E-01  0.27551476502E-01  0.51100000000E-03 0.  1.
         11    1    4    4    0    0  0.22404811675E-02  0.99708203153E-01 -0.25944153848E-01  0.10305389741E+00  0.51100000000E-03 0. -1.
</event>
<event>
 8    1  0.1115874E+005  0.1043930E+01  0.7957747E-01            NaN
         13   -1    0    0    0    0  0.00000000000E+00  0.00000000000E+00  0.74505805969E-08  0.10566000000E+00  0.10566000000E+00 0.  1.
     999900   -1    0    0    0    0 -0.00000000000E+00 -0.00000000000E+00 -0.74505805969E-08  0.93827000000E+00  0.93827000000E+00 0.  1.
     999902    2    1    2    0    0 -0.64637363211E-02  0.17425744293E-01  0.14880132659E-01  0.10201212873E+01  0.10198434125E+01 0.  0.
     999903    2    3    3    0    0  0.78127962047E-01 -0.72306385864E-01 -0.66955201057E-01  0.12776226066E+00  0.22538953189E-01 0.  0.
         14    1    1    2    0    0  0.64637363211E-02 -0.17425744293E-01 -0.14880132659E-01  0.23808712677E-01  0.00000000000E+00 0. -1.
     999901    1    3    3    0    0 -0.84591698368E-01  0.89732130157E-01  0.81835333717E-01  0.89235902666E+00  0.88000000000E+00 0. -1.
        -11    1    4    4    0    0  0.21709804794E-01 -0.80755390206E-02 -0.11563215075E-01  0.25893995801E-01  0.51100000000E-03 0. -1.
         11    1    4    4    0    0  0.56418157254E-01 -0.64230846843E-01 -0.55391985983E-01  0.10186826486E+00  0.51100000000E-03 0.  1.
</event>
<event>
 8    1  0.1115874E+005  0.1043930E+01  0.7957747E-01            NaN
         13   -1    0    0    0    0  0.00000000000E+00  0.00000000000E+00  0.74505805969E-08  0.10566000000E+00  0.10566000000E+00 0. -1.
     999900   -1    0    0    0    0 -0.00000000000E+00 -0.00000000000E+00 -0.74505805969E-08  0.93827000000E+00  0.93827000000E+00 0. -1.
     999902    2    1    2    0    0 -0.15796872871E-01 -0.41823981029E-02  0.16029548117E-01  0.10210393893E+01  0.10207827655E+01 0.  0.
     999903    2    3    3    0    0 -0.73430629593E-01  0.10280674428E+00  0.34461135252E-01  0.13249673419E+00  0.20162606388E-01 0.  0.
         14    1    1    2    0    0  0.15796872871E-01  0.41823981029E-02 -0.16029548117E-01  0.22890610722E-01  0.00000000000E+00 0.  1.
     999901    1    3    3    0    0  0.57633756722E-01 -0.10698914239E+00 -0.18431587135E-01  0.88854265509E+00  0.88000000000E+00 0. -1.
        -11    1    4    4    0    0 -0.20878290125E-01  0.32440916762E-01  0.12529688080E-02  0.38602423897E-01  0.51100000000E-03 0. -1.
         11    1    4    4    0    0 -0.52552339469E-01  0.70365827520E-01  0.33208166444E-01  0.93894310295E-01  0.51100000000E-03 0.  1.
</event>
<event>
 8    1  0.1115874E+005  0.1043930E+01  0.7957747E-01            NaN
         13   -1    0    0    0    0  0.00000000000E+00  0.00000000000E+00  0.74505805969E-08  0.10566000000E+00  0.10566000000E+00 0.  1.
     999900   -1    0    0    0    0 -0.00000000000E+00 -0.00000000000E+00 -0.74505805969E-08  0.93827000000E+00  0.93827000000E+00 0. -1.
     999902    2    1    2    0    0 -0.22714372249E-01 -0.40515597242E-02 -0.42265861064E-02  0.10204731913E+01  0.10202035642E+01 0.  0.
     999903    2    3    3    0    0 -0.12542431053E+00 -0.25225357265E-01 -0.33310086537E-01  0.13376945776E+00  0.20423751935E-01 0.  0.
         14    1    1    2    0    0  0.22714372249E-01  0.40515597242E-02  0.42265861064E-02  0.23456808670E-01  0.00000000000E+00 0. -1.
     999901    1    3    3    0    0  0.10270993828E+00  0.21173797541E-01  0.29083500430E-01  0.88670373357E+00  0.88000000000E+00 0.  1.
        -11    1    4    4    0    0 -0.31705125985E-01 -0.14681754650E-01 -0.13089140933E-01  0.37314282315E-01  0.51100000000E-03 0.  1.
         11    1    4    4    0    0 -0.93719184549E-01 -0.10543602615E-01 -0.20220945604E-01  0.96455175448E-01  0.51100000000E-03 0. -1.
</event>
<event>
 8    1  0.1115874E+005  0.1043930E+01  0.7957747E-01            NaN
         13   -1    0    0    0    0  0.00000000000E+00  0.00000000000E+00  0.74505805969E-08  0.10566000000E+00  0.10566000000E+00 0. -1.
     999900   -1    0    0    0    0 -0.00000000000E+00 -0.00000000000E+00 -0.74505805969E-08  0.93827000000E+00  0.93827000000E+00 0. -1.
     999902    2    1    2    0    0  0.16960628770E-01  0.76724109157E-02  0.15774205146E-01  0.10195301155E+01  0.10192380988E+01 0.  0.
     999903    2    3    3    0    0 -0.84011860577E-01 -0.79418254338E-01  0.52248659201E-01  0.12873798854E+00  0.21869967229E-01 0.  0.
         14    1    1    2    0    0 -0.16960628770E-01 -0.76724109157E-02 -0.15774205146E-01  0.24399884539E-01  0.00000000000E+00 0.  1.
     999901    1    3    3    0    0  0.10097248935E+00  0.87090665253E-01 -0.36474454055E-01  0.89079212692E+00  0.88000000000E+00 0. -1.
        -11    1    4    4    0    0 -0.24978171894E-01 -0.17907653904E-01  0.23746679424E-01  0.38842747639E-01  0.51100000000E-03 0.  1.
         11    1    4    4    0    0 -0.59033688682E-01 -0.61510600434E-01  0.28501979777E-01  0.89895240905E-01  0.51100000000E-03 0. -1.
</event>
<event>
 8    1  0.1115874E+005  0.1043930E+01  0.7957747E-01            NaN
         13   -1    0    0    0    0  0.00000000000E+00  0.00000000000E+00  0.74505805969E-08  0.10566000000E+00  0.10566000000E+00 0. -1.
     999900   -1    0    0    0    0 -0.00000000000E+00 -0.00000000000E+00 -0.74505805969E-08  0.93827000000E+00  0.93827000000E+00 0.  1.
     999902    2    1    2    0    0  0.13061460287E-02 -0.30444496140E-03  0.25941666906E-01  0.10179536880E+01  0.10176222001E+01 0.  0.
     999903    2    3    3    0    0 -0.40656823166E-02  0.23670673964E-01 -0.12206463814E+00  0.12525579440E+00  0.14574208986E-01 0.  0.
         14    1    1    2    0    0 -0.13061460287E-02  0.30444496140E-03 -0.25941666906E-01  0.25976312017E-01  0.00000000000E+00 0.  1.
     999901    1    3    3    0    0  0.53718283453E-02 -0.23975118925E-01  0.14800630505E+00  0.89269789358E+00  0.88000000000E+00 0. -1.
        -11    1    4    4    0    0 -0.68810186172E-02  0.18231474545E-01 -0.64971745037E-01  0.67833058721E-01  0.51100000000E-03 0.  1.
         11    1    4    4    0    0  0.28153363006E-02  0.54391994184E-02 -0.57092893107E-01  0.57422735682E-01  0.51100000000E-03 0. -1.
</event>
<event>
 8    1  0.1115874E+005  0.1043930E+01  0.7957747E-01            NaN
         13   -1    0    0    0    0  0.00000000000E+00  0.00000000000E+00  0.74505805969E-08  0.10566000000E+00  0.10566000000E+00 0.  1.
     999900   -1    0    0    0    0 -0.00000000000E+00 -0.00000000000E+00 -0.74505805969E-08  0.93827000000E+00  0.93827000000E+00 0. -1.
     999902    2    1    2    0    0 -0.65492745013E-02 -0.15907511659E-01 -0.16613951952E-01  0.10200142035E+01  0.10197337937E+01 0.  0.
     999903    2    3    3    0    0 -0.88053671545E-02 -0.64475019918E-01 -0.11482443425E+00  0.13321704987E+00  0.18098867152E-01 0.  0.
         14    1    1    2    0    0  0.65492745013E-02  0.15907511659E-01  0.16613951952E-01  0.23915796519E-01  0.00000000000E+00 0.  1.
     999901    1    3    3    0    0  0.22560926532E-02  0.48567508260E-01  0.98210482297E-01  0.88679715361E+00  0.88000000000E+00 0.  1.
        -11    1    4    4    0    0  0.33070537169E-02 -0.24563066560E-01 -0.54527706020E-01  0.59898352965E-01  0.51100000000E-03 0.  1.
         11    1    4    4    0    0 -0.12112420871E-01 -0.39911953358E-01 -0.60296728230E-01  0.73318696909E-01  0.51100000000E-03 0. -1.
</event>
<event>
 8    1  0.1115874E+005  0.1043930E+01  0.7957747E-01            NaN
         13   -1    0    0    0    0  0.00000000000E+00  0.00000000000E+00  0.74505805969E-08  0.10566000000E+00  0.10566000000E+00 0.  1.
     999900   -1    0    0    0    0 -0.00000000000E+00 -0.00000000000E+00 -0.74505805969E-08  0.93827000000E+00  0.93827000000E+00 0.  1.
     999902    2    1    2    0    0  0.24529395701E-02  0.20393474964E-01 -0.11701397512E-01  0.10202903419E+01  0.10200164451E+01 0.  0.
     999903    2    3    3    0    0  0.13914086369E-01  0.12545281337E+00  0.35766754981E-01  0.13269693946E+00  0.19930047603E-01 0.  0.
         14    1    1    2    0    0 -0.24529395701E-02 -0.20393474964E-01  0.11701397512E-01  0.23639658148E-01  0.00000000000E+00 0. -1.
     999901    1    3    3    0    0 -0.11461146799E-01 -0.10505933841E+00 -0.47468152493E-01  0.88759340239E+00  0.88000000000E+00 0. -1.
        -11    1    4    4    0    0  0.15667730242E-01  0.94185354430E-01  0.33900584371E-01  0.10132062723E+00  0.51100000000E-03 0. -1.
         11    1    4    4    0    0 -0.17536438731E-02  0.31267458941E-01  0.18661706107E-02  0.31376312231E-01  0.51100000000E-03 0.  1.
</event>
<event>
 8    1  0.1115874E+005  0.1043930E+01  0.7957747E-01            NaN
         13   -1    0    0    0    0  0.00000000000E+00  0.00000000000E+00  0.74505805969E-08  0.10566000000E+00  0.10566000000E+00 0. -1.
     999900   -1    0    0    0    0 -0.00000000000E+00 -0.00000000000E+00 -0.74505805969E-08  0.93827000000E+00  0.93827000000E+00 0. -1.
     999902    2    1    2    0    0  0.11597845607E-01  0.13291341613E-01  0.15970811720E-01  0.10201342732E+01  0.10198567051E+01 0.  0.
     999903    2    3    3    0    0 -0.22644359441E-01  0.36381115487E-01 -0.11968150542E+00  0.12878292983E+00  0.20616199901E-01 0.  0.
         14    1    1    2    0    0 -0.11597845607E-01 -0.13291341613E-01 -0.15970811720E-01  0.23795726751E-01  0.00000000000E+00 0.  1.
     999901    1    3    3    0    0  0.34242205048E-01 -0.23089773874E-01  0.13565231714E+00  0.89135134342E+00  0.88000000000E+00 0.  1.
        -11    1    4    4    0    0 -0.26256358276E-01  0.32470742806E-01 -0.11088567474E+00  0.11848898460E+00  0.51100000000E-03 0. -1.
         11    1    4    4    0    0  0.36119988350E-02  0.39103726810E-02 -0.87958306757E-02  0.10293945228E-01  0.51100000000E-03 0.  1.
</event>
<event>
 8    1  0.1115874E+005  0.1043930E+01  0.7957747E-01            NaN
         13   -1    0    0    0    0  0.00000000000E+00  0.00000000000E+00  0.74505805969E-08  0.10566000000E+00  0.10566000000E+00 0.  1.
     999900   -1    0    0    0    0 -0.00000000000E+00 -0.00000000000E+00 -0.74505805969E-08  0.93827000000E+00  0.93827000000E+00 0.  1.
     999902    2    1    2    0    0  0.76306677494E-02 -0.14886060924E-01 -0.17970959425E-01  0.10193784770E+01  0.10190827749E+01 0.  0.
     999903    2    3    3    0    0 -0.99631648862E-01 -0.75818571454E-01  0.26755282043E-01  0.12964907312E+00  0.20447880386E-01 0.  0.
         14    1    1    2    0    0 -0.76306677494E-02  0.14886060924E-01  0.17970959425E-01  0.24551523024E-01  0.00000000000E+00 0. -1.
     999901    1    3    3    0    0  0.10726231661E+00  0.60932510530E-01 -0.44726241468E-01  0.88972940385E+00  0.88000000000E+00 0. -1.
        -11    1    4    4    0    0 -0.95240785154E-01 -0.68798061960E-01  0.29073158362E-01  0.12103507816E+00  0.51100000000E-03 0. -1.
         11    1    4    4    0    0 -0.43908637073E-02 -0.70205094941E-02 -0.23178763189E-02  0.86139949665E-02  0.51100000000E-03 0.  1.
</event>
<event>
 8    1  0.1115874E+005  0.1043930E+01  0.7957747E-01            NaN
         13   -1    0    0    0    0  0.00000000000E+00  0.00000000000E+00  0.74505805969E-08  0.10566000000E+00  0.10566000000E+00 0. -1.
     999900   -1    0    0    0    0 -0.00000000000E+00 -0.00000000000E+00 -0.74505805969E-08  0.93827000000E+00  0.93827000000E+00 0. -1.
     999902    2    1    2    0    0 -0.41237327176E-02  0.17718769982E-01  0.14180796920E-01  0.10208636829E+01  0.10206030591E+01 0.  0.
     999903    2    3    3    0    0  0.10998307267E+00 -0.63427217724E-01 -0.15360359601E-01  0.12930453500E+00  0.19090151958E-01 0.  0.
         14    1    1    2    0    0  0.41237327176E-02 -0.17718769982E-01 -0.14180796920E-01  0.23066317055E-01  0.00000000000E+00 0.  1.
     999901    1    3    3    0    0 -0.11410680539E+00  0.81145987706E-01  0.29541156521E-01  0.89155914795E+00  0.88000000000E+00 0. -1.
        -11    1    4    4    0    0  0.70735814216E-01 -0.44896031278E-01 -0.16965718572E-02  0.83799454141E-01  0.51100000000E-03 0.  1.
         11    1    4    4    0    0  0.39247258456E-01 -0.18531186447E-01 -0.13663787744E-01  0.45505080859E-01  0.51100000000E-03 0. -1.
</event>
<event>
 8    1  0.1115874E+005  0.1043930E+01  0.7957747E-01            NaN
         13   -1    0    0    0    0  0.00000000000E+00  0.00000000000E+00  0.74505805969E-08  0.10566000000E+00  0.10566000000E+00 0.  1.
     999900   -1    0    0    0    0 -0.00000000000E+00 -0.00000000000E+00 -0.74505805969E-08  0.93827000000E+00  0.93827000000E+00 0.  1.
     999902    2    1    2    0    0 -0.21075587821E-01 -0.42520274348E-02  0.91124445954E-02  0.10205784094E+01  0.10203112235E+01 0.  0.
     999903    2    3    3    0    0  0.49728413798E-01 -0.10778050792E+00 -0.48650125357E-01  0.12981027600E+00  0.19857493055E-01 0.  0.
         14    1    1    2    0    0  0.21075587821E-01  0.42520274348E-02 -0.91124445954E-02  0.23351590648E-01  0.00000000000E+00 0.  1.
     999901    1    3    3    0    0 -0.70804001618E-01  0.10352848048E+00  0.57762569952E-01  0.89076813336E+00  0.88000000000E+00 0. -1.
        -11    1    4    4    0    0  0.17316297703E-01 -0.60632515682E-01 -0.23239478632E-01  0.67204840690E-01  0.51100000000E-03 0.  1.
         11    1    4    4    0    0  0.32412116095E-01 -0.47147992238E-01 -0.25410646725E-01  0.62605435305E-01  0.51100000000E-03 0. -1.
</event>
<event>
 8    1  0.1115874E+005  0.1043930E+01  0.7957747E-01            NaN
         13   -1    0    0    0    0  0.00000000000E+00  0.00000000000E+00  0.74505805969E-08  0.10566000000E+00  0.10566000000E+00 0.  1.
     999900   -1    0    0    0    0 -0.00000000000E+00 -0.00000000000E+00 -0.74505805969E-08  0.93827000000E+00  0.93827000000E+00 0. -1.
     999902    2    1    2    0    0 -0.13017072706E-01 -0.15297962233E-01 -0.13132861094E-01  0.10199311694E+01  0.10196487858E+01 0.  0.
     999903    2    3    3    0    0  0.72568677714E-01 -0.59569909416E-01  0.86749241942E-01  0.12905443241E+00  0.17743405921E-01 0.  0.
         14    1    1    2    0    0  0.13017072706E-01  0.15297962233E-01  0.13132861094E-01  0.23998830614E-01  0.00000000000E+00 0.  1.
     999901    1    3    3    0    0 -0.85585750420E-01  0.44271947183E-01 -0.99882103036E-01  0.89087673698E+00  0.88000000000E+00 0.  1.
        -11    1    4    4    0    0  0.17699624058E-01 -0.66046940574E-02  0.22075145583E-01  0.29059797812E-01  0.51100000000E-03 0. -1.
         11    1    4    4    0    0  0.54869053656E-01 -0.52965215358E-01  0.64674096359E-01  0.99994634596E-01  0.51100000000E-03 0.  1.
</event>
<event>
 8    1  0.1115874E+005  0.1043930E+01  0.7957747E-01            NaN
         13   -1    0    0    0    0  0.00000000000E+00  0.00000000000E+00  0.74505805969E-08  0.10566000000E+00  0.10566000000E+00 0. -1.
     999900   -1    0    0    0    0 -0.00000000000E+00 -0.00000000000E+00 -0.74505805969E-08  0.93827000000E+00  0.93827000000E+00 0.  1.
     999902    2    1    2    0    0 -0.15258346240E-01 -0.14071508717E-01 -0.10082848116E-01  0.10208542917E+01  0.10205934531E+01 0.  0.
     999903    2    3    3    0    0  0.16909853445E-01 -0.26557752308E-01  0.12449081067E+00  0.12995543717E+00  0.19979898864E-01 0.  0.
         14    1    1    2    0    0  0.15258346240E-01  0.14071508717E-01  0.10082848116E-01  0.23075708303E-01  0.00000000000E+00 0. -1.
     999901    1    3    3    0    0 -0.32168199685E-01  0.12486243591E-01 -0.13457365879E+00  0.89089885452E+00  0.88000000000E+00 0.  1.
        -11    1    4    4    0    0  0.18099981002E-01 -0.13523955733E-01  0.95586288434E-01  0.98221720350E-01  0.51100000000E-03 0.  1.
         11    1    4    4    0    0 -0.11901275572E-02 -0.13033796575E-01  0.28904522237E-01  0.31733716824E-01  0.51100000000E-03 0. -1.
</event>
<event>
 8    1  0.1115874E+005  0.1043930E+01  0.7957747E-01            NaN
         13   -1    0    0    0    0  0.00000000000E+00  0.00000000000E+00  0.74505805969E-08  0.10566000000E+00  0.10566000000E+00 0. -1.
     999900   -1    0    0    0    0 -0.00000000000E+00 -0.00000000000E+00 -0.74505805969E-08  0.93827000000E+00  0.93827000000E+00 0. -1.
     999902    2    1    2    0    0 -0.52307711977E-02  0.69047598715E-02  0.21856885920E-01  0.10204191485E+01  0.10201482630E+01 0.  0.
     999903    2    3    3    0    0 -0.10431687357E+00  0.78083279940E-01  0.24606952440E-02  0.13179062678E+00  0.19588403920E-01 0.  0.
         14    1    1    2    0    0  0.52307711977E-02 -0.69047598715E-02 -0.21856885920E-01  0.23510851501E-01  0.00000000000E+00 0.  1.
     999901    1    3    3    0    0  0.99086102371E-01 -0.71178520069E-01  0.19396190676E-01  0.88862852172E+00  0.88000000000E+00 0. -1.
        -11    1    4    4    0    0 -0.63300654517E-01  0.36191637637E-01 -0.24134950011E-02  0.72958163191E-01  0.51100000000E-03 0. -1.
         11    1    4    4    0    0 -0.41016219052E-01  0.41891642304E-01  0.48741902451E-02  0.58832463588E-01  0.51100000000E-03 0.  1.
</event>
<event>
 8    1  0.1115874E+005  0.1043930E+01  0.7957747E-01            NaN
         13   -1    0    0    0    0  0.00000000000E+00  0.00000000000E+00  0.74505805969E-08  0.10566000000E+00  0.10566000000E+00 0.  1.
     999900   -1    0    0    0    0 -0.00000000000E+00 -0.00000000000E+00 -0.74505805969E-08  0.93827000000E+00  0.93827000000E+00 0.  1.
     999902    2    1    2    0    0 -0.42761712616E-02 -0.21024828082E-01 -0.10962361428E-01  0.10198363825E+01  0.10195517371E+01 0.  0.
     999903    2    3    3    0    0  0.12232257773E+00 -0.55056292958E-02 -0.40186070894E-01  0.13016109680E+00  0.18271996324E-01 0.  0.
         14    1    1    2    0    0  0.42761712616E-02  0.21024828082E-01  0.10962361428E-01  0.24093617508E-01  0.00000000000E+00 0.  1.
     999901    1    3    3    0    0 -0.12659874899E+00 -0.15519198787E-01  0.29223709466E-01  0.88967528569E+00  0.88000000000E+00 0. -1.
        -11    1    4    4    0    0  0.12085134665E+00 -0.73250035044E-02 -0.40660944943E-01  0.12771952563E+00  0.51100000000E-03 0.  1.
         11    1    4    4    0    0  0.14712310840E-02  0.18193742086E-02  0.47487404865E-03  0.24415711695E-02  0.51100000000E-03 0. -1.
</event>
<event>
 8    1  0.1115874E+005  0.1043930E+01  0.7957747E-01            NaN
         13   -1    0    0    0    0  0.00000000000E+00  0.00000000000E+00  0.74505805969E-08  0.10566000000E+00  0.10566000000E+00 0.  1.
     999900   -1    0    0    0    0 -0.00000000000E+00 -0.00000000000E+00 -0.74505805969E-08  0.93827000000E+00  0.93827000000E+00 0.  1.
     999902    2    1    2    0    0  0.21296899235E-02 -0.21946823525E-01  0.70560679370E-02  0.10207786126E+01  0.10205160407E+01 0.  0.
     999903    2    3    3    0    0  0.11436487696E+00  0.30229479852E-01  0.53607034016E-01  0.13089879138E+00  0.16359491266E-01 0.  0.
         14    1    1    2    0    0 -0.21296899235E-02  0.21946823525E-01 -0.70560679370E-02  0.23151387361E-01  0.00000000000E+00 0. -1.
     999901    1    3    3    0    0 -0.11223518704E+00 -0.52176303377E-01 -0.46550966079E-01  0.88987982126E+00  0.88000000000E+00 0.  1.
        -11    1    4    4    0    0  0.87478491561E-01  0.30138822956E-01  0.41749729054E-01  0.10150929087E+00  0.51100000000E-03 0.  1.
         11    1    4    4    0    0  0.26886385398E-01  0.90656895138E-04  0.11857304962E-01  0.29389500513E-01  0.51100000000E-03 0. -1.
</event>
<event>
 8    1  0.1115874E+005  0.1043930E+01  0.7957747E-01            NaN
         13   -1    0    0    0    0  0.00000000000E+00  0.00000000000E+00  0.74505805969E-08  0.10566000000E+00  0.10566000000E+00 0.  1.
     999900   -1    0    0    0    0 -0.00000000000E+00 -0.00000000000E+00 -0.74505805969E-08  0.93827000000E+00  0.93827000000E+00 0.  1.
     999902    2    1    2    0    0  0.84520715501E-02  0.17642987403E-01  0.13437180989E-01  0.10201966827E+01  0.10199205856E+01 0.  0.
     999903    2    3    3    0    0  0.23042221195E-01  0.12386954357E+00 -0.35181117285E-01  0.13235621693E+00  0.20145703387E-01 0.  0.
         14    1    1    2    0    0 -0.84520715501E-02 -0.17642987403E-01 -0.13437180989E-01  0.23733317318E-01  0.00000000000E+00 0. -1.
     999901    1    3    3    0    0 -0.14590149645E-01 -0.10622655617E+00  0.48618298273E-01  0.88784046575E+00  0.88000000000E+00 0. -1.
        -11    1    4    4    0    0  0.79758418400E-02  0.68753244307E-01 -0.28394089950E-01  0.74813823061E-01  0.51100000000E-03 0. -1.
         11    1    4    4    0    0  0.15066379355E-01  0.55116299261E-01 -0.67870273348E-02  0.57542393869E-01  0.51100000000E-03 0.  1.
</event>
<event>
 8    1  0.1115874E+005  0.1043930E+01  0.7957747E-01            NaN
         13   -1    0    0    0    0  0.00000000000E+00  0.00000000000E+00  0.74505805969E-08  0.10566000000E+00  0.10566000000E+00 0. -1.
     999900   -1    0    0    0    0 -0.00000000000E+00 -0.00000000000E+00 -0.74505805969E-08  0.93827000000E+00  0.93827000000E+00 0. -1.
     999902    2    1    2    0    0  0.22255157575E-01 -0.99103758129E-02 -0.37707195308E-02  0.10192779025E+01  0.10189797429E+01 0.  0.
     999903    2    3    3    0    0 -0.11961800736E+00  0.35823480034E-01 -0.76983567741E-02  0.12673378207E+00  0.20258267849E-01 0.  0.
         14    1    1    2    0    0 -0.22255157575E-01  0.99103758129E-02  0.37707195308E-02  0.24652097542E-01  0.00000000000E+00 0. -1.
     999901    1    3    3    0    0  0.14187316493E+00 -0.45733855847E-01  0.39276372433E-02  0.89254412038E+00  0.88000000000E+00 0. -1.
        -11    1    4    4    0    0 -0.71305943793E-01  0.18554784026E-01  0.50837355222E-02  0.73857451339E-01  0.51100000000E-03 0. -1.
         11    1    4    4    0    0 -0.48312063562E-01  0.17268696008E-01 -0.12782092296E-01  0.52876330734E-01  0.51100000000E-03 0.  1.
</event>
<event>
 8    1  0.1115874E+005  0.1043930E+01  0.7957747E-01            NaN
         13   -1    0    0    0    0  0.00000000000E+00  0.00000000000E+00  0.74505805969E-08  0.10566000000E+00  0.10566000000E+00 0.  1.
     999900   -1    0    0    0    0 -0.00000000000E+00 -0.00000000000E+00 -0.74505805969E-08  0.93827000000E+00  0.93827000000E+00 0.  1.
     999902    2    1    2    0    0  0.51619737985E-02 -0.36140352412E-02  0.23330511651E-01  0.10197634943E+01  0.10194771034E+01 0.  0.
     999903    2    3    3    0    0  0.21508191743E-01 -0.70707086550E-01 -0.10278552865E+00  0.12809431125E+00  0.19524171524E-01 0.  0.
         14    1    1    2    0    0 -0.51619737985E-02  0.36140352412E-02 -0.23330511651E-01  0.24166505708E-01  0.00000000000E+00 0. -1.
     999901    1    3    3    0    0 -0.16346217944E-01  0.67093051309E-01  0.12611604030E+00  0.89166918305E+00  0.88000000000E+00 0. -1.
        -11    1    4    4    0    0  0.24923271722E-01 -0.59225361728E-01 -0.89770064073E-01  0.11039809088E+00  0.51100000000E-03 0. -1.
         11    1    4    4    0    0 -0.34150799795E-02 -0.11481724822E-01 -0.13015464574E-01  0.17696220365E-01  0.51100000000E-03 0.  1.
</event>
<event>
 8    1  0.1115874E+005  0.1043930E+01  0.7957747E-01            NaN
         13   -1    0    0    0    0  0.00000000000E+00  0.00000000000E+00  0.74505805969E-08  0.10566000000E+00  0.10566000000E+00 0.  1.
     999900   -1    0    0    0    0 -0.00000000000E+00 -0.00000000000E+00 -0.74505805969E-08  0.93827000000E+00  0.93827000000E+00 0.  1.
     999902    2    1    2    0    0 -0.50356951708E-02 -0.15053422003E-01  0.12978751031E-01  0.10234260560E+01  0.10232206411E+01 0.  0.
     999903    2    3    3    0    0 -0.34001297703E-03 -0.10830892375E+00 -0.76195184610E-01  0.13400454244E+00  0.20507868363E-01 0.  0.
         14    1    1    2    0    0  0.50356951708E-02  0.15053422003E-01 -0.12978751031E-01  0.20503943966E-01  0.00000000000E+00 0. -1.
     999901    1    3    3    0    0 -0.46956821938E-02  0.93255501749E-01  0.89173935641E-01  0.88942151359E+00  0.88000000000E+00 0. -1.
        -11    1    4    4    0    0  0.44225766815E-02 -0.22703557633E-01 -0.25360098671E-01  0.34327925065E-01  0.51100000000E-03 0. -1.
         11    1    4    4    0    0 -0.47625896585E-02 -0.85605366119E-01 -0.50835085939E-01  0.99676617379E-01  0.51100000000E-03 0.  1.
</event>
<event>
 8    1  0.1115874E+005  0.1043930E+01  0.7957747E-01            NaN
         13   -1    0    0    0    0  0.00000000000E+00  0.00000000000E+00  0.74505805969E-08  0.10566000000E+00  0.10566000000E+00 0. -1.
     999900   -1    0    0    0    0 -0.00000000000E+00 -0.00000000000E+00 -0.74505805969E-08  0.93827000000E+00  0.93827000000E+00 0.  1.
     999902    2    1    2    0    0  0.40997381612E-02 -0.17155807003E-01 -0.15847993908E-01  0.10202173772E+01  0.10199417671E+01 0.  0.
     999903    2    3    3    0    0 -0.19136872800E-02  0.10532575743E+00  0.69263779836E-01  0.12764698286E+00  0.19977578869E-01 0.  0.
         14    1    1    2    0    0 -0.40997381612E-02  0.17155807003E-01  0.15847993908E-01  0.23712622753E-01  0.00000000000E+00 0. -1.
     999901    1    3    3    0    0  0.60134254412E-02 -0.12248156444E+00 -0.85111773744E-01  0.89257039439E+00  0.88000000000E+00 0.  1.
        -11    1    4    4    0    0 -0.56870379680E-02  0.29938764112E-01  0.11414237728E-01  0.32545628606E-01  0.51100000000E-03 0.  1.
         11    1    4    4    0    0  0.37733506880E-02  0.75386993320E-01  0.57849542108E-01  0.95101354251E-01  0.51100000000E-03 0. -1.
</event>
<event>
 8    1  0.1115874E+005  0.1043930E+01  0.7957747E-01            NaN
         13   -1    0    0    0    0  0.00000000000E+00  0.00000000000E+00  0.74505805969E-08  0.10566000000E+00  0.10566000000E+00 0. -1.
     999900   -1    0    0    0    0 -0.00000000000E+00 -0.00000000000E+00 -0.74505805969E-08  0.93827000000E+00  0.93827000000E+00 0.  1.
     999902    2    1    2    0    0  0.20459669648E-01  0.53625378481E-02  0.57554538597E-02  0.10220101427E+01  0.10217750494E+01 0.  0.
     999903    2    3    3    0    0 -0.10781777201E-01  0.97695685035E-01  0.87447217905E-01  0.13286730696E+00  0.18601390921E-01 0.  0.
         14    1    1    2    0    0 -0.20459669648E-01 -0.53625378481E-02 -0.57554538597E-02  0.21919857285E-01  0.00000000000E+00 0. -1.
     999901    1    3    3    0    0  0.31241446848E-01 -0.92333147186E-01 -0.81691764045E-01  0.88914283576E+00  0.88000000000E+00 0.  1.
        -11    1    4    4    0    0 -0.16089329343E-01  0.74060506554E-01  0.65284431855E-01  0.10003071185E+00  0.51100000000E-03 0. -1.
         11    1    4    4    0    0  0.53075521422E-02  0.23635178480E-01  0.22162786050E-01  0.32836595104E-01  0.51100000000E-03 0.  1.
</event>
<event>
 8    1  0.1115874E+005  0.1043930E+01  0.7957747E-01            NaN
         13   -1    0    0    0    0  0.00000000000E+00  0.00000000000E+00  0.74505805969E-08  0.10566000000E+00  0.10566000000E+00 0. -1.
     999900   -1    0    0    0    0 -0.00000000000E+00 -0.00000000000E+00 -0.74505805969E-08  0.93827000000E+00  0.93827000000E+00 0.  1.
     999902    2    1    2    0    0 -0.13633452139E-01  0.21254929461E-01 -0.83440423576E-02  0.10173355253E+01  0.10169878588E+01 0.  0.
     999903    2    3    3    0    0  0.59265017978E-01 -0.83991795285E-01 -0.69906509548E-01  0.12594279623E+00  0.20191676818E-01 0.  0.
         14    1    1    2    0    0  0.13633452139E-01 -0.21254929461E-01  0.83440423576E-02  0.26594474736E-01  0.00000000000E+00 0. -1.
     999901    1    3    3    0    0 -0.72898470117E-01  0.10524672475E+00  0.61562467191E-01  0.89139272904E+00  0.88000000000E+00 0. -1.
        -11    1    4    4    0    0  0.20499057267E-01 -0.39297956018E-01 -0.39731662062E-01  0.59526521713E-01  0.51100000000E-03 0.  1.
         11    1    4    4    0    0  0.38765960712E-01 -0.44693839267E-01 -0.30174847486E-01  0.66416274513E-01  0.51100000000E-03 0. -1.
</event>
<event>
 8    1  0.1115874E+005  0.1043930E+01  0.7957747E-01            NaN
         13   -1    0    0    0    0  0.00000000000E+00  0.00000000000E+00  0.74505805969E-08  0.10566000000E+00  0.10566000000E+00 0. -1.
     999900   -1    0    0    0    0 -0.00000000000E+00 -0.00000000000E+00 -0.74505805969E-08  0.93827000000E+00  0.93827000000E+00 0.  1.
     999902    2    1    2    0    0 -0.18251979453E-01  0.12256738115E-01 -0.94956714082E-02  0.10199815103E+01  0.10197003242E+01 0.  0.
     999903    2    3    3    0    0  0.10609031891E+00  0.34751200044E-01  0.59418436985E-01  0.12828864709E+00  0.21555153600E-01 0.  0.
         14    1    1    2    0    0  0.18251979453E-01 -0.12256738115E-01  0.94956714082E-02  0.23948489695E-01  0.00000000000E+00 0. -1.
     999901    1    3    3    0    0 -0.12434229836E+00 -0.22494461928E-01 -0.68914108393E-01  0.89169286322E+00  0.88000000000E+00 0.  1.
        -11    1    4    4    0    0  0.52926237532E-02 -0.27782459946E-02  0.46392740612E-02  0.75838316051E-02  0.51100000000E-03 0. -1.
         11    1    4    4    0    0  0.10079769516E+00  0.37529446038E-01  0.54779162924E-01  0.12070481548E+00  0.51100000000E-03 0.  1.
</event>
<event>
 8    1  0.1115874E+005  0.1043930E+01  0.7957747E-01            NaN
         13   -1    0    0    0    0  0.00000000000E+00  0.00000000000E+00  0.74505805969E-08  0.10566000000E+00  0.10566000000E+00 0. -1.
     999900   -1    0    0    0    0 -0.00000000000E+00 -0.00000000000E+00 -0.74505805969E-08  0.93827000000E+00  0.93827000000E+00 0. -1.
     999902    2    1    2    0    0 -0.74571993497E-02  0.30895317729E-01 -0.12423936886E-01  0.10098054533E+01  0.10092287000E+01 0.  0.
     999903    2    3    3    0    0  0.85596562685E-02 -0.49136920442E-01  0.10570044224E+00  0.11816927876E+00  0.17426711843E-01 0.  0.
         14    1    1    2    0    0  0.74571993497E-02 -0.30895317729E-01  0.12423936886E-01  0.34124546700E-01  0.00000000000E+00 0. -1.
     999901    1    3    3    0    0 -0.16016855618E-01  0.80032238171E-01 -0.11812437913E+00  0.89163617454E+00  0.88000000000E+00 0. -1.
        -11    1    4    4    0    0  0.10962556340E-01 -0.23181604984E-01  0.40365860353E-01  0.47824975214E-01  0.51100000000E-03 0. -1.
         11    1    4    4    0    0 -0.24029000717E-02 -0.25955315457E-01  0.65334581889E-01  0.70344303543E-01  0.51100000000E-03 0.  1.
</event>
<event>
 8    1  0.1224898E+005  0.1043930E+01  0.7957747E-01            NaN
         13   -1    0    0    0    0  0.00000000000E+00  0.00000000000E+00  0.74505805969E-08  0.10566000000E+00  0.10566000000E+00 0. -1.
     999900   -1    0    0    0    0 -0.00000000000E+00 -0.00000000000E+00 -0.74505805969E-08  0.93827000000E+00  0.93827000000E+00 0.  1.
     999902    2    1    2    0    0  0.44399202611E-02 -0.17625756208E-01 -0.14881713384E-01  0.10204386065E+01  0.10201681744E+01 0.  0.
     999903    2    3    3    0    0 -0.11764804679E+00 -0.22318369360E-01 -0.52134405318E-01  0.13121689325E+00  0.12676921188E-01 0.  0.
         14    1    1    2    0    0 -0.44399202611E-02  0.17625756208E-01  0.14881713384E-01  0.23491393468E-01  0.00000000000E+00 0.  1.
     999901    1    3    3    0    0  0.12208796706E+00  0.46926131526E-02  0.37252691934E-01  0.88922171328E+00  0.88000000000E+00 0.  1.
        -11    1    4    4    0    0 -0.69994363564E-01 -0.14291749543E-01 -0.24375741696E-01  0.75484454955E-01  0.51100000000E-03 0. -1.
         11    1    4    4    0    0 -0.47653683230E-01 -0.80266198169E-02 -0.27758663622E-01  0.55732438294E-01  0.51100000000E-03 0.  1.
</event>
<event>
 8    1  0.1115874E+005  0.1043930E+01  0.7957747E-01            NaN
         13   -1    0    0    0    0  0.00000000000E+00  0.00000000000E+00  0.74505805969E-08  0.10566000000E+00  0.10566000000E+00 0. -1.
     999900   -1    0    0    0    0 -0.00000000000E+00 -0.00000000000E+00 -0.74505805969E-08  0.93827000000E+00  0.93827000000E+00 0. -1.
     999902    2    1    2    0    0  0.13563029881E-01 -0.18781005894E-01 -0.38042065965E-02  0.10204533318E+01  0.10201832426E+01 0.  0.
     999903    2    3    3    0    0 -0.60980989724E-01  0.28703279904E-01  0.10816003487E+00  0.12896717957E+00  0.19783348513E-01 0.  0.
         14    1    1    2    0    0 -0.13563029881E-01  0.18781005894E-01  0.38042065965E-02  0.23476668200E-01  0.00000000000E+00 0.  1.
     999901    1    3    3    0    0  0.74544019605E-01 -0.47484285798E-01 -0.11196424146E+00  0.89148615223E+00  0.88000000000E+00 0.  1.
        -11    1    4    4    0    0 -0.13252291423E-01  0.63843587223E-03  0.11473144753E-01  0.17547791879E-01  0.51100000000E-03 0.  1.
         11    1    4    4    0    0 -0.47728698301E-01  0.28064844032E-01  0.96686890113E-01  0.11141938769E+00  0.51100000000E-03 0. -1.
</event>
<event>
 8    1  0.1115874E+005  0.1043930E+01  0.7957747E-01            NaN
         13   -1    0    0    0    0  0.00000000000E+00  0.00000000000E+00  0.74505805969E-08  0.10566000000E+00  0.10566000000E+00 0.  1.
     999900   -1    0    0    0    0 -0.00000000000E+00 -0.00000000000E+00 -0.74505805969E-08  0.93827000000E+00  0.93827000000E+00 0.  1.
     999902    2    1    2    0    0  0.12257105992E-01  0.19938444632E-01 -0.77433567102E-02  0.10192776615E+01  0.10189794961E+01 0.  0.
     999903    2    3    3    0    0 -0.90759067942E-01  0.12457098163E-01 -0.89357050482E-01  0.12948605798E+00  0.19737503188E-01 0.  0.
         14    1    1    2    0    0 -0.12257105992E-01 -0.19938444632E-01  0.77433567102E-02  0.24652338526E-01  0.00000000000E+00 0.  1.
     999901    1    3    3    0    0  0.10301617393E+00  0.74813464688E-02  0.81613693772E-01  0.88979160349E+00  0.88000000000E+00 0. -1.
        -11    1    4    4    0    0 -0.64084706209E-01 -0.27210757061E-03 -0.63359503885E-01  0.90119983722E-01  0.51100000000E-03 0.  1.
         11    1    4    4    0    0 -0.26674361732E-01  0.12729205734E-01 -0.25997546597E-01  0.39366074258E-01  0.51100000000E-03 0. -1.
</event>
<event>
 8    1  0.1115874E+005  0.1043930E+01  0.7957747E-01            NaN
         13   -1    0    0    0    0  0.00000000000E+00  0.00000000000E+00  0.74505805969E-08  0.10566000000E+00  0.10566000000E+00 0. -1.
     999900   -1    0    0    0    0 -0.00000000000E+00 -0.00000000000E+00 -0.74505805969E-08  0.93827000000E+00  0.93827000000E+00 0.  1.
     999902    2    1    2    0    0 -0.94864369330E-02 -0.12697845065E-01 -0.14206686337E-01  0.10226448481E+01  0.10224233114E+01 0.  0.
     999903    2    3    3    0    0 -0.29933481335E-01 -0.38039786118E-01 -0.12466054337E+00  0.13514253816E+00  0.19499125983E-01 0.  0.
         14    1    1    2    0    0  0.94864369330E-02  0.12697845065E-01  0.14206686337E-01  0.21285151906E-01  0.00000000000E+00 0. -1.
     999901    1    3    3    0    0  0.20447044402E-01  0.25341941053E-01  0.11045385704E+00  0.88750230993E+00  0.88000000000E+00 0.  1.
        -11    1    4    4    0    0 -0.10988554826E-01 -0.27216429192E-01 -0.58094899662E-01  0.65090405153E-01  0.51100000000E-03 0.  1.
         11    1    4    4    0    0 -0.18944926509E-01 -0.10823356925E-01 -0.66565643711E-01  0.70052133009E-01  0.51100000000E-03 0. -1.
</event>
<event>
 8    1  0.1115874E+005  0.1043930E+01  0.7957747E-01            NaN
         13   -1    0    0    0    0  0.00000000000E+00  0.00000000000E+00  0.74505805969E-08  0.10566000000E+00  0.10566000000E+00 0. -1.
     999900   -1    0    0    0    0 -0.00000000000E+00 -0.00000000000E+00 -0.74505805969E-08  0.93827000000E+00  0.93827000000E+00 0. -1.
     999902    2    1    2    0    0 -0.12885644298E-01 -0.19587108773E-01 -0.83286542320E-02  0.10190490607E+01  0.10187452709E+01 0.  0.
     999903    2    3    3    0    0  0.47309474717E-02 -0.10218509172E+00 -0.81180099116E-01  0.13200898037E+00  0.19286979317E-01 0.  0.
         14    1    1    2    0    0  0.12885644298E-01  0.19587108773E-01  0.83286542320E-02  0.24880939299E-01  0.00000000000E+00 0. -1.
     999901    1    3    3    0    0 -0.17616591770E-01  0.82597982951E-01  0.72851444884E-01  0.88704008033E+00  0.88000000000E+00 0.  1.
        -11    1    4    4    0    0 -0.65260314584E-02 -0.23319317074E-01 -0.15471615924E-01  0.28740418503E-01  0.51100000000E-03 0.  1.
         11    1    4    4    0    0  0.11256978930E-01 -0.78865774649E-01 -0.65708483192E-01  0.10326856187E+00  0.51100000000E-03 0. -1.
</event>
<event>
 8    1  0.1115874E+005  0.1043930E+01  0.7957747E-01            NaN
         13   -1    0    0    0    0  0.00000000000E+00  0.00000000000E+00  0.74505805969E-08  0.10566000000E+00  0.10566000000E+00 0. -1.
     999900   -1    0    0    0    0 -0.00000000000E+00 -0.00000000000E+00 -0.74505805969E-08  0.93827000000E+00  0.93827000000E+00 0. -1.
     999902    2    1    2    0    0 -0.16177937080E-01 -0.12993742812E-01 -0.11231969860E-01  0.10203350822E+01  0.10200622333E+01 0.  0.
     999903    2    3    3    0    0 -0.12720532612E-01  0.51233804176E-01  0.11581612148E+00  0.12888774836E+00  0.20296872723E-01 0.  0.
         14    1    1    2    0    0  0.16177937080E-01  0.12993742812E-01  0.11231969860E-01  0.23594917829E-01  0.00000000000E+00 0. -1.
     999901    1    3    3    0    0 -0.34574044679E-02 -0.64227546988E-01 -0.12704809134E+00  0.89144733381E+00  0.88000000000E+00 0. -1.
        -11    1    4    4    0    0 -0.32820189489E-02  0.24989059755E-01  0.77473269031E-01  0.81471426226E-01  0.51100000000E-03 0.  1.
         11    1    4    4    0    0 -0.94385136627E-02  0.26244744421E-01  0.38342852453E-01  0.47416322138E-01  0.51100000000E-03 0. -1.
</event>
<event>
 8    1  0.1115874E+005  0.1043930E+01  0.7957747E-01            NaN
         13   -1    0    0    0    0  0.00000000000E+00  0.00000000000E+00  0.74505805969E-08  0.10566000000E+00  0.10566000000E+00 0.  1.
     999900   -1    0    0    0    0 -0.00000000000E+00 -0.00000000000E+00 -0.74505805969E-08  0.93827000000E+00  0.93827000000E+00 0. -1.
     999902    2    1    2    0    0  0.45992556740E-02 -0.16704188282E-01 -0.17306130212E-01  0.10194415292E+01  0.10191473624E+01 0.  0.
     999903    2    3    3    0    0  0.13915760400E-01 -0.82880676809E-01  0.96523603568E-01  0.12959697358E+00  0.20389078894E-01 0.  0.
         14    1    1    2    0    0 -0.45992556740E-02  0.16704188282E-01  0.17306130212E-01  0.24488470794E-01  0.00000000000E+00 0.  1.
     999901    1    3    3    0    0 -0.93165047263E-02  0.66176488528E-01 -0.11382973378E+00  0.88984455563E+00  0.88000000000E+00 0.  1.
        -11    1    4    4    0    0  0.18434447851E-01 -0.50436479482E-01  0.58769233733E-01  0.79609994879E-01  0.51100000000E-03 0.  1.
         11    1    4    4    0    0 -0.45186874506E-02 -0.32444197328E-01  0.37754369835E-01  0.49986978696E-01  0.51100000000E-03 0. -1.
</event>
<event>
 8    1  0.1115874E+005  0.1043930E+01  0.7957747E-01            NaN
         13   -1    0    0    0    0  0.00000000000E+00  0.00000000000E+00  0.74505805969E-08  0.10566000000E+00  0.10566000000E+00 0.  1.
     999900   -1    0    0    0    0 -0.00000000000E+00 -0.00000000000E+00 -0.74505805969E-08  0.93827000000E+00  0.93827000000E+00 0. -1.
     999902    2    1    2    0    0 -0.15843014379E-01  0.25450909915E-02  0.17369490270E-01  0.10202830597E+01  0.10200089922E+01 0.  0.
     999903    2    3    3    0    0  0.42422176599E-02 -0.91802031721E-01  0.91880977862E-01  0.13188182272E+00  0.22474243731E-01 0.  0.
         14    1    1    2    0    0  0.15843014379E-01 -0.25450909915E-02 -0.17369490270E-01  0.23646940289E-01  0.00000000000E+00 0. -1.
     999901    1    3    3    0    0 -0.20085232039E-01  0.94347122713E-01 -0.74511487592E-01  0.88840123699E+00  0.88000000000E+00 0. -1.
        -11    1    4    4    0    0  0.33126732668E-02 -0.63360649456E-01  0.47919605986E-01  0.79511605835E-01  0.51100000000E-03 0.  1.
         11    1    4    4    0    0  0.92954439315E-03 -0.28441382266E-01  0.43961371877E-01  0.52370216882E-01  0.51100000000E-03 0. -1.
</event>
<event>
 8    1  0.1115874E+005  0.1043930E+01  0.7957747E-01            NaN
         13   -1    0    0    0    0  0.00000000000E+00  0.00000000000E+00  0.74505805969E-08  0.10566000000E+00  0.10566000000E+00 0.  1.
     999900   -1    0    0    0    0 -0.00000000000E+00 -0.00000000000E+00 -0.74505805969E-08  0.93827000000E+00  0.93827000000E+00 0.  1.
     999902    2    1    2    0    0 -0.93632253096E-03  0.22931151745E-01 -0.30491450165E-02  0.10207780734E+01  0.10205154891E+01 0.  0.
     999903    2    3    3    0    0  0.31665486596E-01 -0.47245479926E-01 -0.11554297097E+00  0.13024873729E+00  0.19486328797E-01 0.  0.
         14    1    1    2    0    0  0.93632253096E-03 -0.22931151745E-01  0.30491450165E-02  0.23151926606E-01  0.00000000000E+00 0. -1.
     999901    1    3    3    0    0 -0.32601809127E-01  0.70176631671E-01  0.11249382595E+00  0.89052933611E+00  0.88000000000E+00 0. -1.
        -11    1    4    4    0    0  0.14765820322E-01 -0.11350908562E-01 -0.53023981830E-01  0.56202102674E-01  0.51100000000E-03 0. -1.
         11    1    4    4    0    0  0.16899666274E-01 -0.35894571364E-01 -0.62518989138E-01  0.74046634612E-01  0.51100000000E-03 0.  1.
</event>
<event>
 8    1  0.1115874E+005  0.1043930E+01  0.7957747E-01            NaN
         13   -1    0    0    0    0  0.00000000000E+00  0.00000000000E+00  0.74505805969E-08  0.10566000000E+00  0.10566000000E+00 0. -1.
     999900   -1    0    0    0    0 -0.00000000000E+00 -0.00000000000E+00 -0.74505805969E-08  0.93827000000E+00  0.93827000000E+00 0. -1.
     999902    2    1    2    0    0 -0.11261174427E-01  0.87965431804E-02 -0.18063651481E-01  0.10208976591E+01  0.10206378112E+01 0.  0.
     999903    2    3    3    0    0 -0.42400669802E-01 -0.10422329004E+00  0.61008249969E-01  0.12960897611E+00  0.20400223975E-01 0.  0.
         14    1    1    2    0    0  0.11261174427E-01 -0.87965431804E-02  0.18063651481E-01  0.23032340876E-01  0.00000000000E+00 0. -1.
     999901    1    3    3    0    0  0.31139495375E-01  0.11301983322E+00 -0.79071901449E-01  0.89128868302E+00  0.88000000000E+00 0. -1.
        -11    1    4    4    0    0 -0.94099373018E-02 -0.47520040776E-01  0.30598632039E-01  0.57299551473E-01  0.51100000000E-03 0.  1.
         11    1    4    4    0    0 -0.32990732501E-01 -0.56703249259E-01  0.30409617930E-01  0.72309424635E-01  0.51100000000E-03 0. -1.
</event>
<event>
 8    1  0.1115874E+005  0.1043930E+01  0.7957747E-01            NaN
         13   -1    0    0    0    0  0.00000000000E+00  0.00000000000E+00  0.74505805969E-08  0.10566000000E+00  0.10566000000E+00 0.  1.
     999900   -1    0    0    0    0 -0.00000000000E+00 -0.00000000000E+00 -0.74505805969E-08  0.93827000000E+00  0.93827000000E+00 0.  1.
     999902    2    1    2    0    0 -0.15170904560E-01 -0.57295800233E-02 -0.17424394948E-01  0.10201267655E+01  0.10198490201E+01 0.  0.
     999903    2    3    3    0    0  0.54001008402E-01  0.67101179713E-01  0.91787748250E-01  0.12770513572E+00  0.21562322094E-01 0.  0.
         14    1    1    2    0    0  0.15170904560E-01  0.57295800233E-02  0.17424394948E-01  0.23803234480E-01  0.00000000000E+00 0.  1.
     999901    1    3    3    0    0 -0.69171912962E-01 -0.72830759736E-01 -0.10921214320E+00  0.89242162980E+00  0.88000000000E+00 0.  1.
        -11    1    4    4    0    0  0.40705579890E-01  0.61420895458E-01  0.81968247391E-01  0.11022034900E+00  0.51100000000E-03 0. -1.
         11    1    4    4    0    0  0.13295428512E-01  0.56802842548E-02  0.98195008591E-02  0.17484786721E-01  0.51100000000E-03 0.  1.
</event>
<event>
 8    1  0.1115874E+005  0.1043930E+01  0.7957747E-01            NaN
         13   -1    0    0    0    0  0.00000000000E+00  0.00000000000E+00  0.74505805969E-08  0.10566000000E+00  0.10566000000E+00 0. -1.
     999900   -1    0    0    0    0 -0.00000000000E+00 -0.00000000000E+00 -0.74505805969E-08  0.93827000000E+00  0.93827000000E+00 0. -1.
     999902    2    1    2    0    0  0.76411532674E-02 -0.20290911549E-01  0.90622472689E-02  0.10204303694E+01  0.10201597454E+01 0.  0.
     999903    2    3    3    0    0  0.68540305633E-01  0.30914743794E-01 -0.10374979333E+00  0.12966817752E+00  0.19907831768E-01 0.  0.
         14    1    1    2    0    0 -0.76411532674E-02  0.20290911549E-01 -0.90622472689E-02  0.23499630642E-01  0.00000000000E+00 0.  1.
     999901    1    3    3    0    0 -0.60899152366E-01 -0.51205655344E-01  0.11281204060E+00  0.89076219183E+00  0.88000000000E+00 0.  1.
        -11    1    4    4    0    0  0.17528854110E-02  0.56514969747E-03 -0.12211305084E-01  0.12359979542E-01  0.51100000000E-03 0. -1.
         11    1    4    4    0    0  0.66787420222E-01  0.30349594097E-01 -0.91538488248E-01  0.11730819798E+00  0.51100000000E-03 0.  1.
</event>
<event>
 8    1  0.1115874E+005  0.1043930E+01  0.7957747E-01            NaN
         13   -1    0    0    0    0  0.00000000000E+00  0.00000000000E+00  0.74505805969E-08  0.10566000000E+00  0.10566000000E+00 0.  1.
     999900   -1    0    0    0    0 -0.00000000000E+00 -0.00000000000E+00 -0.74505805969E-08  0.93827000000E+00  0.93827000000E+00 0. -1.
     999902    2    1    2    0    0  0.20527625564E-02 -0.75955138386E-02  0.21389777167E-01  0.10211390318E+01  0.10208846624E+01 0.  0.
     999903    2    3    3    0    0 -0.28751539814E-01 -0.12726328942E+00  0.13547057904E-01  0.13247104553E+00  0.18505654593E-01 0.  0.
         14    1    1    2    0    0 -0.20527625564E-02  0.75955138386E-02 -0.21389777167E-01  0.22790968207E-01  0.00000000000E+00 0. -1.
     999901    1    3    3    0    0  0.30804302371E-01  0.11966777558E+00  0.78427192626E-02  0.88866798626E+00  0.88000000000E+00 0.  1.
        -11    1    4    4    0    0 -0.49681151415E-02 -0.17044199753E-01 -0.43920883935E-02  0.18295859497E-01  0.51100000000E-03 0. -1.
         11    1    4    4    0    0 -0.23783424673E-01 -0.11021908966E+00  0.17939146298E-01  0.11417518604E+00  0.51100000000E-03 0.  1.
</event>
<event>
 8    1  0.1115874E+005  0.1043930E+01  0.7957747E-01            NaN
         13   -1    0    0    0    0  0.00000000000E+00  0.00000000000E+00  0.74505805969E-08  0.10566000000E+00  0.10566000000E+00 0.  1.
     999900   -1    0    0    0    0 -0.00000000000E+00 -0.00000000000E+00 -0.74505805969E-08  0.93827000000E+00  0.93827000000E+00 0. -1.
     999902    2    1    2    0    0 -0.64306534290E-02  0.15812062617E-01 -0.15539658444E-01  0.10208463345E+01  0.10205853140E+01 0.  0.
     999903    2    3    3    0    0  0.12225772452E+00 -0.14532963706E-01  0.35123530481E-01  0.12952805356E+00  0.19639145262E-01 0.  0.
         14    1    1    2    0    0  0.64306534290E-02 -0.15812062617E-01  0.15539658444E-01  0.23083665487E-01  0.00000000000E+00 0.  1.
     999901    1    3    3    0    0 -0.12868837795E+00  0.30345026323E-01 -0.50663188925E-01  0.89131828095E+00  0.88000000000E+00 0. -1.
        -11    1    4    4    0    0  0.38878319931E-01 -0.54684455901E-02  0.18845881951E-02  0.39309546570E-01  0.51100000000E-03 0. -1.
         11    1    4    4    0    0  0.83379404593E-01 -0.90645181160E-02  0.33238942286E-01  0.90218506994E-01  0.51100000000E-03 0.  1.
</event>
<event>
 8    1  0.1115874E+005  0.1043930E+01  0.7957747E-01            NaN
         13   -1    0    0    0    0  0.00000000000E+00  0.00000000000E+00  0.74505805969E-08  0.10566000000E+00  0.10566000000E+00 0. -1.
     999900   -1    0    0    0    0 -0.00000000000E+00 -0.00000000000E+00 -0.74505805969E-08  0.93827000000E+00  0.93827000000E+00 0.  1.
     999902    2    1    2    0    0 -0.57598749837E-02  0.17337268678E-01 -0.15134170764E-01  0.10202065903E+01  0.10199307264E+01 0.  0.
     999903    2    3    3    0    0  0.99413751130E-01  0.71848704971E-01 -0.44454362653E-01  0.13178514637E+00  0.18595809314E-01 0.  0.
         14    1    1    2    0    0  0.57598749837E-02 -0.17337268678E-01  0.15134170764E-01  0.23723409741E-01  0.00000000000E+00 0. -1.
     999901    1    3    3    0    0 -0.10517362611E+00 -0.54511436293E-01  0.29320191889E-01  0.88842144389E+00  0.88000000000E+00 0. -1.
        -11    1    4    4    0    0  0.55491094550E-01  0.51014857949E-01 -0.24924864058E-01  0.79393244519E-01  0.51100000000E-03 0.  1.
         11    1    4    4    0    0  0.43922656580E-01  0.20833847022E-01 -0.19529498595E-01  0.52391901847E-01  0.51100000000E-03 0. -1.
</event>
<event>
 8    1  0.1115874E+005  0.1043930E+01  0.7957747E-01            NaN
         13   -1    0    0    0    0  0.00000000000E+00  0.00000000000E+00  0.74505805969E-08  0.10566000000E+00  0.10566000000E+00 0. -1.
     999900   -1    0    0    0    0 -0.00000000000E+00 -0.00000000000E+00 -0.74505805969E-08  0.93827000000E+00  0.93827000000E+00 0. -1.
     999902    2    1    2    0    0 -0.65527083186E-02 -0.54287318775E-02 -0.22531694476E-01  0.10198450177E+01  0.10195605788E+01 0.  0.
     999903    2    3    3    0    0  0.10503571242E-02  0.12664426696E+00 -0.21168046207E-01  0.12995573068E+00  0.20013299423E-01 0.  0.
         14    1    1    2    0    0  0.65527083186E-02  0.54287318775E-02  0.22531694476E-01  0.24084982293E-01  0.00000000000E+00 0. -1.
     999901    1    3    3    0    0 -0.76030654428E-02 -0.13207299883E+00 -0.13636482691E-02  0.88988928702E+00  0.88000000000E+00 0.  1.
        -11    1    4    4    0    0  0.32436401467E-03  0.47860943905E-01 -0.17891400899E-01  0.51099300491E-01  0.51100000000E-03 0.  1.
         11    1    4    4    0    0  0.72599310954E-03  0.78783323051E-01 -0.32766453079E-02  0.78856430191E-01  0.51100000000E-03 0. -1.
</event>
<event>
 8    1  0.1115874E+005  0.1043930E+01  0.7957747E-01            NaN
         13   -1    0    0    0    0  0.00000000000E+00  0.00000000000E+00  0.74505805969E-08  0.10566000000E+00  0.10566000000E+00 0. -1.
     999900   -1    0    0    0    0 -0.00000000000E+00 -0.00000000000E+00 -0.74505805969E-08  0.93827000000E+00  0.93827000000E+00 0.  1.
     999902    2    1    2    0    0  0.65366538605E-02 -0.18050564232E-01 -0.14702739631E-01  0.10197489896E+01  0.10194622506E+01 0.  0.
     999903    2    3    3    0    0  0.12840247768E+00  0.12032191265E-01  0.75399676799E-02  0.13056341320E+00  0.18920461239E-01 0.  0.
         14    1    1    2    0    0 -0.65366538605E-02  0.18050564232E-01  0.14702739631E-01  0.24181010430E-01  0.00000000000E+00 0.  1.
     999901    1    3    3    0    0 -0.12186582382E+00 -0.30082755497E-01 -0.22242707311E-01  0.88918557637E+00  0.88000000000E+00 0.  1.
        -11    1    4    4    0    0  0.45044848384E-01 -0.21446617801E-02 -0.37615406051E-02  0.45255367072E-01  0.51100000000E-03 0.  1.
         11    1    4    4    0    0  0.83357629294E-01  0.14176853045E-01  0.11301508285E-01  0.85308046129E-01  0.51100000000E-03 0. -1.
</event>
<event>
 8    1  0.1115874E+005  0.1043930E+01  0.7957747E-01            NaN
         13   -1    0    0    0    0  0.00000000000E+00  0.00000000000E+00  0.74505805969E-08  0.10566000000E+00  0.10566000000E+00 0. -1.
     999900   -1    0    0    0    0 -0.00000000000E+00 -0.00000000000E+00 -0.74505805969E-08  0.93827000000E+00  0.93827000000E+00 0. -1.
     999902    2    1    2    0    0  0.19761582828E-01  0.69450704867E-02 -0.12028619350E-01  0.10197754592E+01  0.10194893551E+01 0.  0.
     999903    2    3    3    0    0  0.45427788137E-01  0.25799551523E-01 -0.12077968616E+00  0.13250941107E+00  0.15547046007E-01 0.  0.
         14    1    1    2    0    0 -0.19761582828E-01 -0.69450704867E-02  0.12028619350E-01  0.24154540844E-01  0.00000000000E+00 0. -1.
     999901    1    3    3    0    0 -0.25666205309E-01 -0.18854481037E-01  0.10875106681E+00  0.88726604808E+00  0.88000000000E+00 0.  1.
        -11    1    4    4    0    0  0.22293839077E-01  0.10618897678E-01 -0.75548800982E-01  0.79483700842E-01  0.51100000000E-03 0. -1.
         11    1    4    4    0    0  0.23133949060E-01  0.15180653846E-01 -0.45230885179E-01  0.53025710230E-01  0.51100000000E-03 0.  1.
</event>
<event>
 8    1  0.1115874E+005  0.1043930E+01  0.7957747E-01            NaN
         13   -1    0    0    0    0  0.00000000000E+00  0.00000000000E+00  0.74505805969E-08  0.10566000000E+00  0.10566000000E+00 0.  1.
     999900   -1    0    0    0    0 -0.00000000000E+00 -0.00000000000E+00 -0.74505805969E-08  0.93827000000E+00  0.93827000000E+00 0. -1.
     999902    2    1    2    0    0 -0.46567325010E-02  0.91769666003E-02 -0.21831588022E-01  0.10197945466E+01  0.10195089000E+01 0.  0.
     999903    2    3    3    0    0  0.45718894638E-01  0.11482529763E+00  0.35593068441E-01  0.13018965410E+00  0.20184479426E-01 0.  0.
         14    1    1    2    0    0  0.46567325010E-02 -0.91769666003E-02  0.21831588022E-01  0.24135453365E-01  0.00000000000E+00 0.  1.
     999901    1    3    3    0    0 -0.50375627139E-01 -0.10564833103E+00 -0.57424656464E-01  0.88960489254E+00  0.88000000000E+00 0. -1.
        -11    1    4    4    0    0  0.26006770932E-01  0.56959880387E-01  0.27977765396E-01  0.68584229860E-01  0.51100000000E-03 0. -1.
         11    1    4    4    0    0  0.19712123706E-01  0.57865417243E-01  0.76153030454E-02  0.61605424235E-01  0.51100000000E-03 0.  1.
</event>
<event>
 8    1  0.1115874E+005  0.1043930E+01  0.7957747E-01            NaN
         13   -1    0    0    0    0  0.00000000000E+00  0.00000000000E+00  0.74505805969E-08  0.10566000000E+00  0.10566000000E+00 0. -1.
     999900   -1    0    0    0    0 -0.00000000000E+00 -0.00000000000E+00 -0.74505805969E-08  0.93827000000E+00  0.93827000000E+00 0.  1.
     999902    2    1    2    0    0  0.56264748568E-02  0.82257329514E-02 -0.21466764095E-01  0.10202626837E+01  0.10199881381E+01 0.  0.
     999903    2    3    3    0    0  0.10517093601E+00 -0.55427378135E-01  0.48143510373E-01  0.12964132270E+00  0.18866767906E-01 0.  0.
         14    1    1    2    0    0 -0.56264748568E-02 -0.82257329514E-02  0.21466764095E-01  0.23667316338E-01  0.00000000000E+00 0. -1.
     999901    1    3    3    0    0 -0.99544461153E-01  0.63653111087E-01 -0.69610274469E-01  0.89062136097E+00  0.88000000000E+00 0. -1.
        -11    1    4    4    0    0  0.25506421237E-01 -0.14811963818E-01  0.35366713601E-02  0.29710956932E-01  0.51100000000E-03 0. -1.
         11    1    4    4    0    0  0.79664514773E-01 -0.40615414317E-01  0.44606839013E-01  0.99930365765E-01  0.51100000000E-03 0.  1.
</event>
<event>
 8    1  0.1115874E+005  0.1043930E+01  0.7957747E-01            NaN
         13   -1    0    0    0    0  0.00000000000E+00  0.00000000000E+00  0.74505805969E-08  0.10566000000E+00  0.10566000000E+00 0.  1.
     999900   -1    0    0    0    0 -0.00000000000E+00 -0.00000000000E+00 -0.74505805969E-08  0.93827000000E+00  0.93827000000E+00 0.  1.
     999902    2    1    2    0    0  0.22961486122E-01  0.29383477052E-02 -0.93502328312E-03  0.10207623933E+01  0.10204994491E+01 0.  0.
     999903    2    3    3    0    0 -0.48015990401E-01  0.11815111319E+00  0.16029956030E-01  0.13025714680E+00  0.21088952565E-01 0.  0.
         14    1    1    2    0    0 -0.22961486122E-01 -0.29383477052E-02  0.93502328312E-03  0.23167606711E-01  0.00000000000E+00 0.  1.
     999901    1    3    3    0    0  0.70977476523E-01 -0.11521276548E+00 -0.16964979313E-01  0.89050524649E+00  0.88000000000E+00 0.  1.
        -11    1    4    4    0    0 -0.22755443554E-01  0.73835924492E-01  0.17510651891E-01  0.79223973692E-01  0.51100000000E-03 0.  1.
         11    1    4    4    0    0 -0.25260546847E-01  0.44315188695E-01 -0.14806958610E-02  0.51033173106E-01  0.51100000000E-03 0. -1.
</event>
<event>
 8    1  0.1115874E+005  0.1043930E+01  0.7957747E-01            NaN
         13   -1    0    0    0    0  0.00000000000E+00  0.00000000000E+00  0.74505805969E-08  0.10566000000E+00  0.10566000000E+00 0.  1.
     999900   -1    0    0    0    0 -0.00000000000E+00 -0.00000000000E+00 -0.74505805969E-08  0.93827000000E+00  0.93827000000E+00 0. -1.
     999902    2    1    2    0    0 -0.45643307530E-02 -0.46606655666E-02 -0.21087253504E-01  0.10218567769E+01  0.10216183462E+01 0.  0.
     999903    2    3    3    0    0  0.12453859956E+00  0.36247531729E-01 -0.38916346135E-02  0.13133067589E+00  0.20220169969E-01 0.  0.
         14    1    1    2    0    0  0.45643307530E-02  0.46606655666E-02  0.21087253504E-01  0.22073223124E-01  0.00000000000E+00 0.  1.
     999901    1    3    3    0    0 -0.12910293031E+00 -0.40908197295E-01 -0.17195618890E-01  0.89052610098E+00  0.88000000000E+00 0. -1.
        -11    1    4    4    0    0  0.26292913483E-01  0.24828085111E-02 -0.72418882155E-02  0.27389554641E-01  0.51100000000E-03 0. -1.
         11    1    4    4    0    0  0.98245686078E-01  0.33764723217E-01  0.33502536020E-02  0.10394112125E+00  0.51100000000E-03 0.  1.
</event>
<event>
 8    1  0.1115874E+005  0.1043930E+01  0.7957747E-01            NaN
         13   -1    0    0    0    0  0.00000000000E+00  0.00000000000E+00  0.74505805969E-08  0.10566000000E+00  0.10566000000E+00 0.  1.
     999900   -1    0    0    0    0 -0.00000000000E+00 -0.00000000000E+00 -0.74505805969E-08  0.93827000000E+00  0.93827000000E+00 0. -1.
     999902    2    1    2    0    0  0.93715221710E-02  0.10841597926E-01  0.18986842782E-01  0.10201420646E+01  0.10198646803E+01 0.  0.
     999903    2    3    3    0    0  0.38730459514E-01  0.18104967716E-01 -0.11979252325E+00  0.12875302706E+00  0.19981366386E-01 0.  0.
         14    1    1    2    0    0 -0.93715221710E-02 -0.10841597926E-01 -0.18986842782E-01  0.23787935434E-01  0.00000000000E+00 0. -1.
     999901    1    3    3    0    0 -0.29358937343E-01 -0.72633697900E-02  0.13877936603E+00  0.89138903750E+00  0.88000000000E+00 0.  1.
        -11    1    4    4    0    0  0.16505427629E-01  0.11455440520E-01 -0.30738865099E-01  0.36725947330E-01  0.51100000000E-03 0.  1.
         11    1    4    4    0    0  0.22225031885E-01  0.66495271962E-02 -0.89053658146E-01  0.92027079734E-01  0.51100000000E-03 0. -1.
</event>
<event>
 8    1  0.1115874E+005  0.1043930E+01  0.7957747E-01            NaN
         13   -1    0    0    0    0  0.00000000000E+00  0.00000000000E+00  0.74505805969E-08  0.10566000000E+00  0.10566000000E+00 0.  1.
     999900   -1    0    0    0    0 -0.00000000000E+00 -0.00000000000E+00 -0.74505805969E-08  0.93827000000E+00  0.93827000000E+00 0.  1.
     999902    2    1    2    0    0 -0.12743638399E-01 -0.19813297948E-01  0.42061041394E-03  0.10203685058E+01  0.10200964384E+01 0.  0.
     999903    2    3    3    0    0 -0.14288398252E-01  0.29172843873E-01 -0.12449213359E+00  0.13019704930E+00  0.19944101300E-01 0.  0.
         14    1    1    2    0    0  0.12743638399E-01  0.19813297948E-01 -0.42061041394E-03  0.23561494188E-01  0.00000000000E+00 0.  1.
     999901    1    3    3    0    0  0.15447598532E-02 -0.48986141822E-01  0.12491274400E+00  0.89017145651E+00  0.88000000000E+00 0. -1.
        -11    1    4    4    0    0 -0.13858883102E-01  0.23901264420E-01 -0.67210259295E-01  0.72669244920E-01  0.51100000000E-03 0.  1.
         11    1    4    4    0    0 -0.42951515039E-03  0.52715794532E-02 -0.57281874295E-01  0.57527804381E-01  0.51100000000E-03 0. -1.
</event>
<event>
 8    1  0.1115874E+005  0.1043930E+01  0.7957747E-01            NaN
         13   -1    0    0    0    0  0.00000000000E+00  0.00000000000E+00  0.74505805969E-08  0.10566000000E+00  0.10566000000E+00 0.  1.
     999900   -1    0    0    0    0 -0.00000000000E+00 -0.00000000000E+00 -0.74505805969E-08  0.93827000000E+00  0.93827000000E+00 0.  1.
     999902    2    1    2    0    0 -0.20653935846E-01 -0.89000436132E-02 -0.76469783980E-02  0.10201755873E+01  0.10198989935E+01 0.  0.
     999903    2    3    3    0    0  0.10487500000E+00  0.53925412579E-01  0.44266526772E-01  0.12753928755E+00  0.20000718222E-01 0.  0.
         14    1    1    2    0    0  0.20653935846E-01  0.89000436132E-02  0.76469783980E-02  0.23754412661E-01  0.00000000000E+00 0.  1.
     999901    1    3    3    0    0 -0.12552893585E+00 -0.62825456192E-01 -0.51913505170E-01  0.89263629979E+00  0.88000000000E+00 0.  1.
        -11    1    4    4    0    0  0.71433740814E-01  0.39846903963E-01  0.21057345453E-01  0.84464359351E-01  0.51100000000E-03 0.  1.
         11    1    4    4    0    0  0.33441259188E-01  0.14078508616E-01  0.23209181319E-01  0.43074928199E-01  0.51100000000E-03 0. -1.
</event>
<event>
 8    1  0.1115874E+005  0.1043930E+01  0.7957747E-01            NaN
         13   -1    0    0    0    0  0.00000000000E+00  0.00000000000E+00  0.74505805969E-08  0.10566000000E+00  0.10566000000E+00 0. -1.
     999900   -1    0    0    0    0 -0.00000000000E+00 -0.00000000000E+00 -0.74505805969E-08  0.93827000000E+00  0.93827000000E+00 0. -1.
     999902    2    1    2    0    0  0.13391388574E-01 -0.27203298792E-02  0.19684807591E-01  0.10199670884E+01  0.10196855595E+01 0.  0.
     999903    2    3    3    0    0 -0.34432075760E-01 -0.45882991576E-01  0.11747294288E+00  0.13221001661E+00  0.19717490359E-01 0.  0.
         14    1    1    2    0    0 -0.13391388574E-01  0.27203298792E-02 -0.19684807591E-01  0.23962911603E-01  0.00000000000E+00 0.  1.
     999901    1    3    3    0    0  0.47823464334E-01  0.43162661697E-01 -0.97788135288E-01  0.88775707179E+00  0.88000000000E+00 0. -1.
        -11    1    4    4    0    0 -0.35227222017E-01 -0.41161972720E-01  0.96288212878E-01  0.11048504980E+00  0.51100000000E-03 0. -1.
         11    1    4    4    0    0  0.79514625727E-03 -0.47210188564E-02  0.21184730001E-01  0.21724966809E-01  0.51100000000E-03 0.  1.
</event>
<event>
 8    1  0.1115874E+005  0.1043930E+01  0.7957747E-01            NaN
         13   -1    0    0    0    0  0.00000000000E+00  0.00000000000E+00  0.74505805969E-08  0.10566000000E+00  0.10566000000E+00 0. -1.
     999900   -1    0    0    0    0 -0.00000000000E+00 -0.00000000000E+00 -0.74505805969E-08  0.93827000000E+00  0.93827000000E+00 0. -1.
     999902    2    1    2    0    0  0.17142881360E-01 -0.14916200448E-01 -0.71799530822E-02  0.10200988619E+01  0.10198204572E+01 0.  0.
     999903    2    3    3    0    0 -0.11106005072E+00 -0.18619756264E-01 -0.60246847991E-01  0.12921963133E+00  0.19672321641E-01 0.  0.
         14    1    1    2    0    0 -0.17142881360E-01  0.14916200448E-01  0.71799530822E-02  0.23831138105E-01  0.00000000000E+00 0. -1.
     999901    1    3    3    0    0  0.12820293208E+00  0.37035558164E-02  0.53066894909E-01  0.89087923057E+00  0.88000000000E+00 0.  1.
        -11    1    4    4    0    0 -0.51993714252E-01 -0.28157717172E-02 -0.36655944499E-01  0.63680407349E-01  0.51100000000E-03 0. -1.
         11    1    4    4    0    0 -0.59066336467E-01 -0.15803984547E-01 -0.23590903492E-01  0.65539223979E-01  0.51100000000E-03 0.  1.
</event>
<event>
 8    1  0.1115874E+005  0.1043930E+01  0.7957747E-01            NaN
         13   -1    0    0    0    0  0.00000000000E+00  0.00000000000E+00  0.74505805969E-08  0.10566000000E+00  0.10566000000E+00 0. -1.
     999900   -1    0    0    0    0 -0.00000000000E+00 -0.00000000000E+00 -0.74505805969E-08  0.93827000000E+00  0.93827000000E+00 0.  1.
     999902    2    1    2    0    0 -0.64061633778E-02 -0.13448960141E-01 -0.18687852509E-01  0.10200312701E+01  0.10197512651E+01 0.  0.
     999903    2    3    3    0    0 -0.60313055282E-01  0.67824473367E-01 -0.92970245780E-01  0.13153298767E+00  0.20485029139E-01 0.  0.
         14    1    1    2    0    0  0.64061633778E-02  0.13448960141E-01  0.18687852509E-01  0.23898729872E-01  0.00000000000E+00 0. -1.
     999901    1    3    3    0    0  0.53906891904E-01 -0.81273433508E-01  0.74282393271E-01  0.88849828246E+00  0.88000000000E+00 0. -1.
        -11    1    4    4    0    0 -0.44721689485E-01  0.44985134162E-01 -0.51611997934E-01  0.81778672389E-01  0.51100000000E-03 0. -1.
         11    1    4    4    0    0 -0.15591365796E-01  0.22839339205E-01 -0.41358247845E-01  0.49754315276E-01  0.51100000000E-03 0.  1.
</event>
<event>
 8    1  0.1115874E+005  0.1043930E+01  0.7957747E-01            NaN
         13   -1    0    0    0    0  0.00000000000E+00  0.00000000000E+00  0.74505805969E-08  0.10566000000E+00  0.10566000000E+00 0. -1.
     999900   -1    0    0    0    0 -0.00000000000E+00 -0.00000000000E+00 -0.74505805969E-08  0.93827000000E+00  0.93827000000E+00 0. -1.
     999902    2    1    2    0    0  0.13648333711E-01  0.19155869753E-01 -0.47370198452E-02  0.10199370069E+01  0.10196547624E+01 0.  0.
     999903    2    3    3    0    0 -0.47975683879E-01 -0.10575847304E+00  0.49448846852E-01  0.12733562853E+00  0.16812286438E-01 0.  0.
         14    1    1    2    0    0 -0.13648333711E-01 -0.19155869753E-01  0.47370198452E-02  0.23992993062E-01  0.00000000000E+00 0. -1.
     999901    1    3    3    0    0  0.61624017590E-01  0.12491434279E+00 -0.54185866698E-01  0.89260137840E+00  0.88000000000E+00 0. -1.
        -11    1    4    4    0    0 -0.39777017099E-01 -0.97881431428E-01  0.47267783369E-01  0.11574752772E+00  0.51100000000E-03 0. -1.
         11    1    4    4    0    0 -0.81986667798E-02 -0.78770416140E-02  0.21810634835E-02  0.11588100814E-01  0.51100000000E-03 0.  1.
</event>
<event>
 8    1  0.1115874E+005  0.1043930E+01  0.7957747E-01            NaN
         13   -1    0    0    0    0  0.00000000000E+00  0.00000000000E+00  0.74505805969E-08  0.10566000000E+00  0.10566000000E+00 0. -1.
     999900   -1    0    0    0    0 -0.00000000000E+00 -0.00000000000E+00 -0.74505805969E-08  0.93827000000E+00  0.93827000000E+00 0.  1.
     999902    2    1    2    0    0  0.38852246107E-02  0.63339312595E-03  0.26032370233E-01  0.10176016796E+01  0.10172610274E+01 0.  0.
     999903    2    3    3    0    0  0.84369495108E-01  0.67792806689E-01 -0.63110226860E-01  0.12690840618E+00  0.20217974227E-01 0.  0.
         14    1    1    2    0    0 -0.38852246107E-02 -0.63339312595E-03 -0.26032370233E-01  0.26328320438E-01  0.00000000000E+00 0.  1.
     999901    1    3    3    0    0 -0.80484270497E-01 -0.67159413563E-01  0.89142597094E-01  0.89069327338E+00  0.88000000000E+00 0.  1.
        -11    1    4    4    0    0  0.44755867270E-01  0.23408618742E-01 -0.31676908735E-01  0.59621629922E-01  0.51100000000E-03 0.  1.
         11    1    4    4    0    0  0.39613627837E-01  0.44384187946E-01 -0.31433318125E-01  0.67286776260E-01  0.51100000000E-03 0. -1.
</event>
<event>
 8    1  0.1115874E+005  0.1043930E+01  0.7957747E-01            NaN
         13   -1    0    0    0    0  0.00000000000E+00  0.00000000000E+00  0.74505805969E-08  0.10566000000E+00  0.10566000000E+00 0.  1.
     999900   -1    0    0    0    0 -0.00000000000E+00 -0.00000000000E+00 -0.74505805969E-08  0.93827000000E+00  0.93827000000E+00 0.  1.
     999902    2    1    2    0    0 -0.11750876021E-01  0.19100600084E-01 -0.99576032660E-02  0.10193928878E+01  0.10190975370E+01 0.  0.
     999903    2    3    3    0    0  0.75836681111E-01  0.38341145108E-01 -0.96958438544E-01  0.13056730085E+00  0.20630938791E-01 0.  0.
         14    1    1    2    0    0  0.11750876021E-01 -0.19100600084E-01  0.99576032660E-02  0.24537112170E-01  0.00000000000E+00 0. -1.
     999901    1    3    3    0    0 -0.87587557132E-01 -0.19240545023E-01  0.87000835278E-01  0.88882558698E+00  0.88000000000E+00 0. -1.
        -11    1    4    4    0    0  0.49345224106E-01  0.18398369868E-01 -0.46907710992E-01  0.70526914206E-01  0.51100000000E-03 0.  1.
         11    1    4    4    0    0  0.26491457005E-01  0.19942775240E-01 -0.50050727552E-01  0.60040386641E-01  0.51100000000E-03 0. -1.
</event>
<event>
 8    1  0.1115874E+005  0.1043930E+01  0.7957747E-01            NaN
         13   -1    0    0    0    0  0.00000000000E+00  0.00000000000E+00  0.74505805969E-08  0.10566000000E+00  0.10566000000E+00 0. -1.
     999900   -1    0    0    0    0 -0.00000000000E+00 -0.00000000000E+00 -0.74505805969E-08  0.93827000000E+00  0.93827000000E+00 0. -1.
     999902    2    1    2    0    0 -0.12119438357E-01 -0.18699301050E-01  0.10535614047E-02  0.10216218258E+01  0.10213782356E+01 0.  0.
     999903    2    3    3    0    0  0.90777259934E-01 -0.88445083991E-01 -0.32150330472E-01  0.13226548369E+00  0.19936665312E-01 0.  0.
         14    1    1    2    0    0  0.12119438357E-01  0.18699301050E-01 -0.10535614047E-02  0.22308174230E-01  0.00000000000E+00 0.  1.
     999901    1    3    3    0    0 -0.10289669829E+00  0.69745782941E-01  0.33203891876E-01  0.88935634208E+00  0.88000000000E+00 0.  1.
        -11    1    4    4    0    0  0.19635905219E-01 -0.10429720523E-01 -0.99976550812E-02  0.24383643536E-01  0.51100000000E-03 0.  1.
         11    1    4    4    0    0  0.71141354715E-01 -0.78015363468E-01 -0.22152675390E-01  0.10788184016E+00  0.51100000000E-03 0. -1.
</event>
<event>
 8    1  0.1182397E+005  0.1043930E+01  0.7957747E-01            NaN
         13   -1    0    0    0    0  0.00000000000E+00  0.00000000000E+00  0.74505805969E-08  0.10566000000E+00  0.10566000000E+00 0.  1.
     999900   -1    0    0    0    0 -0.00000000000E+00 -0.00000000000E+00 -0.74505805969E-08  0.93827000000E+00  0.93827000000E+00 0. -1.
     999902    2    1    2    0    0  0.21637141587E-01  0.10318871812E-01 -0.30902594104E-02  0.10197598797E+01  0.10194734021E+01 0.  0.
     999903    2    3    3    0    0  0.55220696669E-01 -0.23026062459E-01 -0.11528394408E+00  0.13137529931E+00  0.19737188587E-01 0.  0.
         14    1    1    2    0    0 -0.21637141587E-01 -0.10318871812E-01  0.30902594104E-02  0.24170120288E-01  0.00000000000E+00 0.  1.
     999901    1    3    3    0    0 -0.33583555082E-01  0.33344934272E-01  0.11219368467E+00  0.88838458040E+00  0.88000000000E+00 0.  1.
        -11    1    4    4    0    0  0.36792147509E-01 -0.90064900312E-02 -0.54893190162E-01  0.66695595268E-01  0.51100000000E-03 0. -1.
         11    1    4    4    0    0  0.18428549159E-01 -0.14019572428E-01 -0.60390753919E-01  0.64679704043E-01  0.51100000000E-03 0.  1.
</event>
<event>
 8    1  0.1115874E+005  0.1043930E+01  0.7957747E-01            NaN
         13   -1    0    0    0    0  0.00000000000E+00  0.00000000000E+00  0.74505805969E-08  0.10566000000E+00  0.10566000000E+00 0. -1.
     999900   -1    0    0    0    0 -0.00000000000E+00 -0.00000000000E+00 -0.74505805969E-08  0.93827000000E+00  0.93827000000E+00 0. -1.
     999902    2    1    2    0    0 -0.11566298754E-01  0.21881290306E-01  0.12167828114E-01  0.10163505480E+01  0.10159762843E+01 0.  0.
     999903    2    3    3    0    0  0.73953279361E-01 -0.40696457045E-01 -0.89595991327E-01  0.12417038252E+00  0.16295799745E-01 0.  0.
         14    1    1    2    0    0  0.11566298754E-01 -0.21881290306E-01 -0.12167828114E-01  0.27579452013E-01  0.00000000000E+00 0.  1.
     999901    1    3    3    0    0 -0.85519578115E-01  0.62577747351E-01  0.10176381944E+00  0.89218016547E+00  0.88000000000E+00 0.  1.
        -11    1    4    4    0    0  0.43933072599E-01 -0.17234648153E-01 -0.57193167441E-01  0.74151651956E-01  0.51100000000E-03 0.  1.
         11    1    4    4    0    0  0.30020206762E-01 -0.23461808892E-01 -0.32402823886E-01  0.50018730564E-01  0.51100000000E-03 0. -1.
</event>
<event>
 8    1  0.1115874E+005  0.1043930E+01  0.7957747E-01            NaN
         13   -1    0    0    0    0  0.00000000000E+00  0.00000000000E+00  0.74505805969E-08  0.10566000000E+00  0.10566000000E+00 0.  1.
     999900   -1    0    0    0    0 -0.00000000000E+00 -0.00000000000E+00 -0.74505805969E-08  0.93827000000E+00  0.93827000000E+00 0.  1.
     999902    2    1    2    0    0 -0.77843779778E-02 -0.21553870274E-01 -0.12975698185E-02  0.10209767965E+01  0.10207187514E+01 0.  0.
     999903    2    3    3    0    0 -0.72669531782E-01  0.23928603703E-01  0.10453111100E+00  0.13110127243E+00  0.20182951767E-01 0.  0.
         14    1    1    2    0    0  0.77843779778E-02  0.21553870274E-01  0.12975698185E-02  0.22953203517E-01  0.00000000000E+00 0. -1.
     999901    1    3    3    0    0  0.64885153804E-01 -0.45482473977E-01 -0.10582868082E+00  0.88987552405E+00  0.88000000000E+00 0.  1.
        -11    1    4    4    0    0 -0.17433145103E-01 -0.28718519934E-02  0.21410801649E-01  0.27764106870E-01  0.51100000000E-03 0. -1.
         11    1    4    4    0    0 -0.55236386679E-01  0.26800455697E-01  0.83120309348E-01  0.10333716556E+00  0.51100000000E-03 0.  1.
</event>
<event>
 8    1  0.1115874E+005  0.1043930E+01  0.7957747E-01            NaN
         13   -1    0    0    0    0  0.00000000000E+00  0.00000000000E+00  0.74505805969E-08  0.10566000000E+00  0.10566000000E+00 0.  1.
     999900   -1    0    0    0    0 -0.00000000000E+00 -0.00000000000E+00 -0.74505805969E-08  0.93827000000E+00  0.93827000000E+00 0. -1.
     999902    2    1    2    0    0 -0.68466030684E-02  0.19964926035E-01 -0.10111987074E-01  0.10205264420E+01  0.10202580518E+01 0.  0.
     999903    2    3    3    0    0  0.45511586861E-01  0.75067230144E-01 -0.97717816522E-01  0.13291592756E+00  0.20284934121E-01 0.  0.
         14    1    1    2    0    0  0.68466030684E-02 -0.19964926035E-01  0.10111987074E-01  0.23403558015E-01  0.00000000000E+00 0.  1.
     999901    1    3    3    0    0 -0.52358189930E-01 -0.55102304109E-01  0.87605829448E-01  0.88761051443E+00  0.88000000000E+00 0.  1.
        -11    1    4    4    0    0  0.19731721647E-01  0.49884518726E-01 -0.52155375271E-01  0.74821456403E-01  0.51100000000E-03 0. -1.
         11    1    4    4    0    0  0.25779865214E-01  0.25182711418E-01 -0.45562441251E-01  0.58094471153E-01  0.51100000000E-03 0.  1.
</event>
<event>
 8    1  0.1115874E+005  0.1043930E+01  0.7957747E-01            NaN
         13   -1    0    0    0    0  0.00000000000E+00  0.00000000000E+00  0.74505805969E-08  0.10566000000E+00  0.10566000000E+00 0.  1.
     999900   -1    0    0    0    0 -0.00000000000E+00 -0.00000000000E+00 -0.74505805969E-08  0.93827000000E+00  0.93827000000E+00 0. -1.
     999902    2    1    2    0    0  0.14717100464E-01 -0.51484191577E-02 -0.17951995867E-01  0.10201524177E+01  0.10198752776E+01 0.  0.
     999903    2    3    3    0    0  0.26906174126E-02  0.12756380393E+00 -0.14080220767E-01  0.13011187865E+00  0.21238758278E-01 0.  0.
         14    1    1    2    0    0 -0.14717100464E-01  0.51484191577E-02  0.17951995867E-01  0.23777582331E-01  0.00000000000E+00 0. -1.
     999901    1    3    3    0    0  0.12026483052E-01 -0.13271222309E+00 -0.38717750993E-02  0.89004053902E+00  0.88000000000E+00 0. -1.
        -11    1    4    4    0    0  0.10088439922E-01  0.57354278752E-01 -0.62093013950E-03  0.58240334704E-01  0.51100000000E-03 0.  1.
         11    1    4    4    0    0 -0.73978225092E-02  0.70209525182E-01 -0.13459290628E-01  0.71871543947E-01  0.51100000000E-03 0. -1.
</event>
<event>
 8    1  0.1115874E+005  0.1043930E+01  0.7957747E-01            NaN
         13   -1    0    0    0    0  0.00000000000E+00  0.00000000000E+00  0.74505805969E-08  0.10566000000E+00  0.10566000000E+00 0. -1.
     999900   -1    0    0    0    0 -0.00000000000E+00 -0.00000000000E+00 -0.74505805969E-08  0.93827000000E+00  0.93827000000E+00 0. -1.
     999902    2    1    2    0    0 -0.20024325853E-01  0.13239457185E-01 -0.32693850186E-03  0.10199224233E+01  0.10196398314E+01 0.  0.
     999903    2    3    3    0    0 -0.12132964708E+00  0.51080642391E-01  0.70518614992E-02  0.13327188889E+00  0.19533364507E-01 0.  0.
         14    1    1    2    0    0  0.20024325853E-01 -0.13239457185E-01  0.32693850186E-03  0.24007576746E-01  0.00000000000E+00 0.  1.
     999901    1    3    3    0    0  0.10130532123E+00 -0.37841185206E-01 -0.73788000010E-02  0.88665053437E+00  0.88000000000E+00 0.  1.
        -11    1    4    4    0    0 -0.10064749041E+00  0.35556505268E-01  0.11932533140E-02  0.10675142794E+00  0.51100000000E-03 0.  1.
         11    1    4    4    0    0 -0.20682156671E-01  0.15524137123E-01  0.58586081852E-02  0.26520460948E-01  0.51100000000E-03 0. -1.
</event>
<event>
 8    1  0.1115874E+005  0.1043930E+01  0.7957747E-01            NaN
         13   -1    0    0    0    0  0.00000000000E+00  0.00000000000E+00  0.74505805969E-08  0.10566000000E+00  0.10566000000E+00 0.  1.
     999900   -1    0    0    0    0 -0.00000000000E+00 -0.00000000000E+00 -0.74505805969E-08  0.93827000000E+00  0.93827000000E+00 0.  1.
     999902    2    1    2    0    0  0.14015711576E-01 -0.74902148580E-02 -0.16590707738E-01  0.10209562090E+01  0.10206976955E+01 0.  0.
     999903    2    3    3    0    0 -0.85587450468E-01 -0.19283830752E-01 -0.96309782908E-01  0.13167840639E+00  0.19145511758E-01 0.  0.
         14    1    1    2    0    0 -0.14015711576E-01  0.74902148580E-02  0.16590707738E-01  0.22973790999E-01  0.00000000000E+00 0.  1.
     999901    1    3    3    0    0  0.99603162044E-01  0.11793615894E-01  0.79719075171E-01  0.88927780261E+00  0.88000000000E+00 0. -1.
        -11    1    4    4    0    0 -0.15996005031E-01 -0.40583357587E-02 -0.83919162747E-02  0.18521005530E-01  0.51100000000E-03 0.  1.
         11    1    4    4    0    0 -0.69591445437E-01 -0.15225494993E-01 -0.87917866633E-01  0.11315740086E+00  0.51100000000E-03 0. -1.
</event>
<event>
 8    1  0.1115874E+005  0.1043930E+01  0.7957747E-01            NaN
         13   -1    0    0    0    0  0.00000000000E+00  0.00000000000E+00  0.74505805969E-08  0.10566000000E+00  0.10566000000E+00 0. -1.
     999900   -1    0    0    0    0 -0.00000000000E+00 -0.00000000000E+00 -0.74505805969E-08  0.93827000000E+00  0.93827000000E+00 0.  1.
     999902    2    1    2    0    0 -0.13240043498E-01  0.16698526269E-01 -0.14967441982E-01  0.10178884207E+01  0.10175552433E+01 0.  0.
     999903    2    3    3    0    0 -0.20491735571E-01  0.10336048326E+00 -0.76457567358E-01  0.13146644597E+00  0.18285679695E-01 0.  0.
         14    1    1    2    0    0  0.13240043498E-01 -0.16698526269E-01  0.14967441982E-01  0.26041579270E-01  0.00000000000E+00 0. -1.
     999901    1    3    3    0    0  0.72516920725E-02 -0.86661956992E-01  0.61490125376E-01  0.88642197476E+00  0.88000000000E+00 0. -1.
        -11    1    4    4    0    0 -0.14206149921E-02  0.44798569371E-01 -0.25798331220E-01  0.51717936727E-01  0.51100000000E-03 0. -1.
         11    1    4    4    0    0 -0.19071120579E-01  0.58561913890E-01 -0.50659236138E-01  0.79748509238E-01  0.51100000000E-03 0.  1.
</event>
<event>
 8    1  0.1115874E+005  0.1043930E+01  0.7957747E-01            NaN
         13   -1    0    0    0    0  0.00000000000E+00  0.00000000000E+00  0.74505805969E-08  0.10566000000E+00  0.10566000000E+00 0. -1.
     999900   -1    0    0    0    0 -0.00000000000E+00 -0.00000000000E+00 -0.74505805969E-08  0.93827000000E+00  0.93827000000E+00 0.  1.
     999902    2    1    2    0    0  0.11075819832E-01  0.23062082126E-01 -0.60100541205E-02  0.10176497000E+01  0.10173103055E+01 0.  0.
     999903    2    3    3    0    0  0.10238590138E+00 -0.60690524494E-01 -0.43347410938E-01  0.12818575565E+00  0.19656483727E-01 0.  0.
         14    1    1    2    0    0 -0.11075819832E-01 -0.23062082126E-01  0.60100541205E-02  0.26280299988E-01  0.00000000000E+00 0.  1.
     999901    1    3    3    0    0 -0.91310081544E-01  0.83752606620E-01  0.37337356818E-01  0.88946394436E+00  0.88000000000E+00 0.  1.
        -11    1    4    4    0    0  0.65887939288E-01 -0.31435300437E-01 -0.18934267680E-01  0.75419932848E-01  0.51100000000E-03 0. -1.
         11    1    4    4    0    0  0.36497962087E-01 -0.29255224058E-01 -0.24413143258E-01  0.52765822802E-01  0.51100000000E-03 0.  1.
</event>
<event>
 8    1  0.1115874E+005  0.1043930E+01  0.7957747E-01            NaN
         13   -1    0    0    0    0  0.00000000000E+00  0.00000000000E+00  0.74505805969E-08  0.10566000000E+00  0.10566000000E+00 0. -1.
     999900   -1    0    0    0    0 -0.00000000000E+00 -0.00000000000E+00 -0.74505805969E-08  0.93827000000E+00  0.93827000000E+00 0. -1.
     999902    2    1    2    0    0 -0.23655329467E-01 -0.58639795808E-03  0.30192580831E-03  0.10202654773E+01  0.10199909973E+01 0.  0.
     999903    2    3    3    0    0  0.58365680149E-02  0.52272009345E-01  0.11749884748E+00  0.13043464975E+00  0.20995004389E-01 0.  0.
         14    1    1    2    0    0  0.23655329467E-01  0.58639795808E-03 -0.30192580831E-03  0.23664522686E-01  0.00000000000E+00 0.  1.
     999901    1    3    3    0    0 -0.29491897482E-01 -0.52858407303E-01 -0.11719692167E+00  0.88983082757E+00  0.88000000000E+00 0. -1.
        -11    1    4    4    0    0  0.10399218633E-01  0.11217827138E-01  0.33206384605E-01  0.36563759290E-01  0.51100000000E-03 0. -1.
         11    1    4    4    0    0 -0.45626506182E-02  0.41054182207E-01  0.84292462872E-01  0.93870890458E-01  0.51100000000E-03 0.  1.
</event>
<event>
 8    1  0.1115874E+005  0.1043930E+01  0.7957747E-01            NaN
         13   -1    0    0    0    0  0.00000000000E+00  0.00000000000E+00  0.74505805969E-08  0.10566000000E+00  0.10566000000E+00 0.  1.
     999900   -1    0    0    0    0 -0.00000000000E+00 -0.00000000000E+00 -0.74505805969E-08  0.93827000000E+00  0.93827000000E+00 0. -1.
     999902    2    1    2    0    0 -0.66048045358E-02 -0.21011213210E-01  0.75800277093E-02  0.10206372684E+01  0.10203714433E+01 0.  0.
     999903    2    3    3    0    0  0.70264457433E-01 -0.10919715766E+00 -0.16929677098E-01  0.13255710885E+00  0.20583000740E-01 0.  0.
         14    1    1    2    0    0  0.66048045358E-02  0.21011213210E-01 -0.75800277093E-02  0.23292731561E-01  0.00000000000E+00 0. -1.
     999901    1    3    3    0    0 -0.76869261969E-01  0.88185944449E-01  0.24509704808E-01  0.88808015959E+00  0.88000000000E+00 0. -1.
        -11    1    4    4    0    0  0.49177840584E-01 -0.60994682125E-01 -0.44304618640E-02  0.78477393976E-01  0.51100000000E-03 0.  1.
         11    1    4    4    0    0  0.21086616850E-01 -0.48202475535E-01 -0.12499215234E-01  0.54079714869E-01  0.51100000000E-03 0. -1.
</event>
<event>
 8    1  0.1115874E+005  0.1043930E+01  0.7957747E-01            NaN
         13   -1    0    0    0    0  0.00000000000E+00  0.00000000000E+00  0.74505805969E-08  0.10566000000E+00  0.10566000000E+00 0. -1.
     999900   -1    0    0    0    0 -0.00000000000E+00 -0.00000000000E+00 -0.74505805969E-08  0.93827000000E+00  0.93827000000E+00 0. -1.
     999902    2    1    2    0    0  0.13290102663E-01 -0.24044938238E-02 -0.19193084970E-01  0.10204612350E+01  0.10201913297E+01 0.  0.
     999903    2    3    3    0    0 -0.22290362352E-01  0.80794417654E-01  0.95230390747E-01  0.12845184036E+00  0.20160599966E-01 0.  0.
         14    1    1    2    0    0 -0.13290102663E-01  0.24044938238E-02  0.19193084970E-01  0.23468764987E-01  0.00000000000E+00 0. -1.
     999901    1    3    3    0    0  0.35580465015E-01 -0.83198911478E-01 -0.11442347572E+00  0.89200939466E+00  0.88000000000E+00 0. -1.
        -11    1    4    4    0    0 -0.89061095338E-02  0.60352100336E-01  0.75323738391E-01  0.96931014068E-01  0.51100000000E-03 0.  1.
         11    1    4    4    0    0 -0.13384252818E-01  0.20442317318E-01  0.19906652356E-01  0.31520826288E-01  0.51100000000E-03 0. -1.
</event>
<event>
 8    1  0.1115874E+005  0.1043930E+01  0.7957747E-01            NaN
         13   -1    0    0    0    0  0.00000000000E+00  0.00000000000E+00  0.74505805969E-08  0.10566000000E+00  0.10566000000E+00 0.  1.
     999900   -1    0    0    0    0 -0.00000000000E+00 -0.00000000000E+00 -0.74505805969E-08  0.93827000000E+00  0.93827000000E+00 0. -1.
     999902    2    1    2    0    0 -0.14096938502E-01  0.18683427472E-01  0.57777706637E-02  0.10198223918E+01  0.10195374118E+01 0.  0.
     999903    2    3    3    0    0  0.12433120302E+00 -0.21844971243E-01  0.70920975756E-02  0.12807880262E+00  0.20455586523E-01 0.  0.
         14    1    1    2    0    0  0.14096938502E-01 -0.18683427472E-01 -0.57777706637E-02  0.24107608157E-01  0.00000000000E+00 0. -1.
     999901    1    3    3    0    0 -0.13842814152E+00  0.40528398715E-01 -0.13143269119E-02  0.89174358922E+00  0.88000000000E+00 0. -1.
        -11    1    4    4    0    0  0.28353719725E-01 -0.13864464910E-01  0.12091373230E-02  0.31589237780E-01  0.51100000000E-03 0.  1.
         11    1    4    4    0    0  0.95977483292E-01 -0.79805063335E-02  0.58829602526E-02  0.96489564839E-01  0.51100000000E-03 0. -1.
</event>
<event>
 8    1  0.1115874E+005  0.1043930E+01  0.7957747E-01            NaN
         13   -1    0    0    0    0  0.00000000000E+00  0.00000000000E+00  0.74505805969E-08  0.10566000000E+00  0.10566000000E+00 0. -1.
     999900   -1    0    0    0    0 -0.00000000000E+00 -0.00000000000E+00 -0.74505805969E-08  0.93827000000E+00  0.93827000000E+00 0.  1.
     999902    2    1    2    0    0 -0.13185755640E-01  0.19525995212E-01 -0.50774460999E-03  0.10203633616E+01  0.10200911740E+01 0.  0.
     999903    2    3    3    0    0 -0.97053153773E-01  0.53299206921E-01 -0.70880125923E-01  0.13293638300E+00  0.19696942875E-01 0.  0.
         14    1    1    2    0    0  0.13185755640E-01 -0.19525995212E-01  0.50774460999E-03  0.23566638399E-01  0.00000000000E+00 0.  1.
     999901    1    3    3    0    0  0.83867398133E-01 -0.33773211708E-01  0.70372381313E-01  0.88742697860E+00  0.88000000000E+00 0. -1.
        -11    1    4    4    0    0 -0.53589011401E-01  0.37910320979E-01 -0.48890821869E-01  0.81850767642E-01  0.51100000000E-03 0. -1.
         11    1    4    4    0    0 -0.43464142372E-01  0.15388885942E-01 -0.21989304054E-01  0.51085615357E-01  0.51100000000E-03 0.  1.
</event>
<event>
 8    1  0.1115874E+005  0.1043930E+01  0.7957747E-01            NaN
         13   -1    0    0    0    0  0.00000000000E+00  0.00000000000E+00  0.74505805969E-08  0.10566000000E+00  0.10566000000E+00 0.  1.
     999900   -1    0    0    0    0 -0.00000000000E+00 -0.00000000000E+00 -0.74505805969E-08  0.93827000000E+00  0.93827000000E+00 0. -1.
     999902    2    1    2    0    0  0.79218710840E-02 -0.73720034160E-03 -0.23938262624E-01  0.10187042211E+01  0.10183918451E+01 0.  0.
     999903    2    3    3    0    0 -0.92012186368E-01 -0.67075480805E-01  0.53063107082E-01  0.12723532411E+00  0.20193360338E-01 0.  0.
         14    1    1    2    0    0 -0.79218710840E-02  0.73720034160E-03  0.23938262624E-01  0.25225778943E-01  0.00000000000E+00 0.  1.
     999901    1    3    3    0    0  0.99934057452E-01  0.66338280463E-01 -0.77001369706E-01  0.89146889695E+00  0.88000000000E+00 0. -1.
        -11    1    4    4    0    0 -0.41199829777E-01 -0.25332894285E-01  0.12453300987E-01  0.49945243346E-01  0.51100000000E-03 0.  1.
         11    1    4    4    0    0 -0.50812356592E-01 -0.41742586520E-01  0.40609806095E-01  0.77290080760E-01  0.51100000000E-03 0. -1.
</event>
<event>
 8    1  0.1115874E+005  0.1043930E+01  0.7957747E-01            NaN
         13   -1    0    0    0    0  0.00000000000E+00  0.00000000000E+00  0.74505805969E-08  0.10566000000E+00  0.10566000000E+00 0. -1.
     999900   -1    0    0    0    0 -0.00000000000E+00 -0.00000000000E+00 -0.74505805969E-08  0.93827000000E+00  0.93827000000E+00 0.  1.
     999902    2    1    2    0    0  0.16377206970E-01  0.16933336998E-01 -0.35978719393E-02  0.10200994420E+01  0.10198210511E+01 0.  0.
     999903    2    3    3    0    0 -0.26826450689E-01  0.10209392326E+00  0.75916902319E-01  0.13136917880E+00  0.18752532027E-01 0.  0.
         14    1    1    2    0    0 -0.16377206970E-01 -0.16933336998E-01  0.35978719393E-02  0.23830557956E-01  0.00000000000E+00 0.  1.
     999901    1    3    3    0    0  0.43203657659E-01 -0.85160586258E-01 -0.79514774259E-01  0.88873026325E+00  0.88000000000E+00 0.  1.
        -11    1    4    4    0    0 -0.23681173209E-02  0.45409833077E-01  0.32105373000E-01  0.55665761615E-01  0.51100000000E-03 0.  1.
         11    1    4    4    0    0 -0.24458333368E-01  0.56684090179E-01  0.43811529319E-01  0.75703417181E-01  0.51100000000E-03 0. -1.
</event>
<event>
 8    1  0.1115874E+005  0.1043930E+01  0.7957747E-01            NaN
         13   -1    0    0    0    0  0.00000000000E+00  0.00000000000E+00  0.74505805969E-08  0.10566000000E+00  0.10566000000E+00 0.  1.
     999900   -1    0    0    0    0 -0.00000000000E+00 -0.00000000000E+00 -0.74505805969E-08  0.93827000000E+00  0.93827000000E+00 0. -1.
     999902    2    1    2    0    0  0.21969376053E-01 -0.90703796830E-02 -0.12577725774E-01  0.10170390265E+01  0.10166834595E+01 0.  0.
     999903    2    3    3    0    0 -0.20097882003E-02  0.59016612821E-01  0.10914789378E+00  0.12573214031E+00  0.20206646216E-01 0.  0.
         14    1    1    2    0    0 -0.21969376053E-01  0.90703796830E-02  0.12577725774E-01  0.26890973531E-01  0.00000000000E+00 0.  1.
     999901    1    3    3    0    0  0.23979164254E-01 -0.68086992504E-01 -0.12172561956E+00  0.89130688616E+00  0.88000000000E+00 0. -1.
        -11    1    4    4    0    0  0.25754939355E-02  0.36694417831E-01  0.84495572485E-01  0.92156803110E-01  0.51100000000E-03 0. -1.
         11    1    4    4    0    0 -0.45852821358E-02  0.22322194990E-01  0.24652321297E-01  0.33575337195E-01  0.51100000000E-03 0.  1.
</event>
<event>
 8    1  0.1115874E+005  0.1043930E+01  0.7957747E-01            NaN
         13   -1    0    0    0    0  0.00000000000E+00  0.00000000000E+00  0.74505805969E-08  0.10566000000E+00  0.10566000000E+00 0. -1.
     999900   -1    0    0    0    0 -0.00000000000E+00 -0.00000000000E+00 -0.74505805969E-08  0.93827000000E+00  0.93827000000E+00 0.  1.
     999902    2    1    2    0    0  0.19046114964E-03  0.22357407983E-01 -0.50564316119E-02  0.10210071409E+01  0.10207497854E+01 0.  0.
     999903    2    3    3    0    0  0.10271244627E+00 -0.32055275643E-02  0.78500474417E-01  0.13075662695E+00  0.19361017073E-01 0.  0.
         14    1    1    2    0    0 -0.19046114964E-03 -0.22357407983E-01  0.50564316119E-02  0.22922859067E-01  0.00000000000E+00 0. -1.
     999901    1    3    3    0    0 -0.10252198512E+00  0.25562935547E-01 -0.83556906029E-01  0.89025051399E+00  0.88000000000E+00 0.  1.
        -11    1    4    4    0    0  0.21634624396E-01 -0.77441740695E-02  0.12853703860E-01  0.26334540601E-01  0.51100000000E-03 0.  1.
         11    1    4    4    0    0  0.81077821870E-01  0.45386465052E-02  0.65646770557E-01  0.10442208635E+00  0.51100000000E-03 0. -1.
</event>
<event>
 8    1  0.1115874E+005  0.1043930E+01  0.7957747E-01            NaN
         13   -1    0    0    0    0  0.00000000000E+00  0.00000000000E+00  0.74505805969E-08  0.10566000000E+00  0.10566000000E+00 0. -1.
     999900   -1    0    0    0    0 -0.00000000000E+00 -0.00000000000E+00 -0.74505805969E-08  0.93827000000E+00  0.93827000000E+00 0.  1.
     999902    2    1    2    0    0  0.19563701329E-02 -0.88390896547E-02 -0.22299443486E-01  0.10198629672E+01  0.10195789571E+01 0.  0.
     999903    2    3    3    0    0 -0.47146434611E-01  0.30149550837E-01 -0.11846108742E+00  0.13240690555E+00  0.19151440971E-01 0.  0.
         14    1    1    2    0    0 -0.19563701329E-02  0.88390896547E-02  0.22299443486E-01  0.24067032842E-01  0.00000000000E+00 0. -1.
     999901    1    3    3    0    0  0.49102804744E-01 -0.38988640491E-01  0.96161643938E-01  0.88745606161E+00  0.88000000000E+00 0. -1.
        -11    1    4    4    0    0 -0.37592466824E-01  0.18862100675E-01 -0.10166446845E+00  0.11002225988E+00  0.51100000000E-03 0. -1.
         11    1    4    4    0    0 -0.95539677874E-02  0.11287450161E-01 -0.16796618978E-01  0.22384645669E-01  0.51100000000E-03 0.  1.
</event>
<event>
 8    1  0.1115874E+005  0.1043930E+01  0.7957747E-01            NaN
         13   -1    0    0    0    0  0.00000000000E+00  0.00000000000E+00  0.74505805969E-08  0.10566000000E+00  0.10566000000E+00 0. -1.
     999900   -1    0    0    0    0 -0.00000000000E+00 -0.00000000000E+00 -0.74505805969E-08  0.93827000000E+00  0.93827000000E+00 0. -1.
     999902    2    1    2    0    0  0.10618871302E-01  0.20300084726E-01 -0.54376098335E-02  0.10203838439E+01  0.10201121347E+01 0.  0.
     999903    2    3    3    0    0  0.77510604231E-02 -0.95844494396E-01 -0.84529112844E-01  0.12923107726E+00  0.17585629570E-01 0.  0.
         14    1    1    2    0    0 -0.10618871302E-01 -0.20300084726E-01  0.54376098335E-02  0.23546156126E-01  0.00000000000E+00 0.  1.
     999901    1    3    3    0    0  0.28678108793E-02  0.11614457912E+00  0.79091503011E-01  0.89115276662E+00  0.88000000000E+00 0.  1.
        -11    1    4    4    0    0 -0.13840479318E-02 -0.73864816994E-01 -0.61879689302E-01  0.96370554877E-01  0.51100000000E-03 0. -1.
         11    1    4    4    0    0  0.91351083548E-02 -0.21979677402E-01 -0.22649423543E-01  0.32860522381E-01  0.51100000000E-03 0.  1.
</event>
<event>
 8    1  0.1115874E+005  0.1043930E+01  0.7957747E-01            NaN
         13   -1    0    0    0    0  0.00000000000E+00  0.00000000000E+00  0.74505805969E-08  0.10566000000E+00  0.10566000000E+00 0.  1.
     999900   -1    0    0    0    0 -0.00000000000E+00 -0.00000000000E+00 -0.74505805969E-08  0.93827000000E+00  0.93827000000E+00 0. -1.
     999902    2    1    2    0    0 -0.14872437873E-01  0.16676385022E-02  0.18633888042E-01  0.10200303722E+01  0.10197503459E+01 0.  0.
     999903    2    3    3    0    0  0.60146018485E-01  0.49662853924E-01 -0.99153406268E-01  0.12772708506E+00  0.19971672049E-01 0.  0.
         14    1    1    2    0    0  0.14872437873E-01 -0.16676385022E-02 -0.18633888042E-01  0.23899627822E-01  0.00000000000E+00 0. -1.
     999901    1    3    3    0    0 -0.75018456358E-01 -0.47995215422E-01  0.11778729431E+00  0.89230328712E+00  0.88000000000E+00 0.  1.
        -11    1    4    4    0    0  0.26425702570E-01  0.17670362456E-01 -0.55482544593E-01  0.63946331725E-01  0.51100000000E-03 0. -1.
         11    1    4    4    0    0  0.33720315915E-01  0.31992491468E-01 -0.43670861675E-01  0.63780753337E-01  0.51100000000E-03 0.  1.
</event>
<event>
 8    1  0.1115874E+005  0.1043930E+01  0.7957747E-01            NaN
         13   -1    0    0    0    0  0.00000000000E+00  0.00000000000E+00  0.74505805969E-08  0.10566000000E+00  0.10566000000E+00 0. -1.
     999900   -1    0    0    0    0 -0.00000000000E+00 -0.00000000000E+00 -0.74505805969E-08  0.93827000000E+00  0.93827000000E+00 0. -1.
     999902    2    1    2    0    0  0.16993022033E-01 -0.68753730639E-02 -0.14646085480E-01  0.10204663819E+01  0.10201965964E+01 0.  0.
     999903    2    3    3    0    0 -0.36057683603E-01 -0.15810231320E-01  0.12064393789E+00  0.12850360274E+00  0.20201391200E-01 0.  0.
         14    1    1    2    0    0 -0.16993022033E-01  0.68753730639E-02  0.14646085480E-01  0.23463618060E-01  0.00000000000E+00 0. -1.
     999901    1    3    3    0    0  0.53050705636E-01  0.89348582559E-02 -0.13529002337E+00  0.89196277920E+00  0.88000000000E+00 0. -1.
        -11    1    4    4    0    0 -0.27231550063E-01 -0.56779754428E-02  0.56663985278E-01  0.63125787699E-01  0.51100000000E-03 0. -1.
         11    1    4    4    0    0 -0.88261335398E-02 -0.10132255877E-01  0.63979952608E-01  0.65377815038E-01  0.51100000000E-03 0.  1.
</event>
<event>
 8    1  0.1115874E+005  0.1043930E+01  0.7957747E-01            NaN
         13   -1    0    0    0    0  0.00000000000E+00  0.00000000000E+00  0.74505805969E-08  0.10566000000E+00  0.10566000000E+00 0.  1.
     999900   -1    0    0    0    0 -0.00000000000E+00 -0.00000000000E+00 -0.74505805969E-08  0.93827000000E+00  0.93827000000E+00 0. -1.
     999902    2    1    2    0    0  0.13797878129E-01 -0.34092152355E-02 -0.18546675830E-01  0.10205637129E+01  0.10202961867E+01 0.  0.
     999903    2    3    3    0    0 -0.10722639579E+00  0.74190762445E-02 -0.71248803097E-01  0.13065268306E+00  0.21004499546E-01 0.  0.
         14    1    1    2    0    0 -0.13797878129E-01  0.34092152355E-02  0.18546675830E-01  0.23366287119E-01  0.00000000000E+00 0. -1.
     999901    1    3    3    0    0  0.12102427392E+00 -0.10828291480E-01  0.52702127267E-01  0.88991102982E+00  0.88000000000E+00 0.  1.
        -11    1    4    4    0    0 -0.26130846520E-01  0.88283671773E-03 -0.28740355131E-01  0.38857041505E-01  0.51100000000E-03 0. -1.
         11    1    4    4    0    0 -0.81095549275E-01  0.65362395268E-02 -0.42508447966E-01  0.91795641557E-01  0.51100000000E-03 0.  1.
</event>
<event>
 8    1  0.1115874E+005  0.1043930E+01  0.7957747E-01            NaN
         13   -1    0    0    0    0  0.00000000000E+00  0.00000000000E+00  0.74505805969E-08  0.10566000000E+00  0.10566000000E+00 0. -1.
     999900   -1    0    0    0    0 -0.00000000000E+00 -0.00000000000E+00 -0.74505805969E-08  0.93827000000E+00  0.93827000000E+00 0.  1.
     999902    2    1    2    0    0  0.72870362673E-02 -0.12737493004E-01  0.16698524708E-01  0.10216997199E+01  0.10214578466E+01 0.  0.
     999903    2    3    3    0    0  0.64251138868E-01 -0.61994368079E-01  0.98794122230E-01  0.13467613744E+00  0.20146287207E-01 0.  0.
         14    1    1    2    0    0 -0.72870362673E-02  0.12737493004E-01 -0.16698524708E-01  0.22230280093E-01  0.00000000000E+00 0.  1.
     999901    1    3    3    0    0 -0.56964102601E-01  0.49256875075E-01 -0.82095597522E-01  0.88702358247E+00  0.88000000000E+00 0.  1.
        -11    1    4    4    0    0  0.32479962492E-01 -0.29527305532E-01  0.33915175201E-01  0.55473506878E-01  0.51100000000E-03 0. -1.
         11    1    4    4    0    0  0.31771176376E-01 -0.32467062548E-01  0.64878947029E-01  0.79202630558E-01  0.51100000000E-03 0.  1.
</event>
<event>
 8    1  0.1115874E+005  0.1043930E+01  0.7957747E-01            NaN
         13   -1    0    0    0    0  0.00000000000E+00  0.00000000000E+00  0.74505805969E-08  0.10566000000E+00  0.10566000000E+00 0.  1.
     999900   -1    0    0    0    0 -0.00000000000E+00 -0.00000000000E+00 -0.74505805969E-08  0.93827000000E+00  0.93827000000E+00 0. -1.
     999902    2    1    2    0    0 -0.13534140433E-04 -0.10062737512E-01  0.21424205102E-01  0.10202602845E+01  0.10199856826E+01 0.  0.
     999903    2    3    3    0    0 -0.70909988385E-01 -0.43431679678E-01  0.10193757159E+00  0.13311757006E+00  0.20358823787E-01 0.  0.
         14    1    1    2    0    0  0.13534140433E-04  0.10062737512E-01 -0.21424205102E-01  0.23669715538E-01  0.00000000000E+00 0. -1.
     999901    1    3    3    0    0  0.70896454244E-01  0.33368942166E-01 -0.80513366487E-01  0.88714271440E+00  0.88000000000E+00 0. -1.
        -11    1    4    4    0    0 -0.45869772958E-01 -0.27280938358E-01  0.49445170700E-01  0.72755561268E-01  0.51100000000E-03 0.  1.
         11    1    4    4    0    0 -0.25040215427E-01 -0.16150741321E-01  0.52492400889E-01  0.60362008796E-01  0.51100000000E-03 0. -1.
</event>
<event>
 8    1  0.1115874E+005  0.1043930E+01  0.7957747E-01            NaN
         13   -1    0    0    0    0  0.00000000000E+00  0.00000000000E+00  0.74505805969E-08  0.10566000000E+00  0.10566000000E+00 0.  1.
     999900   -1    0    0    0    0 -0.00000000000E+00 -0.00000000000E+00 -0.74505805969E-08  0.93827000000E+00  0.93827000000E+00 0.  1.
     999902    2    1    2    0    0 -0.46440372162E-02  0.43852879804E-02  0.22323331359E-01  0.10207108494E+01  0.10204467204E+01 0.  0.
     999903    2    3    3    0    0 -0.97973514873E-01 -0.21079255876E-01 -0.79489100232E-01  0.12957415638E+00  0.20683333895E-01 0.  0.
         14    1    1    2    0    0  0.46440372162E-02 -0.43852879804E-02 -0.22323331359E-01  0.23219150615E-01  0.00000000000E+00 0. -1.
     999901    1    3    3    0    0  0.93329477657E-01  0.25464543857E-01  0.10181243159E+00  0.89113669301E+00  0.88000000000E+00 0.  1.
        -11    1    4    4    0    0 -0.52637986833E-01 -0.10754923959E-01 -0.55522066224E-01  0.77261808198E-01  0.51100000000E-03 0. -1.
         11    1    4    4    0    0 -0.45335528040E-01 -0.10324331917E-01 -0.23967034008E-01  0.52312348182E-01  0.51100000000E-03 0.  1.
</event>
<event>
 8    1  0.1115874E+005  0.1043930E+01  0.7957747E-01            NaN
         13   -1    0    0    0    0  0.00000000000E+00  0.00000000000E+00  0.74505805969E-08  0.10566000000E+00  0.10566000000E+00 0.  1.
     999900   -1    0    0    0    0 -0.00000000000E+00 -0.00000000000E+00 -0.74505805969E-08  0.93827000000E+00  0.93827000000E+00 0. -1.
     999902    2    1    2    0    0 -0.18833684770E-01  0.68613587321E-02  0.11038690687E-01  0.10210468486E+01  0.10207903940E+01 0.  0.
     999903    2    3    3    0    0 -0.12511654573E+00  0.19736890191E-01 -0.36171719220E-01  0.13330215071E+00  0.20429764102E-01 0.  0.
         14    1    1    2    0    0  0.18833684770E-01 -0.68613587321E-02 -0.11038690687E-01  0.22883151394E-01  0.00000000000E+00 0. -1.
     999901    1    3    3    0    0  0.10628286096E+00 -0.12875531459E-01  0.47210409906E-01  0.88774469790E+00  0.88000000000E+00 0.  1.
        -11    1    4    4    0    0 -0.79926601206E-01  0.12799946493E-01 -0.33177622761E-01  0.87482089502E-01  0.51100000000E-03 0.  1.
         11    1    4    4    0    0 -0.45189944526E-01  0.69369436982E-02 -0.29940964581E-02  0.45820061204E-01  0.51100000000E-03 0. -1.
</event>
<event>
 8    1  0.1115874E+005  0.1043930E+01  0.7957747E-01            NaN
         13   -1    0    0    0    0  0.00000000000E+00  0.00000000000E+00  0.74505805969E-08  0.10566000000E+00  0.10566000000E+00 0.  1.
     999900   -1    0    0    0    0 -0.00000000000E+00 -0.00000000000E+00 -0.74505805969E-08  0.93827000000E+00  0.93827000000E+00 0.  1.
     999902    2    1    2    0    0  0.28300757006E-02 -0.18913358510E-02 -0.20124728235E-01  0.10235194349E+01  0.10233159055E+01 0.  0.
     999903    2    3    3    0    0  0.83376785647E-01  0.70037635719E-01  0.72354811130E-01  0.13210818605E+00  0.18984080860E-01 0.  0.
         14    1    1    2    0    0 -0.28300757006E-02  0.18913358510E-02  0.20124728235E-01  0.20410565065E-01  0.00000000000E+00 0.  1.
     999901    1    3    3    0    0 -0.80546709947E-01 -0.71928971570E-01 -0.92479539365E-01  0.89141124888E+00  0.88000000000E+00 0. -1.
        -11    1    4    4    0    0  0.58993211763E-01  0.49697912270E-01  0.61136487426E-01  0.98427703082E-01  0.51100000000E-03 0. -1.
         11    1    4    4    0    0  0.24383573884E-01  0.20339723449E-01  0.11218323704E-01  0.33680482970E-01  0.51100000000E-03 0.  1.
</event>
<event>
 8    1  0.1115874E+005  0.1043930E+01  0.7957747E-01            NaN
         13   -1    0    0    0    0  0.00000000000E+00  0.00000000000E+00  0.74505805969E-08  0.10566000000E+00  0.10566000000E+00 0.  1.
     999900   -1    0    0    0    0 -0.00000000000E+00 -0.00000000000E+00 -0.74505805969E-08  0.93827000000E+00  0.93827000000E+00 0.  1.
     999902    2    1    2    0    0 -0.13802307152E-01 -0.86323988364E-02 -0.22168430282E-01  0.10164261586E+01  0.10160539723E+01 0.  0.
     999903    2    3    3    0    0 -0.65663510539E-01  0.10183329126E+00  0.29794038291E-01  0.12648663745E+00  0.20723631692E-01 0.  0.
         14    1    1    2    0    0  0.13802307152E-01  0.86323988364E-02  0.22168430282E-01  0.27503841433E-01  0.00000000000E+00 0.  1.
     999901    1    3    3    0    0  0.51861203386E-01 -0.11046569010E+00 -0.51962468574E-01  0.88993952112E+00  0.88000000000E+00 0.  1.
        -11    1    4    4    0    0 -0.42561793601E-01  0.61690341925E-01  0.82486630831E-02  0.75402295224E-01  0.51100000000E-03 0.  1.
         11    1    4    4    0    0 -0.23101716938E-01  0.40142949335E-01  0.21545375208E-01  0.51084342226E-01  0.51100000000E-03 0. -1.
</event>
<event>
 8    1  0.1115874E+005  0.1043930E+01  0.7957747E-01            NaN
         13   -1    0    0    0    0  0.00000000000E+00  0.00000000000E+00  0.74505805969E-08  0.10566000000E+00  0.10566000000E+00 0. -1.
     999900   -1    0    0    0    0 -0.00000000000E+00 -0.00000000000E+00 -0.74505805969E-08  0.93827000000E+00  0.93827000000E+00 0. -1.
     999902    2    1    2    0    0 -0.11265678115E-02  0.86617675302E-02 -0.21555570472E-01  0.10206719263E+01  0.10204069008E+01 0.  0.
     999903    2    3    3    0    0  0.99856999695E-01  0.83319188248E-01 -0.77866946678E-02  0.13164943320E+00  0.18905901985E-01 0.  0.
         14    1    1    2    0    0  0.11265678115E-02 -0.86617675302E-02  0.21555570472E-01  0.23258073655E-01  0.00000000000E+00 0. -1.
     999901    1    3    3    0    0 -0.10098356751E+00 -0.74657420718E-01 -0.13768875804E-01  0.88902249314E+00  0.88000000000E+00 0. -1.
        -11    1    4    4    0    0  0.66257752579E-01  0.66126056939E-01 -0.73751518005E-02  0.93901007280E-01  0.51100000000E-03 0. -1.
         11    1    4    4    0    0  0.33599247116E-01  0.17193131309E-01 -0.41154286727E-03  0.37748425921E-01  0.51100000000E-03 0.  1.
</event>
<event>
 8    1  0.1115874E+005  0.1043930E+01  0.7957747E-01            NaN
         13   -1    0    0    0    0  0.00000000000E+00  0.00000000000E+00  0.74505805969E-08  0.10566000000E+00  0.10566000000E+00 0. -1.
     999900   -1    0    0    0    0 -0.00000000000E+00 -0.00000000000E+00 -0.74505805969E-08  0.93827000000E+00  0.93827000000E+00 0. -1.
     999902    2    1    2    0    0 -0.20634724875E-01 -0.29203393244E-02  0.12250553885E-01  0.10197557095E+01  0.10194691318E+01 0.  0.
     999903    2    3    3    0    0 -0.77462735409E-01  0.11436536937E-01  0.10576785999E+00  0.13286167452E+00  0.18278801781E-01 0.  0.
         14    1    1    2    0    0  0.20634724875E-01  0.29203393244E-02 -0.12250553885E-01  0.24174290536E-01  0.00000000000E+00 0.  1.
     999901    1    3    3    0    0  0.56828010534E-01 -0.14356876262E-01 -0.93517306109E-01  0.88689403494E+00  0.88000000000E+00 0. -1.
        -11    1    4    4    0    0 -0.62992628571E-01  0.12069570185E-01  0.73900153008E-01  0.97853152807E-01  0.51100000000E-03 0.  1.
         11    1    4    4    0    0 -0.14470106838E-01 -0.63303324807E-03  0.31867706986E-01  0.35008521713E-01  0.51100000000E-03 0. -1.
</event>
<event>
 7    1  0.1115874E+005  0.1043930E+01  0.7957747E-01            NaN
         13   -1    0    0    0    0  0.00000000000E+00  0.00000000000E+00  0.74505805969E-08  0.10566000000E+00  0.10566000000E+00 0.  1.
     999900   -1    0    0    0    0 -0.00000000000E+00 -0.00000000000E+00 -0.74505805969E-08  0.93827000000E+00  0.93827000000E+00 0. -1.
     999903    2    1    2    0    0  0.55736559481E-01  0.86458781152E-01  0.50645248443E-01  0.11639885906E+00  0.20051640795E-01 0.  0.
         14    1    1    2    0    0 -0.26710156064E-01 -0.35006642058E-01 -0.57732606816E-02  0.44409773295E-01  0.00000000000E+00 0.  1.
     999901    1    1    2    0    0 -0.29026403417E-01 -0.51452139094E-01 -0.44871987762E-01  0.88312136765E+00  0.88000000000E+00 0. -1.
        -11    1    3    3    0    0  0.18035017453E-01  0.38972100737E-01  0.29833232763E-01  0.52291198002E-01  0.51100000000E-03 0.  1.
         11    1    3    3    0    0  0.37701542028E-01  0.47486680415E-01  0.20812015680E-01  0.64107661054E-01  0.51100000000E-03 0. -1.
</event>
<event>
 8    1  0.1115874E+005  0.1043930E+01  0.7957747E-01            NaN
         13   -1    0    0    0    0  0.00000000000E+00  0.00000000000E+00  0.74505805969E-08  0.10566000000E+00  0.10566000000E+00 0. -1.
     999900   -1    0    0    0    0 -0.00000000000E+00 -0.00000000000E+00 -0.74505805969E-08  0.93827000000E+00  0.93827000000E+00 0. -1.
     999902    2    1    2    0    0  0.47879790934E-02 -0.49682745409E-02 -0.22066649475E-01  0.10208097596E+01  0.10205479018E+01 0.  0.
     999903    2    3    3    0    0 -0.44445275685E-01 -0.11632230348E+00  0.35865777395E-01  0.13054025031E+00  0.15752528234E-01 0.  0.
         14    1    1    2    0    0 -0.47879790934E-02  0.49682745409E-02  0.22066649475E-01  0.23120240370E-01  0.00000000000E+00 0. -1.
     999901    1    3    3    0    0  0.49233254778E-01  0.11135402894E+00 -0.57932426870E-01  0.89026950932E+00  0.88000000000E+00 0. -1.
        -11    1    4    4    0    0 -0.44448265200E-01 -0.10815833087E+00  0.30821903897E-01  0.12093024310E+00  0.51100000000E-03 0. -1.
         11    1    4    4    0    0  0.29895150892E-05 -0.81639726120E-02  0.50438734981E-02  0.96100072118E-02  0.51100000000E-03 0.  1.
</event>
<event>
 8    1  0.1115874E+005  0.1043930E+01  0.7957747E-01            NaN
         13   -1    0    0    0    0  0.00000000000E+00  0.00000000000E+00  0.74505805969E-08  0.10566000000E+00  0.10566000000E+00 0.  1.
     999900   -1    0    0    0    0 -0.00000000000E+00 -0.00000000000E+00 -0.74505805969E-08  0.93827000000E+00  0.93827000000E+00 0. -1.
     999902    2    1    2    0    0 -0.20395415562E-01  0.87069301906E-02 -0.21763266628E-02  0.10216472711E+01  0.10214042425E+01 0.  0.
     999903    2    3    3    0    0  0.40322278690E-01 -0.52911574263E-01  0.11026036626E+00  0.13028567871E+00  0.19786077359E-01 0.  0.
         14    1    1    2    0    0  0.20395415562E-01 -0.87069301906E-02  0.21763266628E-02  0.22282728896E-01  0.00000000000E+00 0.  1.
     999901    1    3    3    0    0 -0.60717694253E-01  0.61618504454E-01 -0.11243669293E+00  0.89136159240E+00  0.88000000000E+00 0. -1.
        -11    1    4    4    0    0  0.12280259061E-01 -0.68793699505E-02  0.34869808552E-01  0.37607115855E-01  0.51100000000E-03 0. -1.
         11    1    4    4    0    0  0.28042019629E-01 -0.46032204313E-01  0.75390557713E-01  0.92678562850E-01  0.51100000000E-03 0.  1.
</event>
<event>
 8    1  0.1115874E+005  0.1043930E+01  0.7957747E-01            NaN
         13   -1    0    0    0    0  0.00000000000E+00  0.00000000000E+00  0.74505805969E-08  0.10566000000E+00  0.10566000000E+00 0. -1.
     999900   -1    0    0    0    0 -0.00000000000E+00 -0.00000000000E+00 -0.74505805969E-08  0.93827000000E+00  0.93827000000E+00 0. -1.
     999902    2    1    2    0    0  0.48913336368E-02 -0.22092833183E-01 -0.57990155328E-02  0.10205709117E+01  0.10203035523E+01 0.  0.
     999903    2    3    3    0    0 -0.31062043681E-01 -0.19528309801E-01  0.12353646923E+00  0.13038728477E+00  0.19833793321E-01 0.  0.
         14    1    1    2    0    0 -0.48913336368E-02  0.22092833183E-01  0.57990155328E-02  0.23359088251E-01  0.00000000000E+00 0. -1.
     999901    1    3    3    0    0  0.35953377318E-01 -0.25645233810E-02 -0.12933548477E+00  0.89018362698E+00  0.88000000000E+00 0. -1.
        -11    1    4    4    0    0 -0.12465129413E-01 -0.87220266369E-02  0.84074693825E-01  0.85441608498E-01  0.51100000000E-03 0.  1.
         11    1    4    4    0    0 -0.18596914268E-01 -0.10806283165E-01  0.39461775409E-01  0.44945676272E-01  0.51100000000E-03 0. -1.
</event>
<event>
 8    1  0.1115874E+005  0.1043930E+01  0.7957747E-01            NaN
         13   -1    0    0    0    0  0.00000000000E+00  0.00000000000E+00  0.74505805969E-08  0.10566000000E+00  0.10566000000E+00 0. -1.
     999900   -1    0    0    0    0 -0.00000000000E+00 -0.00000000000E+00 -0.74505805969E-08  0.93827000000E+00  0.93827000000E+00 0.  1.
     999902    2    1    2    0    0  0.76928919281E-02  0.22522881928E-01  0.14366304633E-03  0.10201291295E+01  0.10198514399E+01 0.  0.
     999903    2    3    3    0    0  0.31014816144E-01 -0.12246643084E+00 -0.33628040593E-02  0.12795307723E+00  0.20018392012E-01 0.  0.
         14    1    1    2    0    0 -0.76928919281E-02 -0.22522881928E-01 -0.14366304633E-03  0.23800870480E-01  0.00000000000E+00 0.  1.
     999901    1    3    3    0    0 -0.23321924216E-01  0.14498931277E+00  0.35064671056E-02  0.89217605229E+00  0.88000000000E+00 0.  1.
        -11    1    4    4    0    0  0.55258697125E-02 -0.57188874623E-01 -0.63685325227E-02  0.57809358621E-01  0.51100000000E-03 0.  1.
         11    1    4    4    0    0  0.25488946432E-01 -0.65277556216E-01  0.30057284634E-02  0.70143718610E-01  0.51100000000E-03 0. -1.
</event>
<event>
 8    1  0.1115874E+005  0.1043930E+01  0.7957747E-01            NaN
         13   -1    0    0    0    0  0.00000000000E+00  0.00000000000E+00  0.74505805969E-08  0.10566000000E+00  0.10566000000E+00 0. -1.
     999900   -1    0    0    0    0 -0.00000000000E+00 -0.00000000000E+00 -0.74505805969E-08  0.93827000000E+00  0.93827000000E+00 0. -1.
     999902    2    1    2    0    0  0.24721887170E-01  0.57743483567E-02 -0.12590972897E-01  0.10155919090E+01  0.10151964727E+01 0.  0.
     999903    2    3    3    0    0 -0.11830615402E+00  0.28040436719E-01  0.82965786225E-02  0.12352179455E+00  0.20154114750E-01 0.  0.
         14    1    1    2    0    0 -0.24721887170E-01 -0.57743483567E-02  0.12590972897E-01  0.28338091020E-01  0.00000000000E+00 0. -1.
     999901    1    3    3    0    0  0.14302804119E+00 -0.22266088362E-01 -0.20887551519E-01  0.89207011443E+00  0.88000000000E+00 0.  1.
        -11    1    4    4    0    0 -0.14523116799E-01  0.10179772050E-01  0.36178579846E-02  0.18107973325E-01  0.51100000000E-03 0.  1.
         11    1    4    4    0    0 -0.10378303722E+00  0.17860664669E-01  0.46787206379E-02  0.10541382122E+00  0.51100000000E-03 0. -1.
</event>
<event>
 7    1  0.1115874E+005  0.1043930E+01  0.7957747E-01            NaN
         13   -1    0    0    0    0  0.00000000000E+00  0.00000000000E+00  0.74505805969E-08  0.10566000000E+00  0.10566000000E+00 0. -1.
     999900   -1    0    0    0    0 -0.00000000000E+00 -0.00000000000E+00 -0.74505805969E-08  0.93827000000E+00  0.93827000000E+00 0. -1.
     999902    2    1    2    0    0 -0.11061625449E-01 -0.17183895198E-01  0.12676157676E-01  0.10198814910E+01  0.10195979232E+01 0.  0.
         14    1    1    2    0    0  0.11061625449E-01  0.17183895198E-01 -0.12676157676E-01  0.24048509001E-01  0.00000000000E+00 0.  1.
     999901    1    3    3    0    0  0.48764359622E-01 -0.96636752570E-01 -0.55200043835E-01  0.88834884452E+00  0.88000000000E+00 0. -1.
        -11    1    3    3    0    0 -0.18301437914E-01  0.28021881400E-01  0.54699485085E-01  0.64128490209E-01  0.51100000000E-03 0.  1.
         11    1    3    3    0    0 -0.41524547157E-01  0.51430975972E-01  0.13176716426E-01  0.67404156272E-01  0.51100000000E-03 0. -1.
</event>
<event>
 8    1  0.1115874E+005  0.1043930E+01  0.7957747E-01            NaN
         13   -1    0    0    0    0  0.00000000000E+00  0.00000000000E+00  0.74505805969E-08  0.10566000000E+00  0.10566000000E+00 0. -1.
     999900   -1    0    0    0    0 -0.00000000000E+00 -0.00000000000E+00 -0.74505805969E-08  0.93827000000E+00  0.93827000000E+00 0. -1.
     999902    2    1    2    0    0 -0.17953573769E-01  0.17113980617E-03 -0.12305877111E-01  0.10221631741E+01  0.10219313870E+01 0.  0.
     999903    2    3    3    0    0 -0.73785690851E-01  0.86961523260E-01  0.64804050268E-01  0.13278376298E+00  0.20623483649E-01 0.  0.
         14    1    1    2    0    0  0.17953573769E-01 -0.17113980617E-03  0.12305877111E-01  0.21766825938E-01  0.00000000000E+00 0. -1.
     999901    1    3    3    0    0  0.55832117082E-01 -0.86790383454E-01 -0.77109927379E-01  0.88937941108E+00  0.88000000000E+00 0. -1.
        -11    1    4    4    0    0 -0.17491951064E-01  0.25568731115E-01  0.27839433743E-01  0.41653613948E-01  0.51100000000E-03 0. -1.
         11    1    4    4    0    0 -0.56293739787E-01  0.61392792145E-01  0.36964616525E-01  0.91130149031E-01  0.51100000000E-03 0.  1.
</event>
<event>
 8    1  0.1115874E+005  0.1043930E+01  0.7957747E-01            NaN
         13   -1    0    0    0    0  0.00000000000E+00  0.00000000000E+00  0.74505805969E-08  0.10566000000E+00  0.10566000000E+00 0. -1.
     999900   -1    0    0    0    0 -0.00000000000E+00 -0.00000000000E+00 -0.74505805969E-08  0.93827000000E+00  0.93827000000E+00 0. -1.
     999902    2    1    2    0    0 -0.15608653692E-01  0.70230536482E-02  0.17217734753E-01  0.10196523613E+01  0.10193632984E+01 0.  0.
     999903    2    3    3    0    0 -0.43697774961E-01 -0.10180575162E+00 -0.62942614599E-01  0.12888954816E+00  0.19412271752E-01 0.  0.
         14    1    1    2    0    0  0.15608653692E-01 -0.70230536482E-02 -0.17217734753E-01  0.24277638737E-01  0.00000000000E+00 0.  1.
     999901    1    3    3    0    0  0.28089121269E-01  0.10882880527E+00  0.80160349353E-01  0.89076281310E+00  0.88000000000E+00 0.  1.
        -11    1    4    4    0    0 -0.15861566341E-01 -0.56682310296E-01 -0.39693587771E-01  0.70995180248E-01  0.51100000000E-03 0. -1.
         11    1    4    4    0    0 -0.27836208620E-01 -0.45123441322E-01 -0.23249026828E-01  0.57894367917E-01  0.51100000000E-03 0.  1.
</event>
<event>
 8    1  0.1115874E+005  0.1043930E+01  0.7957747E-01            NaN
         13   -1    0    0    0    0  0.00000000000E+00  0.00000000000E+00  0.74505805969E-08  0.10566000000E+00  0.10566000000E+00 0.  1.
     999900   -1    0    0    0    0 -0.00000000000E+00 -0.00000000000E+00 -0.74505805969E-08  0.93827000000E+00  0.93827000000E+00 0.  1.
     999902    2    1    2    0    0  0.19269623723E-01  0.10329772730E-01 -0.20767839249E-04  0.10220662621E+01  0.10218323841E+01 0.  0.
     999903    2    3    3    0    0 -0.73080148208E-01 -0.73959103624E-01  0.75576855116E-01  0.13001912454E+00  0.19556447696E-01 0.  0.
         14    1    1    2    0    0 -0.19269623723E-01 -0.10329772730E-01  0.20767839249E-04  0.21863737887E-01  0.00000000000E+00 0. -1.
     999901    1    3    3    0    0  0.92349771931E-01  0.84288876354E-01 -0.75597622955E-01  0.89204713757E+00  0.88000000000E+00 0. -1.
        -11    1    4    4    0    0 -0.29868457452E-01 -0.41165578947E-01  0.29197880311E-01  0.58647310051E-01  0.51100000000E-03 0.  1.
         11    1    4    4    0    0 -0.43211690756E-01 -0.32793524677E-01  0.46378974804E-01  0.71371814491E-01  0.51100000000E-03 0. -1.
</event>
<event>
 8    1  0.1115874E+005  0.1043930E+01  0.7957747E-01            NaN
         13   -1    0    0    0    0  0.00000000000E+00  0.00000000000E+00  0.74505805969E-08  0.10566000000E+00  0.10566000000E+00 0. -1.
     999900   -1    0    0    0    0 -0.00000000000E+00 -0.00000000000E+00 -0.74505805969E-08  0.93827000000E+00  0.93827000000E+00 0.  1.
     999902    2    1    2    0    0  0.14749135685E-01  0.17285256914E-01 -0.66949345110E-02  0.10202416219E+01  0.10199665817E+01 0.  0.
     999903    2    3    3    0    0 -0.11776678285E+00  0.29811075570E-01  0.38868451709E-01  0.12906633779E+00  0.19739494528E-01 0.  0.
         14    1    1    2    0    0 -0.14749135685E-01 -0.17285256914E-01  0.66949345110E-02  0.23688378124E-01  0.00000000000E+00 0.  1.
     999901    1    3    3    0    0  0.13251591853E+00 -0.12525818656E-01 -0.45563386220E-01  0.89117528408E+00  0.88000000000E+00 0.  1.
        -11    1    4    4    0    0 -0.21689432457E-01  0.11105146444E-01  0.19411939334E-02  0.24449644430E-01  0.51100000000E-03 0. -1.
         11    1    4    4    0    0 -0.96077350390E-01  0.18705929126E-01  0.36927257775E-01  0.10461669336E+00  0.51100000000E-03 0.  1.
</event>
<event>
 8    1  0.1115874E+005  0.1043930E+01  0.7957747E-01            NaN
         13   -1    0    0    0    0  0.00000000000E+00  0.00000000000E+00  0.74505805969E-08  0.10566000000E+00  0.10566000000E+00 0. -1.
     999900   -1    0    0    0    0 -0.00000000000E+00 -0.00000000000E+00 -0.74505805969E-08  0.93827000000E+00  0.93827000000E+00 0.  1.
     999902    2    1    2    0    0 -0.16370362608E-01 -0.16457892263E-01  0.38800158225E-03  0.10207135934E+01  0.10204495275E+01 0.  0.
     999903    2    3    3    0    0 -0.38374811460E-01 -0.12624366342E+00 -0.44600776984E-02  0.13360558691E+00  0.20505410328E-01 0.  0.
         14    1    1    2    0    0  0.16370362608E-01  0.16457892263E-01 -0.38800158225E-03  0.23216406588E-01  0.00000000000E+00 0. -1.
     999901    1    3    3    0    0  0.22004448852E-01  0.10978577116E+00  0.48480792807E-02  0.88710800650E+00  0.88000000000E+00 0. -1.
        -11    1    4    4    0    0 -0.18018155247E-01 -0.91473838407E-01 -0.36083489902E-02  0.93302724155E-01  0.51100000000E-03 0. -1.
         11    1    4    4    0    0 -0.20356656212E-01 -0.34769825016E-01 -0.85172870827E-03  0.40302862759E-01  0.51100000000E-03 0.  1.
</event>
<event>
 8    1  0.1115874E+005  0.1043930E+01  0.7957747E-01            NaN
         13   -1    0    0    0    0  0.00000000000E+00  0.00000000000E+00  0.74505805969E-08  0.10566000000E+00  0.10566000000E+00 0.  1.
     999900   -1    0    0    0    0 -0.00000000000E+00 -0.00000000000E+00 -0.74505805969E-08  0.93827000000E+00  0.93827000000E+00 0.  1.
     999902    2    1    2    0    0  0.17126212414E-02  0.50493090965E-02  0.23372528771E-01  0.10199570216E+01  0.10196752533E+01 0.  0.
     999903    2    3    3    0    0 -0.11319585185E+00 -0.56436591594E-01 -0.18601474639E-01  0.12936941210E+00  0.19800004567E-01 0.  0.
         14    1    1    2    0    0 -0.17126212414E-02 -0.50493090965E-02 -0.23372528771E-01  0.23972978435E-01  0.00000000000E+00 0. -1.
     999901    1    3    3    0    0  0.11490847309E+00  0.61485900691E-01  0.41974003410E-01  0.89058760947E+00  0.88000000000E+00 0. -1.
        -11    1    4    4    0    0 -0.46998129156E-01 -0.12912019472E-01 -0.52176290459E-02  0.49020701391E-01  0.51100000000E-03 0.  1.
         11    1    4    4    0    0 -0.66197722695E-01 -0.43524572123E-01 -0.13383845593E-01  0.80348710708E-01  0.51100000000E-03 0. -1.
</event>
<event>
 8    1  0.1115874E+005  0.1043930E+01  0.7957747E-01            NaN
         13   -1    0    0    0    0  0.00000000000E+00  0.00000000000E+00  0.74505805969E-08  0.10566000000E+00  0.10566000000E+00 0. -1.
     999900   -1    0    0    0    0 -0.00000000000E+00 -0.00000000000E+00 -0.74505805969E-08  0.93827000000E+00  0.93827000000E+00 0.  1.
     999902    2    1    2    0    0 -0.16473743185E-01 -0.10342901427E-01  0.13524269521E-01  0.10202389534E+01  0.10199638505E+01 0.  0.
     999903    2    3    3    0    0 -0.72036445854E-01 -0.17518225472E-01 -0.10500345386E+00  0.13052690983E+00  0.22702667539E-01 0.  0.
         14    1    1    2    0    0  0.16473743185E-01  0.10342901427E-01 -0.13524269521E-01  0.23691046632E-01  0.00000000000E+00 0. -1.
     999901    1    3    3    0    0  0.55562702669E-01  0.71753240445E-02  0.11852772338E+00  0.88971204354E+00  0.88000000000E+00 0. -1.
        -11    1    4    4    0    0 -0.40132271033E-01 -0.47266817875E-02 -0.39286042489E-01  0.56361289503E-01  0.51100000000E-03 0. -1.
         11    1    4    4    0    0 -0.31904174821E-01 -0.12791543684E-01 -0.65717411369E-01  0.74165620329E-01  0.51100000000E-03 0.  1.
</event>
<event>
 8    1  0.1115874E+005  0.1043930E+01  0.7957747E-01            NaN
         13   -1    0    0    0    0  0.00000000000E+00  0.00000000000E+00  0.74505805969E-08  0.10566000000E+00  0.10566000000E+00 0.  1.
     999900   -1    0    0    0    0 -0.00000000000E+00 -0.00000000000E+00 -0.74505805969E-08  0.93827000000E+00  0.93827000000E+00 0. -1.
     999902    2    1    2    0    0 -0.65178858862E-03  0.24251171029E-01  0.47443471004E-02  0.10192105147E+01  0.10189107028E+01 0.  0.
     999903    2    3    3    0    0 -0.63113693011E-01  0.99957738792E-01  0.55697354996E-01  0.13228933278E+00  0.20576307338E-01 0.  0.
         14    1    1    2    0    0  0.65178858862E-03 -0.24251171029E-01 -0.47443471004E-02  0.24719485311E-01  0.00000000000E+00 0.  1.
     999901    1    3    3    0    0  0.62461904423E-01 -0.75706567762E-01 -0.50953007895E-01  0.88692118191E+00  0.88000000000E+00 0. -1.
        -11    1    4    4    0    0 -0.70550061828E-02  0.26969412156E-01  0.14983179353E-01  0.31652473660E-01  0.51100000000E-03 0. -1.
         11    1    4    4    0    0 -0.56058686829E-01  0.72988326636E-01  0.40714175643E-01  0.10063685912E+00  0.51100000000E-03 0.  1.
</event>
<event>
 8    1  0.1115874E+005  0.1043930E+01  0.7957747E-01            NaN
         13   -1    0    0    0    0  0.00000000000E+00  0.00000000000E+00  0.74505805969E-08  0.10566000000E+00  0.10566000000E+00 0.  1.
     999900   -1    0    0    0    0 -0.00000000000E+00 -0.00000000000E+00 -0.74505805969E-08  0.93827000000E+00  0.93827000000E+00 0.  1.
     999902    2    1    2    0    0  0.19673074332E-01  0.79469101530E-02  0.10143759258E-01  0.10204123665E+01  0.10201413228E+01 0.  0.
     999903    2    3    3    0    0  0.82773304573E-01 -0.99584066032E-01  0.12756533144E-01  0.13162027803E+00  0.19818231346E-01 0.  0.
         14    1    1    2    0    0 -0.19673074332E-01 -0.79469101530E-02 -0.10143759258E-01  0.23517633524E-01  0.00000000000E+00 0. -1.
     999901    1    3    3    0    0 -0.63100230240E-01  0.10753097619E+00 -0.26127738853E-02  0.88879208845E+00  0.88000000000E+00 0. -1.
        -11    1    4    4    0    0  0.55574158158E-01 -0.65051562905E-01 -0.97381141622E-03  0.85565193397E-01  0.51100000000E-03 0. -1.
         11    1    4    4    0    0  0.27199146414E-01 -0.34532503128E-01  0.13730344560E-01  0.46055084634E-01  0.51100000000E-03 0.  1.
</event>
<event>
 8    1  0.1115874E+005  0.1043930E+01  0.7957747E-01            NaN
         13   -1    0    0    0    0  0.00000000000E+00  0.00000000000E+00  0.74505805969E-08  0.10566000000E+00  0.10566000000E+00 0.  1.
     999900   -1    0    0    0    0 -0.00000000000E+00 -0.00000000000E+00 -0.74505805969E-08  0.93827000000E+00  0.93827000000E+00 0. -1.
     999902    2    1    2    0    0  0.86653463216E-02 -0.21570838180E-01  0.59201293811E-02  0.10199417275E+01  0.10196595953E+01 0.  0.
     999903    2    3    3    0    0 -0.56355061664E-02  0.27725906797E-01 -0.12412978552E+00  0.12890431872E+00  0.20189970082E-01 0.  0.
         14    1    1    2    0    0 -0.86653463216E-02  0.21570838180E-01 -0.59201293811E-02  0.23988272521E-01  0.00000000000E+00 0.  1.
     999901    1    3    3    0    0  0.14300852488E-01 -0.49296744977E-01  0.13004991491E+00  0.89103740876E+00  0.88000000000E+00 0.  1.
        -11    1    4    4    0    0 -0.12168323984E-01  0.97231969663E-02 -0.53769020565E-01  0.55981937813E-01  0.51100000000E-03 0. -1.
         11    1    4    4    0    0  0.65328178173E-02  0.18002709831E-01 -0.70360764960E-01  0.72922380903E-01  0.51100000000E-03 0.  1.
</event>
<event>
 8    1  0.1115874E+005  0.1043930E+01  0.7957747E-01            NaN
         13   -1    0    0    0    0  0.00000000000E+00  0.00000000000E+00  0.74505805969E-08  0.10566000000E+00  0.10566000000E+00 0.  1.
     999900   -1    0    0    0    0 -0.00000000000E+00 -0.00000000000E+00 -0.74505805969E-08  0.93827000000E+00  0.93827000000E+00 0.  1.
     999902    2    1    2    0    0  0.14877709708E-01 -0.10282503102E-02  0.19545525492E-01  0.10193448193E+01  0.10190482959E+01 0.  0.
     999903    2    3    3    0    0  0.10936790372E+00  0.41125265481E-01 -0.53594016494E-01  0.13026962095E+00  0.21100467156E-01 0.  0.
         14    1    1    2    0    0 -0.14877709708E-01  0.10282503102E-02 -0.19545525492E-01  0.24585180732E-01  0.00000000000E+00 0. -1.
     999901    1    3    3    0    0 -0.94490194012E-01 -0.42153515791E-01  0.73139541986E-01  0.88907519832E+00  0.88000000000E+00 0. -1.
        -11    1    4    4    0    0  0.81177945255E-01  0.35446768988E-01 -0.48731577277E-01  0.10110074170E+00  0.51100000000E-03 0. -1.
         11    1    4    4    0    0  0.28189958465E-01  0.56784964928E-02 -0.48624392167E-02  0.29168879252E-01  0.51100000000E-03 0.  1.
</event>
<event>
 8    1  0.1115874E+005  0.1043930E+01  0.7957747E-01            NaN
         13   -1    0    0    0    0  0.00000000000E+00  0.00000000000E+00  0.74505805969E-08  0.10566000000E+00  0.10566000000E+00 0. -1.
     999900   -1    0    0    0    0 -0.00000000000E+00 -0.00000000000E+00 -0.74505805969E-08  0.93827000000E+00  0.93827000000E+00 0.  1.
     999902    2    1    2    0    0  0.36526006158E-02  0.24890037404E-01  0.59205059975E-02  0.10180860869E+01  0.10177580127E+01 0.  0.
     999903    2    3    3    0    0  0.57144946293E-02  0.12328135520E+00 -0.40290824371E-01  0.13139527840E+00  0.20258841703E-01 0.  0.
         14    1    1    2    0    0 -0.36526006158E-02 -0.24890037404E-01 -0.59205059975E-02  0.25843913104E-01  0.00000000000E+00 0.  1.
     999901    1    3    3    0    0 -0.20618940135E-02 -0.98391317797E-01  0.46211330368E-01  0.88669080850E+00  0.88000000000E+00 0. -1.
        -11    1    4    4    0    0  0.65418553125E-02  0.56991235732E-01 -0.89439736843E-02  0.58060766508E-01  0.51100000000E-03 0.  1.
         11    1    4    4    0    0 -0.82736068315E-03  0.66290119469E-01 -0.31346850686E-01  0.73334511888E-01  0.51100000000E-03 0. -1.
</event>
<event>
 8    1  0.1115874E+005  0.1043930E+01  0.7957747E-01            NaN
         13   -1    0    0    0    0  0.00000000000E+00  0.00000000000E+00  0.74505805969E-08  0.10566000000E+00  0.10566000000E+00 0. -1.
     999900   -1    0    0    0    0 -0.00000000000E+00 -0.00000000000E+00 -0.74505805969E-08  0.93827000000E+00  0.93827000000E+00 0. -1.
     999902    2    1    2    0    0  0.12631468981E-02 -0.21867988918E-01 -0.10361640193E-01  0.10196984489E+01  0.10194104957E+01 0.  0.
     999903    2    3    3    0    0  0.82767181112E-02 -0.25196236958E-01 -0.12761207016E+00  0.13188769729E+00  0.20153655391E-01 0.  0.
         14    1    1    2    0    0 -0.12631468981E-02  0.21867988918E-01  0.10361640193E-01  0.24231551062E-01  0.00000000000E+00 0. -1.
     999901    1    3    3    0    0 -0.70135712131E-02  0.33282480401E-02  0.11725042997E+00  0.88781075165E+00  0.88000000000E+00 0.  1.
        -11    1    4    4    0    0  0.77883939802E-02 -0.27834322195E-01 -0.98682554701E-01  0.10282954972E+00  0.51100000000E-03 0. -1.
         11    1    4    4    0    0  0.48832413094E-03  0.26380852372E-02 -0.28929515460E-01  0.29058147565E-01  0.51100000000E-03 0.  1.
</event>
<event>
 8    1  0.1115874E+005  0.1043930E+01  0.7957747E-01            NaN
         13   -1    0    0    0    0  0.00000000000E+00  0.00000000000E+00  0.74505805969E-08  0.10566000000E+00  0.10566000000E+00 0. -1.
     999900   -1    0    0    0    0 -0.00000000000E+00 -0.00000000000E+00 -0.74505805969E-08  0.93827000000E+00  0.93827000000E+00 0. -1.
     999902    2    1    2    0    0  0.20908842908E-01  0.42973943310E-02  0.10483811952E-01  0.10201485446E+01  0.10198713131E+01 0.  0.
     999903    2    3    3    0    0  0.40878636870E-01 -0.10690159169E+00  0.61564155281E-01  0.13145669210E+00  0.19791498765E-01 0.  0.
         14    1    1    2    0    0 -0.20908842908E-01 -0.42973943310E-02 -0.10483811952E-01  0.23781455440E-01  0.00000000000E+00 0.  1.
     999901    1    3    3    0    0 -0.19969793962E-01  0.11119898602E+00 -0.51080343329E-01  0.88869185246E+00  0.88000000000E+00 0. -1.
        -11    1    4    4    0    0  0.30284048111E-01 -0.90165391351E-01  0.57759336889E-01  0.11128038231E+00  0.51100000000E-03 0. -1.
         11    1    4    4    0    0  0.10594588759E-01 -0.16736200337E-01  0.38048183923E-02  0.20176309789E-01  0.51100000000E-03 0.  1.
</event>
<event>
 8    1  0.1115874E+005  0.1043930E+01  0.7957747E-01            NaN
         13   -1    0    0    0    0  0.00000000000E+00  0.00000000000E+00  0.74505805969E-08  0.10566000000E+00  0.10566000000E+00 0.  1.
     999900   -1    0    0    0    0 -0.00000000000E+00 -0.00000000000E+00 -0.74505805969E-08  0.93827000000E+00  0.93827000000E+00 0. -1.
     999902    2    1    2    0    0 -0.12955395176E-01  0.12187584921E-01  0.15702433798E-01  0.10202035186E+01  0.10199275825E+01 0.  0.
     999903    2    3    3    0    0 -0.87632821214E-02  0.46387095809E-01  0.12275511666E+00  0.13304656677E+00  0.20100061935E-01 0.  0.
         14    1    1    2    0    0  0.12955395176E-01 -0.12187584921E-01 -0.15702433798E-01  0.23726481357E-01  0.00000000000E+00 0. -1.
     999901    1    3    3    0    0 -0.41921130545E-02 -0.34199510888E-01 -0.10705268287E+00  0.88715695188E+00  0.88000000000E+00 0. -1.
        -11    1    4    4    0    0  0.45632991228E-02  0.27189012958E-01  0.74191771728E-01  0.79150149953E-01  0.51100000000E-03 0. -1.
         11    1    4    4    0    0 -0.13326581244E-01  0.19198082852E-01  0.48563344936E-01  0.53896416812E-01  0.51100000000E-03 0.  1.
</event>
<event>
 8    1  0.1115874E+005  0.1043930E+01  0.7957747E-01            NaN
         13   -1    0    0    0    0  0.00000000000E+00  0.00000000000E+00  0.74505805969E-08  0.10566000000E+00  0.10566000000E+00 0.  1.
     999900   -1    0    0    0    0 -0.00000000000E+00 -0.00000000000E+00 -0.74505805969E-08  0.93827000000E+00  0.93827000000E+00 0. -1.
     999902    2    1    2    0    0 -0.30615399511E-01  0.53571601646E-02  0.15085080371E-01  0.10093820406E+01  0.10087906335E+01 0.  0.
     999903    2    3    3    0    0 -0.28460313983E-01 -0.10771500530E+00 -0.40097632074E-01  0.12043035978E+00  0.21980437207E-01 0.  0.
         14    1    1    2    0    0  0.30615399511E-01 -0.53571601646E-02 -0.15085080371E-01  0.34547959449E-01  0.00000000000E+00 0. -1.
     999901    1    3    3    0    0 -0.21550855284E-02  0.11307216546E+00  0.55182712445E-01  0.88895168077E+00  0.88000000000E+00 0.  1.
        -11    1    4    4    0    0 -0.35401888495E-02 -0.41207654772E-01 -0.23194439502E-01  0.47422008537E-01  0.51100000000E-03 0.  1.
         11    1    4    4    0    0 -0.24920125133E-01 -0.66507350527E-01 -0.16903192571E-01  0.73008351241E-01  0.51100000000E-03 0. -1.
</event>
<event>
 8    1  0.1115874E+005  0.1043930E+01  0.7957747E-01            NaN
         13   -1    0    0    0    0  0.00000000000E+00  0.00000000000E+00  0.74505805969E-08  0.10566000000E+00  0.10566000000E+00 0.  1.
     999900   -1    0    0    0    0 -0.00000000000E+00 -0.00000000000E+00 -0.74505805969E-08  0.93827000000E+00  0.93827000000E+00 0. -1.
     999902    2    1    2    0    0  0.11529438826E-01 -0.19975145640E-02 -0.20551966179E-01  0.10202804474E+01  0.10200063186E+01 0.  0.
     999903    2    3    3    0    0  0.11319732604E+00 -0.14841325753E-01  0.60243999253E-01  0.13065731888E+00  0.20201385092E-01 0.  0.
         14    1    1    2    0    0 -0.11529438826E-01  0.19975145640E-02  0.20551966179E-01  0.23649552594E-01  0.00000000000E+00 0.  1.
     999901    1    3    3    0    0 -0.10166788721E+00  0.12843811189E-01 -0.80795965432E-01  0.88962312852E+00  0.88000000000E+00 0.  1.
        -11    1    4    4    0    0  0.88056082162E-01 -0.41324556994E-02  0.50776386699E-01  0.10173226314E+00  0.51100000000E-03 0. -1.
         11    1    4    4    0    0  0.25141243874E-01 -0.10708870054E-01  0.94676125539E-02  0.28925055744E-01  0.51100000000E-03 0.  1.
</event>
<event>
 8    1  0.1115874E+005  0.1043930E+01  0.7957747E-01            NaN
         13   -1    0    0    0    0  0.00000000000E+00  0.00000000000E+00  0.74505805969E-08  0.10566000000E+00  0.10566000000E+00 0. -1.
     999900   -1    0    0    0    0 -0.00000000000E+00 -0.00000000000E+00 -0.74505805969E-08  0.93827000000E+00  0.93827000000E+00 0. -1.
     999902    2    1    2    0    0 -0.10206487919E-02  0.12687699696E-01 -0.19139509401E-01  0.10209443465E+01  0.10206855629E+01 0.  0.
     999903    2    3    3    0    0  0.35679486827E-01  0.12501778341E+00 -0.19920998196E-01  0.13304482605E+00  0.20040150186E-01 0.  0.
         14    1    1    2    0    0  0.10206487919E-02 -0.12687699696E-01  0.19139509401E-01  0.22985653517E-01  0.00000000000E+00 0. -1.
     999901    1    3    3    0    0 -0.36700135619E-01 -0.11233008372E+00  0.78148879510E-03  0.88789952043E+00  0.88000000000E+00 0.  1.
        -11    1    4    4    0    0  0.34034917501E-01  0.86077652585E-01 -0.14447676891E-01  0.93684226914E-01  0.51100000000E-03 0. -1.
         11    1    4    4    0    0  0.16445693258E-02  0.38940130828E-01 -0.54733213053E-02  0.39360599135E-01  0.51100000000E-03 0.  1.
</event>
<event>
 8    1  0.1115874E+005  0.1043930E+01  0.7957747E-01            NaN
         13   -1    0    0    0    0  0.00000000000E+00  0.00000000000E+00  0.74505805969E-08  0.10566000000E+00  0.10566000000E+00 0.  1.
     999900   -1    0    0    0    0 -0.00000000000E+00 -0.00000000000E+00 -0.74505805969E-08  0.93827000000E+00  0.93827000000E+00 0. -1.
     999902    2    1    2    0    0 -0.18363113292E-01  0.12384335704E-01 -0.89689851267E-02  0.10200340088E+01  0.10197540688E+01 0.  0.
     999903    2    3    3    0    0  0.11761281833E+00  0.24263959151E-01 -0.42218048751E-01  0.12889087796E+00  0.20223254753E-01 0.  0.
         14    1    1    2    0    0  0.18363113292E-01 -0.12384335704E-01  0.89689851267E-02  0.23895991187E-01  0.00000000000E+00 0. -1.
     999901    1    3    3    0    0 -0.13597593162E+00 -0.11879623448E-01  0.33249063624E-01  0.89114313085E+00  0.88000000000E+00 0.  1.
        -11    1    4    4    0    0  0.73265748913E-01  0.23568258958E-01 -0.21347368257E-01  0.79870545551E-01  0.51100000000E-03 0.  1.
         11    1    4    4    0    0  0.44347069414E-01  0.69570019331E-03 -0.20870680493E-01  0.49020332411E-01  0.51100000000E-03 0. -1.
</event>
<event>
 8    1  0.1115874E+005  0.1043930E+01  0.7957747E-01            NaN
         13   -1    0    0    0    0  0.00000000000E+00  0.00000000000E+00  0.74505805969E-08  0.10566000000E+00  0.10566000000E+00 0.  1.
     999900   -1    0    0    0    0 -0.00000000000E+00 -0.00000000000E+00 -0.74505805969E-08  0.93827000000E+00  0.93827000000E+00 0.  1.
     999902    2    1    2    0    0 -0.18456854609E-01 -0.19319536642E-01 -0.65289890592E-04  0.10172110135E+01  0.10168600404E+01 0.  0.
     999903    2    3    3    0    0  0.55959889908E-01 -0.88519082351E-01  0.71063574698E-01  0.12851210813E+00  0.22320238962E-01 0.  0.
         14    1    1    2    0    0  0.18456854609E-01  0.19319536642E-01  0.65289890592E-04  0.26718986524E-01  0.00000000000E+00 0.  1.
     999901    1    3    3    0    0 -0.74416744518E-01  0.69199545709E-01 -0.71128864589E-01  0.88869890535E+00  0.88000000000E+00 0. -1.
        -11    1    4    4    0    0  0.40957310327E-01 -0.64967182638E-01  0.63295397956E-01  0.99522884868E-01  0.51100000000E-03 0. -1.
         11    1    4    4    0    0  0.15002579581E-01 -0.23551899713E-01  0.77681767427E-02  0.28989223258E-01  0.51100000000E-03 0.  1.
</event>
<event>
 8    1  0.1115874E+005  0.1043930E+01  0.7957747E-01            NaN
         13   -1    0    0    0    0  0.00000000000E+00  0.00000000000E+00  0.74505805969E-08  0.10566000000E+00  0.10566000000E+00 0.  1.
     999900   -1    0    0    0    0 -0.00000000000E+00 -0.00000000000E+00 -0.74505805969E-08  0.93827000000E+00  0.93827000000E+00 0.  1.
     999902    2    1    2    0    0 -0.22269594472E-01 -0.67215593216E-02  0.34462334232E-02  0.10204142452E+01  0.10201432454E+01 0.  0.
     999903    2    3    3    0    0  0.39094465687E-01 -0.12288080464E+00 -0.11017473214E-04  0.13065558653E+00  0.21043116972E-01 0.  0.
         14    1    1    2    0    0  0.22269594472E-01  0.67215593216E-02 -0.34462334232E-02  0.23515754771E-01  0.00000000000E+00 0.  1.
     999901    1    3    3    0    0 -0.61364060158E-01  0.11615924532E+00  0.34572508964E-02  0.88975865870E+00  0.88000000000E+00 0. -1.
        -11    1    4    4    0    0  0.10788923963E-01 -0.66955579493E-01 -0.31526398600E-02  0.67894408935E-01  0.51100000000E-03 0. -1.
         11    1    4    4    0    0  0.28305541724E-01 -0.55925225151E-01  0.31416223868E-02  0.62761177591E-01  0.51100000000E-03 0.  1.
</event>
<event>
 8    1  0.1115874E+005  0.1043930E+01  0.7957747E-01            NaN
         13   -1    0    0    0    0  0.00000000000E+00  0.00000000000E+00  0.74505805969E-08  0.10566000000E+00  0.10566000000E+00 0. -1.
     999900   -1    0    0    0    0 -0.00000000000E+00 -0.00000000000E+00 -0.74505805969E-08  0.93827000000E+00  0.93827000000E+00 0. -1.
     999902    2    1    2    0    0  0.20810703587E-01 -0.40050506275E-02 -0.10235756244E-01  0.10203949937E+01  0.10201235448E+01 0.  0.
     999903    2    3    3    0    0  0.82796982155E-01  0.93837348514E-01  0.36057838137E-01  0.13159888062E+00  0.18902630999E-01 0.  0.
         14    1    1    2    0    0 -0.20810703587E-01  0.40050506275E-02  0.10235756244E-01  0.23535006271E-01  0.00000000000E+00 0.  1.
     999901    1    3    3    0    0 -0.61986278568E-01 -0.97842399141E-01 -0.46293594381E-01  0.88879611311E+00  0.88000000000E+00 0.  1.
        -11    1    4    4    0    0  0.31816784971E-01  0.36273860761E-01  0.44379783028E-02  0.48456759620E-01  0.51100000000E-03 0.  1.
         11    1    4    4    0    0  0.50980197183E-01  0.57563487753E-01  0.31619859834E-01  0.83142120998E-01  0.51100000000E-03 0. -1.
</event>
<event>
 8    1  0.1115874E+005  0.1043930E+01  0.7957747E-01            NaN
         13   -1    0    0    0    0  0.00000000000E+00  0.00000000000E+00  0.74505805969E-08  0.10566000000E+00  0.10566000000E+00 0.  1.
     999900   -1    0    0    0    0 -0.00000000000E+00 -0.00000000000E+00 -0.74505805969E-08  0.93827000000E+00  0.93827000000E+00 0.  1.
     999902    2    1    2    0    0 -0.19642446791E-01  0.86016100495E-02 -0.12689307201E-01  0.10190135009E+01  0.10187088313E+01 0.  0.
     999903    2    3    3    0    0 -0.13805334727E-04 -0.11749918813E+00  0.45368752575E-01  0.12791449786E+00  0.22309989938E-01 0.  0.
         14    1    1    2    0    0  0.19642446791E-01 -0.86016100495E-02  0.12689307201E-01  0.24916499124E-01  0.00000000000E+00 0.  1.
     999901    1    3    3    0    0 -0.19628641456E-01  0.12610079818E+00 -0.58058059775E-01  0.89109900301E+00  0.88000000000E+00 0.  1.
        -11    1    4    4    0    0 -0.90520955626E-02 -0.73550994289E-01  0.34507101312E-01  0.81747723864E-01  0.51100000000E-03 0.  1.
         11    1    4    4    0    0  0.90382902279E-02 -0.43948193843E-01  0.10861651262E-01  0.46166773998E-01  0.51100000000E-03 0. -1.
</event>
<event>
 8    1  0.1115874E+005  0.1043930E+01  0.7957747E-01            NaN
         13   -1    0    0    0    0  0.00000000000E+00  0.00000000000E+00  0.74505805969E-08  0.10566000000E+00  0.10566000000E+00 0.  1.
     999900   -1    0    0    0    0 -0.00000000000E+00 -0.00000000000E+00 -0.74505805969E-08  0.93827000000E+00  0.93827000000E+00 0.  1.
     999902    2    1    2    0    0 -0.65435027325E-02 -0.25010553504E-02  0.23594033348E-01  0.10193179884E+01  0.10190208096E+01 0.  0.
     999903    2    3    3    0    0 -0.87494926392E-01  0.87813798091E-01 -0.30824632531E-01  0.12933411385E+00  0.20261533880E-01 0.  0.
         14    1    1    2    0    0  0.65435027325E-02  0.25010553504E-02 -0.23594033348E-01  0.24612011610E-01  0.00000000000E+00 0. -1.
     999901    1    3    3    0    0  0.80951423660E-01 -0.90314853442E-01  0.54418665878E-01  0.88998387454E+00  0.88000000000E+00 0. -1.
        -11    1    4    4    0    0 -0.74409689223E-01  0.75821263470E-01 -0.18792236703E-01  0.10788454535E+00  0.51100000000E-03 0. -1.
         11    1    4    4    0    0 -0.13085237169E-01  0.11992534621E-01 -0.12032395828E-01  0.21449568499E-01  0.51100000000E-03 0.  1.
</event>
<event>
 8    1  0.1115874E+005  0.1043930E+01  0.7957747E-01            NaN
         13   -1    0    0    0    0  0.00000000000E+00  0.00000000000E+00  0.74505805969E-08  0.10566000000E+00  0.10566000000E+00 0.  1.
     999900   -1    0    0    0    0 -0.00000000000E+00 -0.00000000000E+00 -0.74505805969E-08  0.93827000000E+00  0.93827000000E+00 0. -1.
     999902    2    1    2    0    0 -0.11594825898E-01  0.15113214671E-01 -0.14452646043E-01  0.10200191610E+01  0.10197388688E+01 0.  0.
     999903    2    3    3    0    0 -0.40772773542E-01 -0.32767578308E-01 -0.11947456317E+00  0.13200253611E+00  0.20355958455E-01 0.  0.
         14    1    1    2    0    0  0.11594825898E-01 -0.15113214671E-01  0.14452646043E-01  0.23910839026E-01  0.00000000000E+00 0.  1.
     999901    1    3    3    0    0  0.29177947645E-01  0.47880792978E-01  0.10502191712E+00  0.88801662487E+00  0.88000000000E+00 0.  1.
        -11    1    4    4    0    0 -0.98295894584E-02 -0.20383252403E-01 -0.43486590269E-01  0.49024916743E-01  0.51100000000E-03 0.  1.
         11    1    4    4    0    0 -0.30943184084E-01 -0.12384325904E-01 -0.75987972896E-01  0.82977619363E-01  0.51100000000E-03 0. -1.
</event>
<event>
 8    1  0.1115874E+005  0.1043930E+01  0.7957747E-01            NaN
         13   -1    0    0    0    0  0.00000000000E+00  0.00000000000E+00  0.74505805969E-08  0.10566000000E+00  0.10566000000E+00 0.  1.
     999900   -1    0    0    0    0 -0.00000000000E+00 -0.00000000000E+00 -0.74505805969E-08  0.93827000000E+00  0.93827000000E+00 0. -1.
     999902    2    1    2    0    0 -0.15522052042E-01  0.19145388909E-01  0.38752759918E-02  0.10189800946E+01  0.10186745974E+01 0.  0.
     999903    2    3    3    0    0 -0.11348378778E-01  0.88693443525E-01 -0.93495546540E-01  0.13087231479E+00  0.19769494973E-01 0.  0.
         14    1    1    2    0    0  0.15522052042E-01 -0.19145388909E-01 -0.38752759918E-02  0.24949905413E-01  0.00000000000E+00 0.  1.
     999901    1    3    3    0    0 -0.41736732640E-02 -0.69548054616E-01  0.97370822532E-01  0.88810777979E+00  0.88000000000E+00 0. -1.
        -11    1    4    4    0    0 -0.14021734381E-01  0.39778052561E-01 -0.37158120631E-01  0.56212894877E-01  0.51100000000E-03 0.  1.
         11    1    4    4    0    0  0.26733556022E-02  0.48915390964E-01 -0.56337425909E-01  0.74659419917E-01  0.51100000000E-03 0. -1.
</event>
<event>
 8    1  0.1115874E+005  0.1043930E+01  0.7957747E-01            NaN
         13   -1    0    0    0    0  0.00000000000E+00  0.00000000000E+00  0.74505805969E-08  0.10566000000E+00  0.10566000000E+00 0.  1.
     999900   -1    0    0    0    0 -0.00000000000E+00 -0.00000000000E+00 -0.74505805969E-08  0.93827000000E+00  0.93827000000E+00 0. -1.
     999902    2    1    2    0    0  0.23177004873E-01 -0.30262577491E-02 -0.42219988541E-02  0.10201780092E+01  0.10199014724E+01 0.  0.
     999903    2    3    3    0    0  0.13041923104E+00 -0.14093439447E-01  0.14612466238E-01  0.13339837784E+00  0.19333964448E-01 0.  0.
         14    1    1    2    0    0 -0.23177004873E-01  0.30262577491E-02  0.42219988541E-02  0.23751990762E-01  0.00000000000E+00 0. -1.
     999901    1    3    3    0    0 -0.10724222617E+00  0.11067181697E-01 -0.18834465092E-01  0.88677963140E+00  0.88000000000E+00 0.  1.
        -11    1    4    4    0    0  0.49130987582E-01 -0.10572688276E-01  0.13438147206E-01  0.52023846451E-01  0.51100000000E-03 0.  1.
         11    1    4    4    0    0  0.81288243456E-01 -0.35207511706E-02  0.11743190321E-02  0.81374531392E-01  0.51100000000E-03 0. -1.
</event>
<event>
 8    1  0.1115874E+005  0.1043930E+01  0.7957747E-01            NaN
         13   -1    0    0    0    0  0.00000000000E+00  0.00000000000E+00  0.74505805969E-08  0.10566000000E+00  0.10566000000E+00 0.  1.
     999900   -1    0    0    0    0 -0.00000000000E+00 -0.00000000000E+00 -0.74505805969E-08  0.93827000000E+00  0.93827000000E+00 0. -1.
     999902    2    1    2    0    0  0.12031000730E-02  0.16653970251E-02  0.23433328259E-01  0.10204067802E+01  0.10201356063E+01 0.  0.
     999903    2    3    3    0    0  0.27536679071E-01  0.56732806541E-01  0.11606187661E+00  0.13344233617E+00  0.18963592757E-01 0.  0.
         14    1    1    2    0    0 -0.12031000730E-02 -0.16653970251E-02 -0.23433328259E-01  0.23523219813E-01  0.00000000000E+00 0. -1.
     999901    1    3    3    0    0 -0.26333578998E-01 -0.55067409516E-01 -0.92628548346E-01  0.88696444401E+00  0.88000000000E+00 0. -1.
        -11    1    4    4    0    0 -0.78917297471E-03  0.16718042027E-01  0.32464950016E-01  0.36528753383E-01  0.51100000000E-03 0. -1.
         11    1    4    4    0    0  0.28325852046E-01  0.40014764514E-01  0.83596926590E-01  0.96913582791E-01  0.51100000000E-03 0.  1.
</event>
<event>
 8    1  0.1115874E+005  0.1043930E+01  0.7957747E-01            NaN
         13   -1    0    0    0    0  0.00000000000E+00  0.00000000000E+00  0.74505805969E-08  0.10566000000E+00  0.10566000000E+00 0. -1.
     999900   -1    0    0    0    0 -0.00000000000E+00 -0.00000000000E+00 -0.74505805969E-08  0.93827000000E+00  0.93827000000E+00 0. -1.
     999902    2    1    2    0    0 -0.61772939804E-02  0.23050130729E-01  0.26895409941E-02  0.10199153978E+01  0.10196326385E+01 0.  0.
     999903    2    3    3    0    0 -0.85203585267E-01 -0.51977716077E-01 -0.79834657621E-01  0.12936243708E+00  0.19993340359E-01 0.  0.
         14    1    1    2    0    0  0.61772939804E-02 -0.23050130729E-01 -0.26895409941E-02  0.24014602189E-01  0.00000000000E+00 0.  1.
     999901    1    3    3    0    0  0.79026291287E-01  0.75027846806E-01  0.82524198615E-01  0.89055296073E+00  0.88000000000E+00 0.  1.
        -11    1    4    4    0    0 -0.39645736817E-01 -0.35816795578E-01 -0.40763050822E-01  0.67205020099E-01  0.51100000000E-03 0.  1.
         11    1    4    4    0    0 -0.45557848450E-01 -0.16160920499E-01 -0.39071606799E-01  0.62157416980E-01  0.51100000000E-03 0. -1.
</event>
<event>
 8    1  0.1115874E+005  0.1043930E+01  0.7957747E-01            NaN
         13   -1    0    0    0    0  0.00000000000E+00  0.00000000000E+00  0.74505805969E-08  0.10566000000E+00  0.10566000000E+00 0. -1.
     999900   -1    0    0    0    0 -0.00000000000E+00 -0.00000000000E+00 -0.74505805969E-08  0.93827000000E+00  0.93827000000E+00 0.  1.
     999902    2    1    2    0    0 -0.15694045456E-02  0.24295915120E-01 -0.41921103220E-03  0.10195798407E+01  0.10192890273E+01 0.  0.
     999903    2    3    3    0    0 -0.72653890595E-01  0.78186788365E-01 -0.74976254529E-01  0.13193352420E+00  0.19830642258E-01 0.  0.
         14    1    1    2    0    0  0.15694045456E-02 -0.24295915120E-01  0.41921103220E-03  0.24350159343E-01  0.00000000000E+00 0.  1.
     999901    1    3    3    0    0  0.71084486049E-01 -0.53890873245E-01  0.74557043497E-01  0.88764631645E+00  0.88000000000E+00 0. -1.
        -11    1    4    4    0    0 -0.52902574812E-01  0.59670397966E-01 -0.45116380356E-01  0.91624165549E-01  0.51100000000E-03 0.  1.
         11    1    4    4    0    0 -0.19751315783E-01  0.18516390399E-01 -0.29859874173E-01  0.40309358655E-01  0.51100000000E-03 0. -1.
</event>
<event>
 8    1  0.1115874E+005  0.1043930E+01  0.7957747E-01            NaN
         13   -1    0    0    0    0  0.00000000000E+00  0.00000000000E+00  0.74505805969E-08  0.10566000000E+00  0.10566000000E+00 0. -1.
     999900   -1    0    0    0    0 -0.00000000000E+00 -0.00000000000E+00 -0.74505805969E-08  0.93827000000E+00  0.93827000000E+00 0.  1.
     999902    2    1    2    0    0  0.18298408882E-03  0.23288381808E-01  0.92453933754E-02  0.10188728751E+01  0.10185647137E+01 0.  0.
     999903    2    3    3    0    0  0.14314326890E-02  0.55365951750E-01  0.11772603422E+00  0.13163075562E+00  0.19994976339E-01 0.  0.
         14    1    1    2    0    0 -0.18298408882E-03 -0.23288381808E-01 -0.92453933754E-02  0.25057124917E-01  0.00000000000E+00 0.  1.
     999901    1    3    3    0    0 -0.12484486002E-02 -0.32077569942E-01 -0.10848064084E+00  0.88724211947E+00  0.88000000000E+00 0.  1.
        -11    1    4    4    0    0  0.78084919276E-02  0.42463864923E-01  0.99008053881E-01  0.10801392607E+00  0.51100000000E-03 0.  1.
         11    1    4    4    0    0 -0.63770592386E-02  0.12902086827E-01  0.18717980337E-01  0.23616829548E-01  0.51100000000E-03 0. -1.
</event>
<event>
 8    1  0.1568032E+005  0.1043930E+01  0.7957747E-01            NaN
         13   -1    0    0    0    0  0.00000000000E+00  0.00000000000E+00  0.74505805969E-08  0.10566000000E+00  0.10566000000E+00 0.  1.
     999900   -1    0    0    0    0 -0.00000000000E+00 -0.00000000000E+00 -0.74505805969E-08  0.93827000000E+00  0.93827000000E+00 0.  1.
     999902    2    1    2    0    0 -0.21819174548E-01  0.21908525091E-02 -0.69685018018E-02  0.10209205187E+01  0.10206611922E+01 0.  0.
     999903    2    3    3    0    0  0.35556102701E-01 -0.62126546091E-01 -0.10796745172E+00  0.13096016110E+00  0.19226258002E-01 0.  0.
         14    1    1    2    0    0  0.21819174548E-01 -0.21908525091E-02  0.69685018018E-02  0.23009481307E-01  0.00000000000E+00 0.  1.
     999901    1    3    3    0    0 -0.57375277249E-01  0.64317398600E-01  0.10099894991E+00  0.88996035759E+00  0.88000000000E+00 0. -1.
        -11    1    4    4    0    0  0.55197906614E-02 -0.19759345927E-01 -0.44096810600E-01  0.48638355919E-01  0.51100000000E-03 0.  1.
         11    1    4    4    0    0  0.30036312040E-01 -0.42367200164E-01 -0.63870641117E-01  0.82321805181E-01  0.51100000000E-03 0. -1.
</event>
<event>
 8    1  0.1115874E+005  0.1043930E+01  0.7957747E-01            NaN
         13   -1    0    0    0    0  0.00000000000E+00  0.00000000000E+00  0.74505805969E-08  0.10566000000E+00  0.10566000000E+00 0. -1.
     999900   -1    0    0    0    0 -0.00000000000E+00 -0.00000000000E+00 -0.74505805969E-08  0.93827000000E+00  0.93827000000E+00 0. -1.
     999902    2    1    2    0    0  0.21085125293E-01 -0.80603561126E-02  0.75719891296E-02  0.10201206139E+01  0.10198427231E+01 0.  0.
     999903    2    3    3    0    0 -0.69820576441E-01  0.39918514051E-01 -0.97467426240E-01  0.12793279878E+00  0.19962493993E-01 0.  0.
         14    1    1    2    0    0 -0.21085125293E-01  0.80603561126E-02 -0.75719891296E-02  0.23809386146E-01  0.00000000000E+00 0.  1.
     999901    1    3    3    0    0  0.90905701735E-01 -0.47978870164E-01  0.10503941537E+00  0.89218781508E+00  0.88000000000E+00 0.  1.
        -11    1    4    4    0    0 -0.38155046895E-01  0.10889884859E-01 -0.42113915355E-01  0.57863980017E-01  0.51100000000E-03 0. -1.
         11    1    4    4    0    0 -0.31665529547E-01  0.29028629193E-01 -0.55353510884E-01  0.70068818760E-01  0.51100000000E-03 0.  1.
</event>
<event>
 8    1  0.1115874E+005  0.1043930E+01  0.7957747E-01            NaN
         13   -1    0    0    0    0  0.00000000000E+00  0.00000000000E+00  0.74505805969E-08  0.10566000000E+00  0.10566000000E+00 0. -1.
     999900   -1    0    0    0    0 -0.00000000000E+00 -0.00000000000E+00 -0.74505805969E-08  0.93827000000E+00  0.93827000000E+00 0.  1.
     999902    2    1    2    0    0  0.12903562885E-01 -0.19405578803E-01  0.51318010362E-02  0.10200676069E+01  0.10197884628E+01 0.  0.
     999903    2    3    3    0    0 -0.10123890880E+00 -0.33263041361E-01 -0.70681795041E-01  0.12935540057E+00  0.19523240802E-01 0.  0.
         14    1    1    2    0    0 -0.12903562885E-01  0.19405578803E-01 -0.51318010362E-02  0.23862393126E-01  0.00000000000E+00 0. -1.
     999901    1    3    3    0    0  0.11414247168E+00  0.13857462558E-01  0.75813596077E-01  0.89071220630E+00  0.88000000000E+00 0. -1.
        -11    1    4    4    0    0 -0.35335825570E-01 -0.65590711912E-02 -0.14613351371E-01  0.38800169367E-01  0.51100000000E-03 0.  1.
         11    1    4    4    0    0 -0.65903083226E-01 -0.26703970170E-01 -0.56068443670E-01  0.90555231202E-01  0.51100000000E-03 0. -1.
</event>
<event>
 8    1  0.1115874E+005  0.1043930E+01  0.7957747E-01            NaN
         13   -1    0    0    0    0  0.00000000000E+00  0.00000000000E+00  0.74505805969E-08  0.10566000000E+00  0.10566000000E+00 0. -1.
     999900   -1    0    0    0    0 -0.00000000000E+00 -0.00000000000E+00 -0.74505805969E-08  0.93827000000E+00  0.93827000000E+00 0. -1.
     999902    2    1    2    0    0 -0.23761317790E-01 -0.23200442257E-02  0.19670821370E-02  0.10199747868E+01  0.10196934409E+01 0.  0.
     999903    2    3    3    0    0  0.11704819216E+00 -0.46675384825E-01 -0.20743031591E-02  0.12766819870E+00  0.20395965021E-01 0.  0.
         14    1    1    2    0    0  0.23761317790E-01  0.23200442257E-02 -0.19670821370E-02  0.23955213221E-01  0.00000000000E+00 0. -1.
     999901    1    3    3    0    0 -0.14080950995E+00  0.44355340599E-01  0.40413852962E-02  0.89230658808E+00  0.88000000000E+00 0.  1.
        -11    1    4    4    0    0  0.67982779192E-01 -0.34940351683E-01  0.55699844451E-02  0.76640539469E-01  0.51100000000E-03 0.  1.
         11    1    4    4    0    0  0.49065412970E-01 -0.11735033142E-01 -0.76442876042E-02  0.51027659232E-01  0.51100000000E-03 0. -1.
</event>
<event>
 8    1  0.1115874E+005  0.1043930E+01  0.7957747E-01            NaN
         13   -1    0    0    0    0  0.00000000000E+00  0.00000000000E+00  0.74505805969E-08  0.10566000000E+00  0.10566000000E+00 0. -1.
     999900   -1    0    0    0    0 -0.00000000000E+00 -0.00000000000E+00 -0.74505805969E-08  0.93827000000E+00  0.93827000000E+00 0. -1.
     999902    2    1    2    0    0 -0.23119721055E-01 -0.23536954188E-02 -0.41369819237E-02  0.10203254241E+01  0.10200523492E+01 0.  0.
     999903    2    3    3    0    0  0.10010887334E+00 -0.19288881500E-01  0.74881421611E-01  0.12807209959E+00  0.20034667995E-01 0.  0.
         14    1    1    2    0    0  0.23119721055E-01  0.23536954188E-02  0.41369819237E-02  0.23604575896E-01  0.00000000000E+00 0. -1.
     999901    1    3    3    0    0 -0.12322859439E+00  0.16935186081E-01 -0.79018403534E-01  0.89225332451E+00  0.88000000000E+00 0. -1.
        -11    1    4    4    0    0  0.36552462125E-01 -0.10741049354E-01  0.17147484751E-01  0.41782173028E-01  0.51100000000E-03 0. -1.
         11    1    4    4    0    0  0.63556411211E-01 -0.85478321466E-02  0.57733936859E-01  0.86289926565E-01  0.51100000000E-03 0.  1.
</event>
<event>
 8    1  0.1115874E+005  0.1043930E+01  0.7957747E-01            NaN
         13   -1    0    0    0    0  0.00000000000E+00  0.00000000000E+00  0.74505805969E-08  0.10566000000E+00  0.10566000000E+00 0. -1.
     999900   -1    0    0    0    0 -0.00000000000E+00 -0.00000000000E+00 -0.74505805969E-08  0.93827000000E+00  0.93827000000E+00 0.  1.
     999902    2    1    2    0    0 -0.70257033236E-03 -0.11477413334E-02 -0.23948464183E-01  0.10199437570E+01  0.10196616731E+01 0.  0.
     999903    2    3    3    0    0  0.11348573933E+00 -0.39257902294E-01  0.43799825831E-01  0.12916814823E+00  0.18595425513E-01 0.  0.
         14    1    1    2    0    0  0.70257033236E-03  0.11477413334E-02  0.23948464183E-01  0.23986242973E-01  0.00000000000E+00 0. -1.
     999901    1    3    3    0    0 -0.11418830966E+00  0.38110160961E-01 -0.67748290014E-01  0.89077560880E+00  0.88000000000E+00 0.  1.
        -11    1    4    4    0    0  0.39080133825E-01 -0.17305259005E-01  0.24335535467E-01  0.49185447609E-01  0.51100000000E-03 0. -1.
         11    1    4    4    0    0  0.74405605505E-01 -0.21952643289E-01  0.19464290364E-01  0.79982700619E-01  0.51100000000E-03 0.  1.
</event>
<event>
 8    1  0.1115874E+005  0.1043930E+01  0.7957747E-01            NaN
         13   -1    0    0    0    0  0.00000000000E+00  0.00000000000E+00  0.74505805969E-08  0.10566000000E+00  0.10566000000E+00 0. -1.
     999900   -1    0    0    0    0 -0.00000000000E+00 -0.00000000000E+00 -0.74505805969E-08  0.93827000000E+00  0.93827000000E+00 0. -1.
     999902    2    1    2    0    0 -0.12718891123E-01 -0.76875857973E-02  0.18942380476E-01  0.10198533942E+01  0.10195691555E+01 0.  0.
     999903    2    3    3    0    0 -0.16345048039E-01  0.12483949579E+00 -0.19646399757E-01  0.12908649413E+00  0.20622357755E-01 0.  0.
         14    1    1    2    0    0  0.12718891123E-01  0.76875857973E-02 -0.18942380476E-01  0.24076605760E-01  0.00000000000E+00 0.  1.
     999901    1    3    3    0    0  0.36261569160E-02 -0.13252708159E+00  0.38588780233E-01  0.89076690011E+00  0.88000000000E+00 0.  1.
        -11    1    4    4    0    0  0.43377498218E-02  0.37232098688E-01 -0.78385950890E-02  0.38298171499E-01  0.51100000000E-03 0. -1.
         11    1    4    4    0    0 -0.20682797861E-01  0.87607397102E-01 -0.11807804668E-01  0.90788322633E-01  0.51100000000E-03 0.  1.
</event>
<event>
 8    1  0.1115874E+005  0.1043930E+01  0.7957747E-01            NaN
         13   -1    0    0    0    0  0.00000000000E+00  0.00000000000E+00  0.74505805969E-08  0.10566000000E+00  0.10566000000E+00 0.  1.
     999900   -1    0    0    0    0 -0.00000000000E+00 -0.00000000000E+00 -0.74505805969E-08  0.93827000000E+00  0.93827000000E+00 0. -1.
     999902    2    1    2    0    0  0.21054233823E-02 -0.20071278788E-01  0.94512849066E-02  0.10216451211E+01  0.10214020451E+01 0.  0.
     999903    2    3    3    0    0  0.27973488977E-01  0.12281460651E+00 -0.18981350830E-01  0.12929208124E+00  0.22140617307E-01 0.  0.
         14    1    1    2    0    0 -0.21054233823E-02  0.20071278788E-01 -0.94512849066E-02  0.22284878868E-01  0.00000000000E+00 0. -1.
     999901    1    3    3    0    0 -0.25868065594E-01 -0.14288588529E+00  0.28432635737E-01  0.89235303989E+00  0.88000000000E+00 0.  1.
        -11    1    4    4    0    0  0.25943041749E-01  0.76700974480E-01 -0.52925040673E-02  0.81144023943E-01  0.51100000000E-03 0.  1.
         11    1    4    4    0    0  0.20304472276E-02  0.46113632026E-01 -0.13688846763E-01  0.48148057294E-01  0.51100000000E-03 0. -1.
</event>
<event>
 8    1  0.1115874E+005  0.1043930E+01  0.7957747E-01            NaN
         13   -1    0    0    0    0  0.00000000000E+00  0.00000000000E+00  0.74505805969E-08  0.10566000000E+00  0.10566000000E+00 0. -1.
     999900   -1    0    0    0    0 -0.00000000000E+00 -0.00000000000E+00 -0.74505805969E-08  0.93827000000E+00  0.93827000000E+00 0. -1.
     999902    2    1    2    0    0  0.83639521813E-02  0.19422801000E-01  0.20772513179E-01  0.10142871560E+01  0.10138539030E+01 0.  0.
     999903    2    3    3    0    0  0.87415880631E-01 -0.31738353558E-01 -0.78838549542E-01  0.12367554879E+00  0.20766925694E-01 0.  0.
         14    1    1    2    0    0 -0.83639521813E-02 -0.19422801000E-01 -0.20772513179E-01  0.29642843969E-01  0.00000000000E+00 0.  1.
     999901    1    3    3    0    0 -0.79051928450E-01  0.51161154558E-01  0.99611062721E-01  0.89061160724E+00  0.88000000000E+00 0.  1.
        -11    1    4    4    0    0  0.23674510726E-01 -0.26453139210E-02 -0.29783309011E-01  0.38141666986E-01  0.51100000000E-03 0.  1.
         11    1    4    4    0    0  0.63741369905E-01 -0.29093039637E-01 -0.49055240531E-01  0.85533881809E-01  0.51100000000E-03 0. -1.
</event>
<event>
 8    1  0.1115874E+005  0.1043930E+01  0.7957747E-01            NaN
         13   -1    0    0    0    0  0.00000000000E+00  0.00000000000E+00  0.74505805969E-08  0.10566000000E+00  0.10566000000E+00 0.  1.
     999900   -1    0    0    0    0 -0.00000000000E+00 -0.00000000000E+00 -0.74505805969E-08  0.93827000000E+00  0.93827000000E+00 0. -1.
     999902    2    1    2    0    0  0.13530182652E-01  0.20669349959E-01  0.15301840737E-01  0.10148708500E+01  0.10144547343E+01 0.  0.
     999903    2    3    3    0    0 -0.91396309252E-01  0.20574085965E-01  0.82071410737E-01  0.12612580596E+00  0.19885273711E-01 0.  0.
         14    1    1    2    0    0 -0.13530182652E-01 -0.20669349959E-01 -0.15301840737E-01  0.29059150027E-01  0.00000000000E+00 0. -1.
     999901    1    3    3    0    0  0.10492649190E+00  0.95263994125E-04 -0.66769570000E-01  0.88874504401E+00  0.88000000000E+00 0. -1.
        -11    1    4    4    0    0 -0.73032699918E-01  0.12233683027E-01  0.54426839148E-01  0.91902014115E-01  0.51100000000E-03 0.  1.
         11    1    4    4    0    0 -0.18363609334E-01  0.83404029380E-02  0.27644571589E-01  0.34223791845E-01  0.51100000000E-03 0. -1.
</event>
<event>
 8    1  0.1115874E+005  0.1043930E+01  0.7957747E-01            NaN
         13   -1    0    0    0    0  0.00000000000E+00  0.00000000000E+00  0.74505805969E-08  0.10566000000E+00  0.10566000000E+00 0.  1.
     999900   -1    0    0    0    0 -0.00000000000E+00 -0.00000000000E+00 -0.74505805969E-08  0.93827000000E+00  0.93827000000E+00 0.  1.
     999902    2    1    2    0    0 -0.14089243922E-02 -0.16835380187E-01 -0.17179577327E-01  0.10198353331E+01  0.10195506627E+01 0.  0.
     999903    2    3    3    0    0 -0.13205007865E-01  0.97182254254E-01 -0.82869772611E-01  0.12997333805E+00  0.20171926452E-01 0.  0.
         14    1    1    2    0    0  0.14089243922E-02  0.16835380187E-01  0.17179577327E-01  0.24094666860E-01  0.00000000000E+00 0.  1.
     999901    1    3    3    0    0  0.11796083472E-01 -0.11401763444E+00  0.65690195285E-01  0.88986199509E+00  0.88000000000E+00 0.  1.
        -11    1    4    4    0    0  0.50212063024E-02  0.15073814741E-01 -0.15602953212E-01  0.22274327678E-01  0.51100000000E-03 0. -1.
         11    1    4    4    0    0 -0.18226214167E-01  0.82108439513E-01 -0.67266819399E-01  0.10769901037E+00  0.51100000000E-03 0.  1.
</event>
<event>
 8    1  0.1115874E+005  0.1043930E+01  0.7957747E-01            NaN
         13   -1    0    0    0    0  0.00000000000E+00  0.00000000000E+00  0.74505805969E-08  0.10566000000E+00  0.10566000000E+00 0.  1.
     999900   -1    0    0    0    0 -0.00000000000E+00 -0.00000000000E+00 -0.74505805969E-08  0.93827000000E+00  0.93827000000E+00 0.  1.
     999902    2    1    2    0    0  0.18825079791E-01 -0.13181011791E-02 -0.14995382951E-01  0.10198264208E+01  0.10195415372E+01 0.  0.
     999903    2    3    3    0    0  0.38887634777E-01  0.46516416069E-01  0.11223443385E+00  0.12916482770E+00  0.20272135350E-01 0.  0.
         14    1    1    2    0    0 -0.18825079791E-01  0.13181011791E-02  0.14995382951E-01  0.24103579189E-01  0.00000000000E+00 0.  1.
     999901    1    3    3    0    0 -0.20062554986E-01 -0.47834517248E-01 -0.12722981680E+00  0.89066159311E+00  0.88000000000E+00 0.  1.
        -11    1    4    4    0    0  0.12473505404E-01  0.50463656762E-02  0.14686731729E-01  0.19925244126E-01  0.51100000000E-03 0.  1.
         11    1    4    4    0    0  0.26414129373E-01  0.41470050393E-01  0.97547702121E-01  0.10923958358E+00  0.51100000000E-03 0. -1.
</event>
<event>
 8    1  0.1115874E+005  0.1043930E+01  0.7957747E-01            NaN
         13   -1    0    0    0    0  0.00000000000E+00  0.00000000000E+00  0.74505805969E-08  0.10566000000E+00  0.10566000000E+00 0.  1.
     999900   -1    0    0    0    0 -0.00000000000E+00 -0.00000000000E+00 -0.74505805969E-08  0.93827000000E+00  0.93827000000E+00 0.  1.
     999902    2    1    2    0    0  0.47537652700E-02  0.24556879763E-01  0.15364592770E-02  0.10188700851E+01  0.10185618543E+01 0.  0.
     999903    2    3    3    0    0  0.10228631925E+00 -0.66906052572E-01 -0.33269690766E-01  0.12808978942E+00  0.19005547982E-01 0.  0.
         14    1    1    2    0    0 -0.47537652700E-02 -0.24556879763E-01 -0.15364592770E-02  0.25059914905E-01  0.00000000000E+00 0.  1.
     999901    1    3    3    0    0 -0.97532553980E-01  0.91462932335E-01  0.34806150043E-01  0.89078029567E+00  0.88000000000E+00 0. -1.
        -11    1    4    4    0    0  0.41956357954E-01 -0.16542041686E-01 -0.11965304973E-01  0.46662669876E-01  0.51100000000E-03 0.  1.
         11    1    4    4    0    0  0.60329961296E-01 -0.50364010886E-01 -0.21304385793E-01  0.81427119546E-01  0.51100000000E-03 0. -1.
</event>
<event>
 8    1  0.1115874E+005  0.1043930E+01  0.7957747E-01            NaN
         13   -1    0    0    0    0  0.00000000000E+00  0.00000000000E+00  0.74505805969E-08  0.10566000000E+00  0.10566000000E+00 0.  1.
     999900   -1    0    0    0    0 -0.00000000000E+00 -0.00000000000E+00 -0.74505805969E-08  0.93827000000E+00  0.93827000000E+00 0. -1.
     999902    2    1    2    0    0  0.85859353137E-02  0.22751272232E-01  0.19824266994E-02  0.10195318712E+01  0.10192398970E+01 0.  0.
     999903    2    3    3    0    0 -0.85946003801E-01 -0.85454841220E-01  0.34132804241E-01  0.12729955993E+00  0.18731902599E-01 0.  0.
         14    1    1    2    0    0 -0.85859353137E-02 -0.22751272232E-01 -0.19824266994E-02  0.24398128802E-01  0.00000000000E+00 0. -1.
     999901    1    3    3    0    0  0.94531939114E-01  0.10820611345E+00 -0.32150377542E-01  0.89223231127E+00  0.88000000000E+00 0. -1.
        -11    1    4    4    0    0 -0.53005690644E-01 -0.48857141958E-01  0.29318869388E-01  0.77823394838E-01  0.51100000000E-03 0.  1.
         11    1    4    4    0    0 -0.32940313157E-01 -0.36597699261E-01  0.48139348536E-02  0.49476165089E-01  0.51100000000E-03 0. -1.
</event>
<event>
 8    1  0.1115874E+005  0.1043930E+01  0.7957747E-01            NaN
         13   -1    0    0    0    0  0.00000000000E+00  0.00000000000E+00  0.74505805969E-08  0.10566000000E+00  0.10566000000E+00 0.  1.
     999900   -1    0    0    0    0 -0.00000000000E+00 -0.00000000000E+00 -0.74505805969E-08  0.93827000000E+00  0.93827000000E+00 0.  1.
     999902    2    1    2    0    0  0.17240916131E-01  0.17539530789E-01 -0.22896902203E-02  0.10192292508E+01  0.10189298988E+01 0.  0.
     999903    2    3    3    0    0 -0.88701869542E-01 -0.47953828937E-01 -0.75447366149E-01  0.12745276561E+00  0.19603852504E-01 0.  0.
         14    1    1    2    0    0 -0.17240916131E-01 -0.17539530789E-01  0.22896902203E-02  0.24700749192E-01  0.00000000000E+00 0.  1.
     999901    1    3    3    0    0  0.10594278567E+00  0.65493359726E-01  0.73157675929E-01  0.89177648520E+00  0.88000000000E+00 0. -1.
        -11    1    4    4    0    0 -0.26028460021E-02 -0.67819677836E-02 -0.51387583486E-02  0.89127915208E-02  0.51100000000E-03 0. -1.
         11    1    4    4    0    0 -0.86099023540E-01 -0.41171861153E-01 -0.70308607800E-01  0.11853997409E+00  0.51100000000E-03 0.  1.
</event>
<event>
 8    1  0.1115874E+005  0.1043930E+01  0.7957747E-01            NaN
         13   -1    0    0    0    0  0.00000000000E+00  0.00000000000E+00  0.74505805969E-08  0.10566000000E+00  0.10566000000E+00 0. -1.
     999900   -1    0    0    0    0 -0.00000000000E+00 -0.00000000000E+00 -0.74505805969E-08  0.93827000000E+00  0.93827000000E+00 0. -1.
     999902    2    1    2    0    0  0.17127101237E-03 -0.85745629478E-02 -0.21413987343E-01  0.10208624618E+01  0.10206018100E+01 0.  0.
     999903    2    3    3    0    0 -0.92654593777E-01 -0.58059688221E-02 -0.93177763413E-01  0.13307062483E+00  0.20177030872E-01 0.  0.
         14    1    1    2    0    0 -0.17127101237E-03  0.85745629478E-02  0.21413987343E-01  0.23067538175E-01  0.00000000000E+00 0. -1.
     999901    1    3    3    0    0  0.92825864790E-01 -0.27685941257E-02  0.71763776070E-01  0.88779183700E+00  0.88000000000E+00 0.  1.
        -11    1    4    4    0    0 -0.53074519052E-01 -0.12104463068E-01 -0.46973452896E-01  0.71904026290E-01  0.51100000000E-03 0.  1.
         11    1    4    4    0    0 -0.39580074725E-01  0.62984942463E-02 -0.46204310518E-01  0.61166598536E-01  0.51100000000E-03 0. -1.
</event>
<event>
 8    1  0.1115874E+005  0.1043930E+01  0.7957747E-01            NaN
         13   -1    0    0    0    0  0.00000000000E+00  0.00000000000E+00  0.74505805969E-08  0.10566000000E+00  0.10566000000E+00 0.  1.
     999900   -1    0    0    0    0 -0.00000000000E+00 -0.00000000000E+00 -0.74505805969E-08  0.93827000000E+00  0.93827000000E+00 0. -1.
     999902    2    1    2    0    0  0.16613069028E-01  0.16266323023E-02  0.15252267789E-01  0.10213186827E+01  0.10210683523E+01 0.  0.
     999903    2    3    3    0    0 -0.42447104347E-01 -0.11025487535E+00 -0.50023228355E-01  0.12987801381E+00  0.20201012153E-01 0.  0.
         14    1    1    2    0    0 -0.16613069028E-01 -0.16266323023E-02 -0.15252267789E-01  0.22611317252E-01  0.00000000000E+00 0. -1.
     999901    1    3    3    0    0  0.59060173374E-01  0.11188150765E+00  0.65275496144E-01  0.89144066893E+00  0.88000000000E+00 0.  1.
        -11    1    4    4    0    0 -0.22329009747E-01 -0.62601464115E-01 -0.38743002113E-01  0.76933798290E-01  0.51100000000E-03 0.  1.
         11    1    4    4    0    0 -0.20118094600E-01 -0.47653411232E-01 -0.11280226242E-01  0.52944215524E-01  0.51100000000E-03 0. -1.
</event>
<event>
 8    1  0.1115874E+005  0.1043930E+01  0.7957747E-01            NaN
         13   -1    0    0    0    0  0.00000000000E+00  0.00000000000E+00  0.74505805969E-08  0.10566000000E+00  0.10566000000E+00 0. -1.
     999900   -1    0    0    0    0 -0.00000000000E+00 -0.00000000000E+00 -0.74505805969E-08  0.93827000000E+00  0.93827000000E+00 0.  1.
     999902    2    1    2    0    0 -0.18963659207E-01  0.66534357689E-02  0.12004374120E-01  0.10205207374E+01  0.10202522148E+01 0.  0.
     999903    2    3    3    0    0  0.12028973646E+00 -0.25641929386E-01 -0.30121807449E-01  0.12799112220E+00  0.18635311576E-01 0.  0.
         14    1    1    2    0    0  0.18963659207E-01 -0.66534357689E-02 -0.12004374120E-01  0.23409262612E-01  0.00000000000E+00 0.  1.
     999901    1    3    3    0    0 -0.13925339567E+00  0.32295365155E-01  0.42126181569E-01  0.89252961519E+00  0.88000000000E+00 0.  1.
        -11    1    4    4    0    0  0.48204466446E-01 -0.21434062150E-02 -0.72519364793E-02  0.48796685126E-01  0.51100000000E-03 0.  1.
         11    1    4    4    0    0  0.72085270014E-01 -0.23498523171E-01 -0.22869870970E-01  0.79194437073E-01  0.51100000000E-03 0. -1.
</event>
<event>
 8    1  0.1115874E+005  0.1043930E+01  0.7957747E-01            NaN
         13   -1    0    0    0    0  0.00000000000E+00  0.00000000000E+00  0.74505805969E-08  0.10566000000E+00  0.10566000000E+00 0. -1.
     999900   -1    0    0    0    0 -0.00000000000E+00 -0.00000000000E+00 -0.74505805969E-08  0.93827000000E+00  0.93827000000E+00 0.  1.
     999902    2    1    2    0    0  0.14577127260E-01 -0.96830316868E-03  0.16404194085E-01  0.10219634838E+01  0.10217273777E+01 0.  0.
     999903    2    3    3    0    0  0.34486554462E-02  0.11755302265E+00 -0.54430323264E-01  0.13112754133E+00  0.20029119949E-01 0.  0.
         14    1    1    2    0    0 -0.14577127260E-01  0.96830316868E-03 -0.16404194085E-01  0.21966516195E-01  0.00000000000E+00 0.  1.
     999901    1    3    3    0    0  0.11128471814E-01 -0.11852132582E+00  0.70834517349E-01  0.89083594248E+00  0.88000000000E+00 0. -1.
        -11    1    4    4    0    0 -0.86061097025E-03  0.14821540487E-01 -0.14889861183E-03  0.14856042725E-01  0.51100000000E-03 0.  1.
         11    1    4    4    0    0  0.43092664164E-02  0.10273148216E+00 -0.54281424652E-01  0.11627149860E+00  0.51100000000E-03 0. -1.
</event>
<event>
 8    1  0.1115874E+005  0.1043930E+01  0.7957747E-01            NaN
         13   -1    0    0    0    0  0.00000000000E+00  0.00000000000E+00  0.74505805969E-08  0.10566000000E+00  0.10566000000E+00 0. -1.
     999900   -1    0    0    0    0 -0.00000000000E+00 -0.00000000000E+00 -0.74505805969E-08  0.93827000000E+00  0.93827000000E+00 0.  1.
     999902    2    1    2    0    0  0.17732572916E-01 -0.19879390577E-04 -0.15908911376E-01  0.10201069440E+01  0.10198287303E+01 0.  0.
     999903    2    3    3    0    0 -0.95967520333E-01  0.80590738892E-01  0.19612047162E-01  0.12843014071E+00  0.20125518480E-01 0.  0.
         14    1    1    2    0    0 -0.17732572916E-01  0.19879390577E-04  0.15908911376E-01  0.23823056029E-01  0.00000000000E+00 0. -1.
     999901    1    3    3    0    0  0.11370009325E+00 -0.80610618282E-01 -0.35520958537E-01  0.89167680326E+00  0.88000000000E+00 0.  1.
        -11    1    4    4    0    0 -0.13743742116E-01  0.80022825728E-02  0.88864581917E-02  0.18225181314E-01  0.51100000000E-03 0.  1.
         11    1    4    4    0    0 -0.82223778216E-01  0.72588456319E-01  0.10725588970E-01  0.11020495939E+00  0.51100000000E-03 0. -1.
</event>
<event>
 8    1  0.1115874E+005  0.1043930E+01  0.7957747E-01            NaN
         13   -1    0    0    0    0  0.00000000000E+00  0.00000000000E+00  0.74505805969E-08  0.10566000000E+00  0.10566000000E+00 0. -1.
     999900   -1    0    0    0    0 -0.00000000000E+00 -0.00000000000E+00 -0.74505805969E-08  0.93827000000E+00  0.93827000000E+00 0. -1.
     999902    2    1    2    0    0 -0.55539623145E-02 -0.13470703727E-01 -0.17476770892E-01  0.10211760140E+01  0.10209224788E+01 0.  0.
     999903    2    3    3    0    0 -0.54108942406E-01  0.93814316411E-01 -0.71970161260E-01  0.13166087014E+00  0.20639210290E-01 0.  0.
         14    1    1    2    0    0  0.55539623145E-02  0.13470703727E-01  0.17476770892E-01  0.22753985961E-01  0.00000000000E+00 0. -1.
     999901    1    3    3    0    0  0.48554980091E-01 -0.10728502014E+00  0.54493390368E-01  0.88951514390E+00  0.88000000000E+00 0. -1.
        -11    1    4    4    0    0 -0.38975656904E-01  0.54843221583E-01 -0.53462593006E-01  0.85938296216E-01  0.51100000000E-03 0. -1.
         11    1    4    4    0    0 -0.15133285502E-01  0.38971094829E-01 -0.18507568254E-01  0.45722573921E-01  0.51100000000E-03 0.  1.
</event>
<event>
 8    1  0.1115874E+005  0.1043930E+01  0.7957747E-01            NaN
         13   -1    0    0    0    0  0.00000000000E+00  0.00000000000E+00  0.74505805969E-08  0.10566000000E+00  0.10566000000E+00 0.  1.
     999900   -1    0    0    0    0 -0.00000000000E+00 -0.00000000000E+00 -0.74505805969E-08  0.93827000000E+00  0.93827000000E+00 0. -1.
     999902    2    1    2    0    0 -0.16092910297E-01 -0.16511717485E-01 -0.55907001585E-02  0.10202050236E+01  0.10199291229E+01 0.  0.
     999903    2    3    3    0    0 -0.17354387110E-01 -0.12827337772E+00 -0.23847518953E-01  0.13294769259E+00  0.18739013383E-01 0.  0.
         14    1    1    2    0    0  0.16092910297E-01  0.16511717485E-01  0.55907001585E-02  0.23724976383E-01  0.00000000000E+00 0. -1.
     999901    1    3    3    0    0  0.12614768138E-02  0.11176166023E+00  0.18256818795E-01  0.88725733102E+00  0.88000000000E+00 0.  1.
        -11    1    4    4    0    0 -0.17063976802E-02 -0.72313613718E-01 -0.84058686311E-02  0.72822319864E-01  0.51100000000E-03 0. -1.
         11    1    4    4    0    0 -0.15647989430E-01 -0.55959764000E-01 -0.15441650322E-01  0.60125372729E-01  0.51100000000E-03 0.  1.
</event>
<event>
 8    1  0.1115874E+005  0.1043930E+01  0.7957747E-01            NaN
         13   -1    0    0    0    0  0.00000000000E+00  0.00000000000E+00  0.74505805969E-08  0.10566000000E+00  0.10566000000E+00 0. -1.
     999900   -1    0    0    0    0 -0.00000000000E+00 -0.00000000000E+00 -0.74505805969E-08  0.93827000000E+00  0.93827000000E+00 0. -1.
     999902    2    1    2    0    0 -0.14598713281E-01  0.12316117697E-01 -0.53170290157E-02  0.10241037552E+01  0.10239118231E+01 0.  0.
     999903    2    3    3    0    0  0.10145881960E+00  0.79531462008E-01  0.26442717385E-01  0.13337599943E+00  0.21697797062E-01 0.  0.
         14    1    1    2    0    0  0.14598713281E-01 -0.12316117697E-01  0.53170290157E-02  0.19826244781E-01  0.00000000000E+00 0. -1.
     999901    1    3    3    0    0 -0.11605753288E+00 -0.67215344312E-01 -0.31759746400E-01  0.89072775579E+00  0.88000000000E+00 0.  1.
        -11    1    4    4    0    0  0.47389466514E-01  0.42476870824E-01  0.28372919883E-02  0.63705238704E-01  0.51100000000E-03 0. -1.
         11    1    4    4    0    0  0.54069353081E-01  0.37054591185E-01  0.23605425396E-01  0.69670760722E-01  0.51100000000E-03 0.  1.
</event>
<event>
 8    1  0.1115874E+005  0.1043930E+01  0.7957747E-01            NaN
         13   -1    0    0    0    0  0.00000000000E+00  0.00000000000E+00  0.74505805969E-08  0.10566000000E+00  0.10566000000E+00 0.  1.
     999900   -1    0    0    0    0 -0.00000000000E+00 -0.00000000000E+00 -0.74505805969E-08  0.93827000000E+00  0.93827000000E+00 0. -1.
     999902    2    1    2    0    0 -0.17677482966E-01 -0.79379779685E-02 -0.26436998103E-02  0.10243725450E+01  0.10241858312E+01 0.  0.
     999903    2    3    3    0    0  0.86745447712E-01  0.76264382839E-01  0.60562386901E-01  0.13196613789E+00  0.20155149554E-01 0.  0.
         14    1    1    2    0    0  0.17677482966E-01  0.79379779685E-02  0.26436998103E-02  0.19557455022E-01  0.00000000000E+00 0. -1.
     999901    1    3    3    0    0 -0.10442293068E+00 -0.84202360808E-01 -0.63206086711E-01  0.89240640709E+00  0.88000000000E+00 0. -1.
        -11    1    4    4    0    0  0.24363088833E-01  0.26276700539E-01  0.28686173535E-01  0.45904060406E-01  0.51100000000E-03 0. -1.
         11    1    4    4    0    0  0.62382358878E-01  0.49987682300E-01  0.31876213366E-01  0.86062077482E-01  0.51100000000E-03 0.  1.
</event>
<event>
 8    1  0.1115874E+005  0.1043930E+01  0.7957747E-01            NaN
         13   -1    0    0    0    0  0.00000000000E+00  0.00000000000E+00  0.74505805969E-08  0.10566000000E+00  0.10566000000E+00 0.  1.
     999900   -1    0    0    0    0 -0.00000000000E+00 -0.00000000000E+00 -0.74505805969E-08  0.93827000000E+00  0.93827000000E+00 0.  1.
     999902    2    1    2    0    0 -0.76779749976E-03 -0.78885177446E-02 -0.21153802934E-01  0.10213401438E+01  0.10210902936E+01 0.  0.
     999903    2    3    3    0    0  0.74386911140E-01 -0.54775592118E-01 -0.94870155280E-01  0.13382635315E+00  0.19374426248E-01 0.  0.
         14    1    1    2    0    0  0.76779749976E-03  0.78885177446E-02  0.21153802934E-01  0.22589856214E-01  0.00000000000E+00 0.  1.
     999901    1    3    3    0    0 -0.75154708640E-01  0.46887074373E-01  0.73716352347E-01  0.88751379064E+00  0.88000000000E+00 0.  1.
        -11    1    4    4    0    0  0.36618164828E-01 -0.33188320342E-01 -0.62062032946E-01  0.79336698046E-01  0.51100000000E-03 0. -1.
         11    1    4    4    0    0  0.37768746313E-01 -0.21587271776E-01 -0.32808122335E-01  0.54489655100E-01  0.51100000000E-03 0.  1.
</event>
<event>
 8    1  0.1115874E+005  0.1043930E+01  0.7957747E-01            NaN
         13   -1    0    0    0    0  0.00000000000E+00  0.00000000000E+00  0.74505805969E-08  0.10566000000E+00  0.10566000000E+00 0. -1.
     999900   -1    0    0    0    0 -0.00000000000E+00 -0.00000000000E+00 -0.74505805969E-08  0.93827000000E+00  0.93827000000E+00 0.  1.
     999902    2    1    2    0    0 -0.90957516125E-04  0.22914799379E-01  0.68346523982E-02  0.10200174766E+01  0.10197371444E+01 0.  0.
     999903    2    3    3    0    0  0.95391749451E-01 -0.31698212042E-01 -0.78505479963E-01  0.12907277203E+00  0.19806756023E-01 0.  0.
         14    1    1    2    0    0  0.90957516125E-04 -0.22914799379E-01 -0.68346523982E-02  0.23912523440E-01  0.00000000000E+00 0.  1.
     999901    1    3    3    0    0 -0.95482706968E-01  0.54613011421E-01  0.85340132361E-01  0.89094470453E+00  0.88000000000E+00 0. -1.
        -11    1    4    4    0    0  0.47555315523E-01 -0.12808282680E-01 -0.26499923653E-01  0.55929126708E-01  0.51100000000E-03 0.  1.
         11    1    4    4    0    0  0.47836433928E-01 -0.18889929361E-01 -0.52005556310E-01  0.73143645318E-01  0.51100000000E-03 0. -1.
</event>
<event>
 8    1  0.1115874E+005  0.1043930E+01  0.7957747E-01            NaN
         13   -1    0    0    0    0  0.00000000000E+00  0.00000000000E+00  0.74505805969E-08  0.10566000000E+00  0.10566000000E+00 0. -1.
     999900   -1    0    0    0    0 -0.00000000000E+00 -0.00000000000E+00 -0.74505805969E-08  0.93827000000E+00  0.93827000000E+00 0.  1.
     999902    2    1    2    0    0 -0.15042446590E-01 -0.13811742593E-01  0.10885853430E-01  0.10207882361E+01  0.10205258849E+01 0.  0.
     999903    2    3    3    0    0  0.55199934672E-02  0.11411666836E+00 -0.55876691294E-01  0.12879847736E+00  0.20341062276E-01 0.  0.
         14    1    1    2    0    0  0.15042446590E-01  0.13811742593E-01 -0.10885853430E-01  0.23141763930E-01  0.00000000000E+00 0.  1.
     999901    1    3    3    0    0 -0.20562440057E-01 -0.12792841095E+00  0.66762544725E-01  0.89198975871E+00  0.88000000000E+00 0. -1.
        -11    1    4    4    0    0 -0.76049753519E-02  0.50903803433E-01 -0.23853369326E-01  0.56729861654E-01  0.51100000000E-03 0.  1.
         11    1    4    4    0    0  0.13124968819E-01  0.63212864926E-01 -0.32023321968E-01  0.72068615704E-01  0.51100000000E-03 0. -1.
</event>
<event>
 8    1  0.1115874E+005  0.1043930E+01  0.7957747E-01            NaN
         13   -1    0    0    0    0  0.00000000000E+00  0.00000000000E+00  0.74505805969E-08  0.10566000000E+00  0.10566000000E+00 0. -1.
     999900   -1    0    0    0    0 -0.00000000000E+00 -0.00000000000E+00 -0.74505805969E-08  0.93827000000E+00  0.93827000000E+00 0.  1.
     999902    2    1    2    0    0  0.95192425756E-03  0.22078474054E-01 -0.84144737221E-02  0.10202832551E+01  0.10200091922E+01 0.  0.
     999903    2    3    3    0    0  0.19503730232E-01  0.10793125115E+00 -0.73527057440E-01  0.13351692883E+00  0.19773508578E-01 0.  0.
         14    1    1    2    0    0 -0.95192425756E-03 -0.22078474054E-01  0.84144737221E-02  0.23646744900E-01  0.00000000000E+00 0.  1.
     999901    1    3    3    0    0 -0.18551805974E-01 -0.85852777098E-01  0.65112583718E-01  0.88676632627E+00  0.88000000000E+00 0. -1.
        -11    1    4    4    0    0  0.67966622009E-04  0.29010703617E-02  0.11750547748E-02  0.31721764499E-02  0.51100000000E-03 0. -1.
         11    1    4    4    0    0  0.19435763610E-01  0.10503018079E+00 -0.74702112215E-01  0.13034475238E+00  0.51100000000E-03 0.  1.
</event>
<event>
 8    1  0.1115874E+005  0.1043930E+01  0.7957747E-01            NaN
         13   -1    0    0    0    0  0.00000000000E+00  0.00000000000E+00  0.74505805969E-08  0.10566000000E+00  0.10566000000E+00 0.  1.
     999900   -1    0    0    0    0 -0.00000000000E+00 -0.00000000000E+00 -0.74505805969E-08  0.93827000000E+00  0.93827000000E+00 0.  1.
     999902    2    1    2    0    0  0.12478631482E-01  0.20089483885E-02 -0.19686668886E-01  0.10205351918E+01  0.10202670046E+01 0.  0.
     999903    2    3    3    0    0 -0.65741937220E-01  0.65504361015E-01  0.86454981014E-01  0.12844989623E+00  0.20299962501E-01 0.  0.
         14    1    1    2    0    0 -0.12478631482E-01 -0.20089483885E-02  0.19686668886E-01  0.23394808166E-01  0.00000000000E+00 0.  1.
     999901    1    3    3    0    0  0.78220568702E-01 -0.63495412626E-01 -0.10614164990E+00  0.89208529561E+00  0.88000000000E+00 0.  1.
        -11    1    4    4    0    0 -0.26937592489E-01  0.23769748922E-01  0.20818158522E-01  0.41524591487E-01  0.51100000000E-03 0.  1.
         11    1    4    4    0    0 -0.38804344731E-01  0.41734612093E-01  0.65636822492E-01  0.86925304741E-01  0.51100000000E-03 0. -1.
</event>
<event>
 8    1  0.1115874E+005  0.1043930E+01  0.7957747E-01            NaN
         13   -1    0    0    0    0  0.00000000000E+00  0.00000000000E+00  0.74505805969E-08  0.10566000000E+00  0.10566000000E+00 0. -1.
     999900   -1    0    0    0    0 -0.00000000000E+00 -0.00000000000E+00 -0.74505805969E-08  0.93827000000E+00  0.93827000000E+00 0. -1.
     999902    2    1    2    0    0 -0.15974941402E-01  0.64826089143E-02 -0.16023862101E-01  0.10203930689E+01  0.10201215750E+01 0.  0.
     999903    2    3    3    0    0  0.59527214121E-02  0.89468426555E-01 -0.95837535641E-01  0.13262187603E+00  0.19070776634E-01 0.  0.
         14    1    1    2    0    0  0.15974941402E-01 -0.64826089143E-02  0.16023862101E-01  0.23536931146E-01  0.00000000000E+00 0. -1.
     999901    1    3    3    0    0 -0.21927662814E-01 -0.82985817641E-01  0.79813673540E-01  0.88777119282E+00  0.88000000000E+00 0.  1.
        -11    1    4    4    0    0 -0.56800835648E-02  0.53127717829E-01 -0.58597448003E-01  0.79301574918E-01  0.51100000000E-03 0.  1.
         11    1    4    4    0    0  0.11632804977E-01  0.36340708726E-01 -0.37240087637E-01  0.53320301111E-01  0.51100000000E-03 0. -1.
</event>
<event>
 8    1  0.1115874E+005  0.1043930E+01  0.7957747E-01            NaN
         13   -1    0    0    0    0  0.00000000000E+00  0.00000000000E+00  0.74505805969E-08  0.10566000000E+00  0.10566000000E+00 0.  1.
     999900   -1    0    0    0    0 -0.00000000000E+00 -0.00000000000E+00 -0.74505805969E-08  0.93827000000E+00  0.93827000000E+00 0. -1.
     999902    2    1    2    0    0  0.17575857429E-02  0.18708614230E-01  0.10254688920E-01  0.10225229918E+01  0.10222988843E+01 0.  0.
     999903    2    3    3    0    0  0.57122170018E-01  0.56266607896E-01 -0.10198885994E+00  0.13287449138E+00  0.28723325653E-01 0.  0.
         14    1    1    2    0    0 -0.17575857429E-02 -0.18708614230E-01 -0.10254688920E-01  0.21407008173E-01  0.00000000000E+00 0. -1.
     999901    1    3    3    0    0 -0.55364584275E-01 -0.37557993666E-01  0.11224354886E+00  0.88964850044E+00  0.88000000000E+00 0.  1.
        -11    1    4    4    0    0  0.34617708630E-01  0.47810210504E-01 -0.58074910822E-01  0.82807960772E-01  0.51100000000E-03 0. -1.
         11    1    4    4    0    0  0.22504461389E-01  0.84563973926E-02 -0.43913949120E-01  0.50066530612E-01  0.51100000000E-03 0.  1.
</event>
<event>
 8    1  0.1173674E+005  0.1043930E+01  0.7957747E-01            NaN
         13   -1    0    0    0    0  0.00000000000E+00  0.00000000000E+00  0.74505805969E-08  0.10566000000E+00  0.10566000000E+00 0.  1.
     999900   -1    0    0    0    0 -0.00000000000E+00 -0.00000000000E+00 -0.74505805969E-08  0.93827000000E+00  0.93827000000E+00 0.  1.
     999902    2    1    2    0    0  0.21781004101E-01  0.76297417939E-02  0.70972925420E-03  0.10208404176E+01  0.10205792617E+01 0.  0.
     999903    2    3    3    0    0 -0.52941947507E-01 -0.10329339395E+00 -0.52801310749E-01  0.12912808005E+00  0.20339803394E-01 0.  0.
         14    1    1    2    0    0 -0.21781004101E-01 -0.76297417939E-02 -0.70972925420E-03  0.23089582393E-01  0.00000000000E+00 0.  1.
     999901    1    3    3    0    0  0.74722951608E-01  0.11092313574E+00  0.53511040003E-01  0.89171233755E+00  0.88000000000E+00 0. -1.
        -11    1    4    4    0    0 -0.11092128493E-01 -0.41427648787E-01 -0.15192774905E-01  0.45501284914E-01  0.51100000000E-03 0. -1.
         11    1    4    4    0    0 -0.41849819014E-01 -0.61865745164E-01 -0.37608535844E-01  0.83626795141E-01  0.51100000000E-03 0.  1.
</event>
<event>
 8    1  0.1115874E+005  0.1043930E+01  0.7957747E-01            NaN
         13   -1    0    0    0    0  0.00000000000E+00  0.00000000000E+00  0.74505805969E-08  0.10566000000E+00  0.10566000000E+00 0.  1.
     999900   -1    0    0    0    0 -0.00000000000E+00 -0.00000000000E+00 -0.74505805969E-08  0.93827000000E+00  0.93827000000E+00 0.  1.
     999902    2    1    2    0    0  0.37351975806E-02  0.24813450889E-02 -0.27353970062E-01  0.10162109009E+01  0.10158327848E+01 0.  0.
     999903    2    3    3    0    0  0.13762968739E-01  0.43925168844E-01  0.11183935688E+00  0.12425073984E+00  0.28484466631E-01 0.  0.
         14    1    1    2    0    0 -0.37351975806E-02 -0.24813450889E-02  0.27353970062E-01  0.27719099057E-01  0.00000000000E+00 0.  1.
     999901    1    3    3    0    0 -0.10027771158E-01 -0.41443823756E-01 -0.13919332694E+00  0.89196016110E+00  0.88000000000E+00 0.  1.
        -11    1    4    4    0    0  0.20552594855E-01  0.35304660075E-01  0.70553492424E-01  0.81528428125E-01  0.51100000000E-03 0. -1.
         11    1    4    4    0    0 -0.67896261158E-02  0.86205087692E-02  0.41285864451E-01  0.42722311720E-01  0.51100000000E-03 0.  1.
</event>
<event>
 8    1  0.1115874E+005  0.1043930E+01  0.7957747E-01            NaN
         13   -1    0    0    0    0  0.00000000000E+00  0.00000000000E+00  0.74505805969E-08  0.10566000000E+00  0.10566000000E+00 0. -1.
     999900   -1    0    0    0    0 -0.00000000000E+00 -0.00000000000E+00 -0.74505805969E-08  0.93827000000E+00  0.93827000000E+00 0. -1.
     999902    2    1    2    0    0  0.26253378068E-01 -0.84297310589E-02  0.12235876722E-01  0.10137635135E+01  0.10133145832E+01 0.  0.
     999903    2    3    3    0    0 -0.81675895402E-02 -0.11057018318E+00  0.56581249857E-01  0.12607889214E+00  0.20049296257E-01 0.  0.
         14    1    1    2    0    0 -0.26253378068E-01  0.84297310589E-02 -0.12235876722E-01  0.30166486452E-01  0.00000000000E+00 0.  1.
     999901    1    3    3    0    0  0.34420967608E-01  0.10214045212E+00 -0.44345373135E-01  0.88768462141E+00  0.88000000000E+00 0. -1.
        -11    1    4    4    0    0 -0.67029987901E-02 -0.98689420387E-01  0.42697177635E-01  0.10773969551E+00  0.51100000000E-03 0. -1.
         11    1    4    4    0    0 -0.14645907500E-02 -0.11880762791E-01  0.13884072223E-01  0.18339196630E-01  0.51100000000E-03 0.  1.
</event>
<event>
 8    1  0.1115874E+005  0.1043930E+01  0.7957747E-01            NaN
         13   -1    0    0    0    0  0.00000000000E+00  0.00000000000E+00  0.74505805969E-08  0.10566000000E+00  0.10566000000E+00 0.  1.
     999900   -1    0    0    0    0 -0.00000000000E+00 -0.00000000000E+00 -0.74505805969E-08  0.93827000000E+00  0.93827000000E+00 0.  1.
     999902    2    1    2    0    0  0.16605434243E-01  0.10765295440E-01  0.47610090184E-02  0.10235756580E+01  0.10233732596E+01 0.  0.
     999903    2    3    3    0    0 -0.10003893409E+00 -0.56022191068E-01  0.60651312307E-01  0.13161702496E+00  0.22320066047E-01 0.  0.
         14    1    1    2    0    0 -0.16605434243E-01 -0.10765295440E-01 -0.47610090184E-02  0.20354342023E-01  0.00000000000E+00 0. -1.
     999901    1    3    3    0    0  0.11664436833E+00  0.66787486507E-01 -0.55890303289E-01  0.89195863302E+00  0.88000000000E+00 0. -1.
        -11    1    4    4    0    0 -0.24862024735E-01 -0.13421516523E-01  0.26384364680E-01  0.38660744952E-01  0.51100000000E-03 0. -1.
         11    1    4    4    0    0 -0.75176909354E-01 -0.42600674545E-01  0.34266947627E-01  0.92956280005E-01  0.51100000000E-03 0.  1.
</event>
<event>
 8    1  0.1115874E+005  0.1043930E+01  0.7957747E-01            NaN
         13   -1    0    0    0    0  0.00000000000E+00  0.00000000000E+00  0.74505805969E-08  0.10566000000E+00  0.10566000000E+00 0.  1.
     999900   -1    0    0    0    0 -0.00000000000E+00 -0.00000000000E+00 -0.74505805969E-08  0.93827000000E+00  0.93827000000E+00 0. -1.
     999902    2    1    2    0    0 -0.71357378706E-02  0.13132857819E-01  0.16811592158E-01  0.10214351041E+01  0.10211873734E+01 0.  0.
     999903    2    3    3    0    0  0.36976201627E-02 -0.96322166857E-01  0.87219818935E-01  0.13179749112E+00  0.21717495905E-01 0.  0.
         14    1    1    2    0    0  0.71357378706E-02 -0.13132857819E-01 -0.16811592158E-01  0.22494895873E-01  0.00000000000E+00 0. -1.
     999901    1    3    3    0    0 -0.10833358033E-01  0.10945502468E+00 -0.70408226777E-01  0.88963761300E+00  0.88000000000E+00 0. -1.
        -11    1    4    4    0    0 -0.49723996955E-02 -0.36865021298E-01  0.22467482168E-01  0.43460366197E-01  0.51100000000E-03 0.  1.
         11    1    4    4    0    0  0.86700198582E-02 -0.59457145559E-01  0.64752336767E-01  0.88337124926E-01  0.51100000000E-03 0. -1.
</event>
<event>
 8    1  0.1115874E+005  0.1043930E+01  0.7957747E-01            NaN
         13   -1    0    0    0    0  0.00000000000E+00  0.00000000000E+00  0.74505805969E-08  0.10566000000E+00  0.10566000000E+00 0.  1.
     999900   -1    0    0    0    0 -0.00000000000E+00 -0.00000000000E+00 -0.74505805969E-08  0.93827000000E+00  0.93827000000E+00 0.  1.
     999902    2    1    2    0    0  0.20325725492E-01 -0.22247188291E-02  0.12919882021E-01  0.10197430646E+01  0.10194561835E+01 0.  0.
     999903    2    3    3    0    0 -0.11317868902E+00  0.41015949378E-01  0.39467633976E-01  0.12822864119E+00  0.19828427567E-01 0.  0.
         14    1    1    2    0    0 -0.20325725492E-01  0.22247188291E-02 -0.12919882021E-01  0.24186935359E-01  0.00000000000E+00 0. -1.
     999901    1    3    3    0    0  0.13350441451E+00 -0.43240668208E-01 -0.26547751955E-01  0.89151442345E+00  0.88000000000E+00 0.  1.
        -11    1    4    4    0    0 -0.72386943695E-01  0.18105504534E-01  0.18045326901E-01  0.76769615447E-01  0.51100000000E-03 0. -1.
         11    1    4    4    0    0 -0.40791745321E-01  0.22910444845E-01  0.21422307075E-01  0.51459025747E-01  0.51100000000E-03 0.  1.
</event>
<event>
 8    1  0.1115874E+005  0.1043930E+01  0.7957747E-01            NaN
         13   -1    0    0    0    0  0.00000000000E+00  0.00000000000E+00  0.74505805969E-08  0.10566000000E+00  0.10566000000E+00 0. -1.
     999900   -1    0    0    0    0 -0.00000000000E+00 -0.00000000000E+00 -0.74505805969E-08  0.93827000000E+00  0.93827000000E+00 0. -1.
     999902    2    1    2    0    0 -0.11055375561E-01 -0.16670044776E-01 -0.11562355443E-01  0.10208258925E+01  0.10205644041E+01 0.  0.
     999903    2    3    3    0    0 -0.70655995600E-02  0.52826222525E-01 -0.11861168257E+00  0.13160982878E+00  0.20294908356E-01 0.  0.
         14    1    1    2    0    0  0.11055375561E-01  0.16670044776E-01  0.11562355443E-01  0.23104107535E-01  0.00000000000E+00 0. -1.
     999901    1    3    3    0    0 -0.39897760007E-02 -0.69496267301E-01  0.10704932713E+00  0.88921606369E+00  0.88000000000E+00 0.  1.
        -11    1    4    4    0    0 -0.15011187793E-02  0.10536634677E-01 -0.47539680032E-01  0.48719157694E-01  0.51100000000E-03 0.  1.
         11    1    4    4    0    0 -0.55644807806E-02  0.42289587849E-01 -0.71072002539E-01  0.82890671083E-01  0.51100000000E-03 0. -1.
</event>
<event>
 8    1  0.1115874E+005  0.1043930E+01  0.7957747E-01            NaN
         13   -1    0    0    0    0  0.00000000000E+00  0.00000000000E+00  0.74505805969E-08  0.10566000000E+00  0.10566000000E+00 0. -1.
     999900   -1    0    0    0    0 -0.00000000000E+00 -0.00000000000E+00 -0.74505805969E-08  0.93827000000E+00  0.93827000000E+00 0.  1.
     999902    2    1    2    0    0 -0.23073222232E-01 -0.60866330224E-02  0.37372099340E-02  0.10197765857E+01  0.10194905087E+01 0.  0.
     999903    2    3    3    0    0 -0.61458590095E-01 -0.95997149859E-01 -0.62942598568E-01  0.13185568020E+00  0.20773507399E-01 0.  0.
         14    1    1    2    0    0  0.23073222232E-01  0.60866330224E-02 -0.37372099340E-02  0.24153414330E-01  0.00000000000E+00 0. -1.
     999901    1    3    3    0    0  0.38385367863E-01  0.89910516837E-01  0.66679808502E-01  0.88792090547E+00  0.88000000000E+00 0. -1.
        -11    1    4    4    0    0 -0.23457333328E-01 -0.55853390432E-01 -0.32609955913E-01  0.68800567259E-01  0.51100000000E-03 0. -1.
         11    1    4    4    0    0 -0.38001256767E-01 -0.40143759428E-01 -0.30332642655E-01  0.63055112943E-01  0.51100000000E-03 0.  1.
</event>
<event>
 8    1  0.1115874E+005  0.1043930E+01  0.7957747E-01            NaN
         13   -1    0    0    0    0  0.00000000000E+00  0.00000000000E+00  0.74505805969E-08  0.10566000000E+00  0.10566000000E+00 0.  1.
     999900   -1    0    0    0    0 -0.00000000000E+00 -0.00000000000E+00 -0.74505805969E-08  0.93827000000E+00  0.93827000000E+00 0. -1.
     999902    2    1    2    0    0 -0.20562238017E-01 -0.53588502675E-02  0.11299555244E-01  0.10198633663E+01  0.10195793658E+01 0.  0.
     999903    2    3    3    0    0 -0.12506126680E+00 -0.33188169594E-01  0.24348905586E-01  0.13314762630E+00  0.19840517465E-01 0.  0.
         14    1    1    2    0    0  0.20562238017E-01  0.53588502675E-02 -0.11299555244E-01  0.24066633689E-01  0.00000000000E+00 0. -1.
     999901    1    3    3    0    0  0.10449902878E+00  0.27829319326E-01 -0.13049350342E-01  0.88671574001E+00  0.88000000000E+00 0.  1.
        -11    1    4    4    0    0 -0.10863001870E+00 -0.24492854164E-01  0.26379135414E-01  0.11443994396E+00  0.51100000000E-03 0. -1.
         11    1    4    4    0    0 -0.16431248102E-01 -0.86953154300E-02 -0.20302298288E-02  0.18707682346E-01  0.51100000000E-03 0.  1.
</event>
<event>
 8    1  0.1115874E+005  0.1043930E+01  0.7957747E-01            NaN
         13   -1    0    0    0    0  0.00000000000E+00  0.00000000000E+00  0.74505805969E-08  0.10566000000E+00  0.10566000000E+00 0.  1.
     999900   -1    0    0    0    0 -0.00000000000E+00 -0.00000000000E+00 -0.74505805969E-08  0.93827000000E+00  0.93827000000E+00 0. -1.
     999902    2    1    2    0    0  0.15664420381E-01 -0.14974339219E-02  0.18224690174E-01  0.10198518833E+01  0.10195676084E+01 0.  0.
     999903    2    3    3    0    0 -0.31801462052E-02  0.30648805708E-01 -0.12227734945E+00  0.12792737885E+00  0.21545334757E-01 0.  0.
         14    1    1    2    0    0 -0.15664420381E-01  0.14974339219E-02 -0.18224690174E-01  0.24078116749E-01  0.00000000000E+00 0.  1.
     999901    1    3    3    0    0  0.18844566586E-01 -0.32146239630E-01  0.14050203962E+00  0.89192450440E+00  0.88000000000E+00 0.  1.
        -11    1    4    4    0    0  0.43713043981E-02  0.38274177549E-02 -0.51997764722E-01  0.52323857712E-01  0.51100000000E-03 0. -1.
         11    1    4    4    0    0 -0.75514506033E-02  0.26821387953E-01 -0.70279584728E-01  0.75603521138E-01  0.51100000000E-03 0.  1.
</event>
<event>
 8    1  0.1115874E+005  0.1043930E+01  0.7957747E-01            NaN
         13   -1    0    0    0    0  0.00000000000E+00  0.00000000000E+00  0.74505805969E-08  0.10566000000E+00  0.10566000000E+00 0.  1.
     999900   -1    0    0    0    0 -0.00000000000E+00 -0.00000000000E+00 -0.74505805969E-08  0.93827000000E+00  0.93827000000E+00 0. -1.
     999902    2    1    2    0    0 -0.74404861724E-02 -0.21989949053E-01 -0.34669638892E-02  0.10204579202E+01  0.10201879377E+01 0.  0.
     999903    2    3    3    0    0 -0.12927422887E+00 -0.15390710212E-01  0.83078851266E-02  0.13196162985E+00  0.19903532003E-01 0.  0.
         14    1    1    2    0    0  0.74404861724E-02  0.21989949053E-01  0.34669638892E-02  0.23472079849E-01  0.00000000000E+00 0.  1.
     999901    1    3    3    0    0  0.12183374270E+00 -0.65992388409E-02 -0.11774849016E-01  0.88849629030E+00  0.88000000000E+00 0. -1.
        -11    1    4    4    0    0 -0.71321478023E-01 -0.59970861745E-02  0.14150197040E-01  0.72960314331E-01  0.51100000000E-03 0.  1.
         11    1    4    4    0    0 -0.57952750846E-01 -0.93936240379E-02 -0.58423119138E-02  0.59001315517E-01  0.51100000000E-03 0. -1.
</event>
<event>
 8    1  0.1115874E+005  0.1043930E+01  0.7957747E-01            NaN
         13   -1    0    0    0    0  0.00000000000E+00  0.00000000000E+00  0.74505805969E-08  0.10566000000E+00  0.10566000000E+00 0.  1.
     999900   -1    0    0    0    0 -0.00000000000E+00 -0.00000000000E+00 -0.74505805969E-08  0.93827000000E+00  0.93827000000E+00 0. -1.
     999902    2    1    2    0    0 -0.16569012678E-02  0.72721699167E-02 -0.23542146587E-01  0.10192346068E+01  0.10189353862E+01 0.  0.
     999903    2    3    3    0    0  0.28200896804E-01  0.11158703022E+00  0.54910506308E-01  0.12910658407E+00  0.20159128268E-01 0.  0.
         14    1    1    2    0    0  0.16569012678E-02 -0.72721699167E-02  0.23542146587E-01  0.24695393154E-01  0.00000000000E+00 0.  1.
     999901    1    3    3    0    0 -0.29857798072E-01 -0.10431486031E+00 -0.78452652894E-01  0.89012802278E+00  0.88000000000E+00 0. -1.
        -11    1    4    4    0    0  0.11237357869E-01  0.27359335746E-01  0.22927458229E-01  0.37426473601E-01  0.51100000000E-03 0.  1.
         11    1    4    4    0    0  0.16963538936E-01  0.84227694478E-01  0.31983048078E-01  0.91680110469E-01  0.51100000000E-03 0. -1.
</event>
<event>
 8    1  0.1115874E+005  0.1043930E+01  0.7957747E-01            NaN
         13   -1    0    0    0    0  0.00000000000E+00  0.00000000000E+00  0.74505805969E-08  0.10566000000E+00  0.10566000000E+00 0.  1.
     999900   -1    0    0    0    0 -0.00000000000E+00 -0.00000000000E+00 -0.74505805969E-08  0.93827000000E+00  0.93827000000E+00 0.  1.
     999902    2    1    2    0    0  0.21593305440E-02 -0.47004158712E-03  0.21862678308E-01  0.10219559164E+01  0.10217196458E+01 0.  0.
     999903    2    3    3    0    0 -0.29525759654E-01 -0.12195249542E+00  0.39287726300E-01  0.13287461312E+00  0.19182172809E-01 0.  0.
         14    1    1    2    0    0 -0.21593305440E-02  0.47004158712E-03 -0.21862678308E-01  0.21974083606E-01  0.00000000000E+00 0. -1.
     999901    1    3    3    0    0  0.31685090198E-01  0.12148245383E+00 -0.17425047991E-01  0.88908130327E+00  0.88000000000E+00 0.  1.
        -11    1    4    4    0    0 -0.22680119553E-01 -0.53246213263E-01  0.18644093373E-01  0.60806335102E-01  0.51100000000E-03 0.  1.
         11    1    4    4    0    0 -0.68456401010E-02 -0.68706282152E-01  0.20643632926E-01  0.72068278021E-01  0.51100000000E-03 0. -1.
</event>
<event>
 8    1  0.1115874E+005  0.1043930E+01  0.7957747E-01            NaN
         13   -1    0    0    0    0  0.00000000000E+00  0.00000000000E+00  0.74505805969E-08  0.10566000000E+00  0.10566000000E+00 0. -1.
     999900   -1    0    0    0    0 -0.00000000000E+00 -0.00000000000E+00 -0.74505805969E-08  0.93827000000E+00  0.93827000000E+00 0.  1.
     999902    2    1    2    0    0 -0.19918127057E-01 -0.94684721456E-02  0.85050194839E-02  0.10202927602E+01  0.10200189201E+01 0.  0.
     999903    2    3    3    0    0  0.83951763515E-01  0.62737863341E-01  0.72491590138E-01  0.12894715365E+00  0.19707858805E-01 0.  0.
         14    1    1    2    0    0  0.19918127057E-01  0.94684721456E-02 -0.85050194839E-02  0.23637239827E-01  0.00000000000E+00 0. -1.
     999901    1    3    3    0    0 -0.10386989057E+00 -0.72206335487E-01 -0.63986570654E-01  0.89134560653E+00  0.88000000000E+00 0. -1.
        -11    1    4    4    0    0  0.54620628790E-01  0.49157707960E-01  0.42724653784E-01  0.85003238193E-01  0.51100000000E-03 0. -1.
         11    1    4    4    0    0  0.29331134725E-01  0.13580155381E-01  0.29766936354E-01  0.43943915453E-01  0.51100000000E-03 0.  1.
</event>
<event>
 8    1  0.1115874E+005  0.1043930E+01  0.7957747E-01            NaN
         13   -1    0    0    0    0  0.00000000000E+00  0.00000000000E+00  0.74505805969E-08  0.10566000000E+00  0.10566000000E+00 0.  1.
     999900   -1    0    0    0    0 -0.00000000000E+00 -0.00000000000E+00 -0.74505805969E-08  0.93827000000E+00  0.93827000000E+00 0. -1.
     999902    2    1    2    0    0  0.69577775914E-02 -0.39704755206E-02 -0.22188434326E-01  0.10203397062E+01  0.10200669655E+01 0.  0.
     999903    2    3    3    0    0  0.10434730304E+00  0.74027547547E-01 -0.22948520033E-01  0.13153770967E+00  0.20176646024E-01 0.  0.
         14    1    1    2    0    0 -0.69577775914E-02  0.39704755206E-02  0.22188434326E-01  0.23590293824E-01  0.00000000000E+00 0.  1.
     999901    1    3    3    0    0 -0.97389525449E-01 -0.77998023068E-01  0.76008570737E-03  0.88880199651E+00  0.88000000000E+00 0. -1.
        -11    1    4    4    0    0  0.79362196390E-01  0.51859878745E-01 -0.25072735736E-01  0.98064817532E-01  0.51100000000E-03 0.  1.
         11    1    4    4    0    0  0.24985106651E-01  0.22167668802E-01  0.21242157028E-02  0.33472892134E-01  0.51100000000E-03 0. -1.
</event>
