<event>
 7    1  0.4717691E-066  0.9118800E+02  0.7957747E-01            NaN
     999900   -1    0    0    0    0  0.00000000000E+00  0.00000000000E+00  0.99999998245E-14  0.93827000000E+00  0.93827000000E+00 0. -1.
        -11    1    1    0    0    0 -0.28141528460E-02 -0.37845803363E-03 -0.22738173865E-02  0.36734252723E-02  0.51100000000E-03 0. -1.
        -14    1    1    0    0    0  0.27821737524E-02 -0.16356897339E-02  0.94054749568E-03  0.33616366974E-02  0.00000000000E+00 0. -1.
         12    1    1    0    0    0 -0.95485425411E-03 -0.52599437411E-02  0.18030943683E-02  0.56417997224E-02  0.00000000000E+00 0.  1.
         14    1    1    0    0    0 -0.39271443050E-03  0.50666067436E-03 -0.11574584517E-02  0.13231174288E-02  0.00000000000E+00 0.  1.
     999901    1    1    0    0    0  0.64107745798E-02  0.11215173078E-02 -0.10611619158E-01  0.90008608605E+00  0.90000000000E+00 0.  1.
     999903    1    1    0    0    0 -0.50312268016E-02  0.56459135265E-02  0.11299253133E-01  0.24183934834E-01  0.20000000000E-01 0.  0.
</event>
<event>
 7    1  0.4717691E-066  0.9118800E+02  0.7957747E-01            NaN
     999900   -1    0    0    0    0  0.00000000000E+00  0.00000000000E+00  0.99999998245E-14  0.93827000000E+00  0.93827000000E+00 0.  1.
        -11    1    1    0    0    0  0.30102386691E-02  0.13674973642E-02 -0.15681512967E-02  0.36948349592E-02  0.51100000000E-03 0. -1.
        -14    1    1    0    0    0  0.12925362123E-02  0.84418184303E-03  0.16954012377E-02  0.22929627561E-02  0.00000000000E+00 0. -1.
         12    1    1    0    0    0  0.18325538994E-02  0.36223395235E-02 -0.71045526399E-02  0.81825586237E-02  0.00000000000E+00 0.  1.
         14    1    1    0    0    0  0.11454073894E-02 -0.80106102023E-05 -0.84611729318E-03  0.14240564355E-02  0.00000000000E+00 0.  1.
     999901    1    1    0    0    0 -0.56300440992E-03 -0.98200441262E-02  0.14558015886E-01  0.90017147592E+00  0.90000000000E+00 0.  1.
     999903    1    1    0    0    0 -0.67177317603E-02  0.39940360057E-02 -0.67345958938E-02  0.22504111302E-01  0.20000000000E-01 0.  0.
</event>
<event>
 7    1  0.4717691E-066  0.9118800E+02  0.7957747E-01            NaN
     999900   -1    0    0    0    0  0.00000000000E+00  0.00000000000E+00  0.99999998245E-14  0.93827000000E+00  0.93827000000E+00 0. -1.
        -11    1    1    0    0    0 -0.30052662359E-03 -0.67847961493E-03  0.14749565349E-02  0.17283716670E-02  0.51100000000E-03 0. -1.
        -14    1    1    0    0    0  0.59596844446E-02 -0.52226748765E-02 -0.46697665584E-02  0.91978742792E-02  0.00000000000E+00 0. -1.
         12    1    1    0    0    0  0.12508725120E-02  0.19429627392E-03  0.23944657198E-03  0.12883197368E-02  0.00000000000E+00 0.  1.
         14    1    1    0    0    0 -0.34786373382E-02 -0.14178543502E-03  0.22051119620E-02  0.41211090262E-02  0.00000000000E+00 0.  1.
     999901    1    1    0    0    0 -0.31147472206E-02  0.13766695310E-01  0.43579710336E-02  0.90012122265E+00  0.90000000000E+00 0.  1.
     999903    1    1    0    0    0 -0.31664577423E-03 -0.79180516575E-02 -0.36077195440E-02  0.21813102643E-01  0.20000000000E-01 0.  0.
</event>
<event>
 7    1  0.4717691E-066  0.9118800E+02  0.7957747E-01            NaN
     999900   -1    0    0    0    0  0.00000000000E+00  0.00000000000E+00  0.99999998245E-14  0.93827000000E+00  0.93827000000E+00 0. -1.
        -11    1    1    0    0    0 -0.36340328227E-02  0.44917872359E-03  0.14494945603E-02  0.39711599769E-02  0.51100000000E-03 0. -1.
        -14    1    1    0    0    0  0.23255620362E-02 -0.26365107491E-02 -0.24525327870E-02  0.42865306235E-02  0.00000000000E+00 0. -1.
         12    1    1    0    0    0  0.17790065021E-02  0.32062919661E-02  0.20700903577E-02  0.42107536612E-02  0.00000000000E+00 0.  1.
         14    1    1    0    0    0 -0.25992770427E-02 -0.45699131156E-02 -0.72861496903E-03  0.53076573742E-02  0.00000000000E+00 0.  1.
     999901    1    1    0    0    0  0.57896316660E-02  0.14701409295E-02 -0.15229695810E-02  0.90002111119E+00  0.90000000000E+00 0. -1.
     999903    1    1    0    0    0 -0.36608903390E-02  0.20808122455E-02  0.11845324191E-02  0.20472787175E-01  0.20000000000E-01 0.  0.
</event>
<event>
 7    1  0.4717691E-066  0.9118800E+02  0.7957747E-01            NaN
     999900   -1    0    0    0    0  0.00000000000E+00  0.00000000000E+00  0.99999998245E-14  0.93827000000E+00  0.93827000000E+00 0. -1.
        -11    1    1    0    0    0  0.14802594829E-02  0.35422539091E-02 -0.16988501897E-02  0.42291776813E-02  0.51100000000E-03 0. -1.
        -14    1    1    0    0    0 -0.28756206503E-02  0.27883168368E-02 -0.57902778762E-03  0.40471197272E-02  0.00000000000E+00 0. -1.
         12    1    1    0    0    0 -0.20689946343E-02  0.14679773038E-02 -0.12275140255E-02  0.28182418001E-02  0.00000000000E+00 0.  1.
         14    1    1    0    0    0  0.84272897119E-03 -0.98136680446E-03  0.57102998711E-03  0.14139830869E-02  0.00000000000E+00 0.  1.
     999901    1    1    0    0    0 -0.23102493144E-02 -0.20894854658E-01  0.81018128593E-02  0.90028194005E+00  0.90000000000E+00 0. -1.
     999903    1    1    0    0    0  0.49318761449E-02  0.14077673413E-01 -0.51674508437E-02  0.25479537658E-01  0.20000000000E-01 0.  0.
</event>
<event>
 7    1  0.4717691E-066  0.9118800E+02  0.7957747E-01            NaN
     999900   -1    0    0    0    0  0.00000000000E+00  0.00000000000E+00  0.99999998245E-14  0.93827000000E+00  0.93827000000E+00 0.  1.
        -11    1    1    0    0    0 -0.52221039547E-02 -0.43531751691E-04 -0.60785791925E-03  0.52823173870E-02  0.51100000000E-03 0. -1.
        -14    1    1    0    0    0  0.23248544966E-02 -0.58878501215E-03 -0.19357341586E-03  0.24060521375E-02  0.00000000000E+00 0. -1.
         12    1    1    0    0    0 -0.11902267762E-02 -0.17329930187E-03  0.58444323403E-03  0.13372532746E-02  0.00000000000E+00 0.  1.
         14    1    1    0    0    0  0.33713137200E-04 -0.52259592943E-02  0.14173837799E-02  0.54148650861E-02  0.00000000000E+00 0.  1.
     999901    1    1    0    0    0  0.13186151459E-01 -0.54001093570E-03 -0.71428799691E-02  0.90012509516E+00  0.90000000000E+00 0.  1.
     999903    1    1    0    0    0 -0.91323883620E-02  0.65715862957E-02  0.59424842902E-02  0.23704416955E-01  0.20000000000E-01 0.  0.
</event>
<event>
 7    1  0.4717691E-066  0.9118800E+02  0.7957747E-01            NaN
     999900   -1    0    0    0    0  0.00000000000E+00  0.00000000000E+00  0.99999998245E-14  0.93827000000E+00  0.93827000000E+00 0.  1.
        -11    1    1    0    0    0  0.14707221529E-03 -0.13011686154E-02  0.86230368893E-03  0.16490478023E-02  0.51100000000E-03 0. -1.
        -14    1    1    0    0    0 -0.22396282888E-02  0.14827799910E-04 -0.57056436350E-03  0.23112114634E-02  0.00000000000E+00 0. -1.
         12    1    1    0    0    0 -0.45458111623E-03 -0.41632305506E-02 -0.40213881382E-02  0.58060912124E-02  0.00000000000E+00 0.  1.
         14    1    1    0    0    0 -0.70602694314E-03  0.45834178747E-03  0.73413692765E-03  0.11169190961E-02  0.00000000000E+00 0.  1.
     999901    1    1    0    0    0 -0.13238642647E-01 -0.34897959663E-02  0.33123893112E-02  0.90011022228E+00  0.90000000000E+00 0.  1.
     999903    1    1    0    0    0  0.16491806780E-01  0.84810255450E-02 -0.31687742606E-03  0.27276508143E-01  0.20000000000E-01 0.  0.
</event>
<event>
 7    1  0.6511283E-066  0.9118800E+02  0.7957747E-01            NaN
     999900   -1    0    0    0    0  0.00000000000E+00  0.00000000000E+00  0.99999998245E-14  0.93827000000E+00  0.93827000000E+00 0. -1.
        -11    1    1    0    0    0  0.39677606131E-02 -0.48319719618E-03 -0.32102678699E-02  0.51520427609E-02  0.51100000000E-03 0. -1.
        -14    1    1    0    0    0 -0.33404666188E-02 -0.49051937941E-04 -0.32268631228E-02  0.46447571451E-02  0.00000000000E+00 0. -1.
         12    1    1    0    0    0  0.14837076593E-02  0.30787631473E-02 -0.40698962798E-02  0.53145297688E-02  0.00000000000E+00 0.  1.
         14    1    1    0    0    0 -0.13327797018E-02  0.10856198903E-02  0.97527480193E-03  0.19763686951E-02  0.00000000000E+00 0.  1.
     999901    1    1    0    0    0  0.52241730831E-02 -0.16053592651E-02  0.69396885838E-02  0.90004334809E+00  0.90000000000E+00 0. -1.
     999903    1    1    0    0    0 -0.60023950350E-02 -0.20267746384E-02  0.25920638868E-02  0.21138953540E-01  0.20000000000E-01 0.  0.
</event>
<event>
 7    1  0.4717691E-066  0.9118800E+02  0.7957747E-01            NaN
     999900   -1    0    0    0    0  0.00000000000E+00  0.00000000000E+00  0.99999998245E-14  0.93827000000E+00  0.93827000000E+00 0. -1.
        -11    1    1    0    0    0 -0.22452763102E-02 -0.25666426518E-02 -0.12127168462E-02  0.36552323264E-02  0.51100000000E-03 0. -1.
        -14    1    1    0    0    0  0.12008948903E-03  0.21492244190E-02  0.99361489232E-03  0.23708347988E-02  0.00000000000E+00 0. -1.
         12    1    1    0    0    0  0.43658094573E-03  0.28987537673E-02 -0.30910851088E-02  0.42600684825E-02  0.00000000000E+00 0.  1.
         14    1    1    0    0    0 -0.11922938573E-02 -0.16582602841E-02  0.44244662672E-02  0.48731194898E-02  0.00000000000E+00 0.  1.
     999901    1    1    0    0    0  0.29332492041E-02 -0.37239593166E-02  0.99568786000E-02  0.90006755927E+00  0.90000000000E+00 0. -1.
     999903    1    1    0    0    0 -0.52349471358E-04  0.29008840662E-02 -0.11071157805E-01  0.23043185630E-01  0.20000000000E-01 0.  0.
</event>
<event>
 7    1  0.4717691E-066  0.9118800E+02  0.7957747E-01            NaN
     999900   -1    0    0    0    0  0.00000000000E+00  0.00000000000E+00  0.99999998245E-14  0.93827000000E+00  0.93827000000E+00 0.  1.
        -11    1    1    0    0    0  0.11625410001E-02  0.30539095134E-03 -0.36063848225E-02  0.38356091691E-02  0.51100000000E-03 0. -1.
        -14    1    1    0    0    0  0.98493301673E-03 -0.17499522946E-02 -0.73040397876E-04  0.20094180701E-02  0.00000000000E+00 0. -1.
         12    1    1    0    0    0  0.36344180127E-02  0.14119842020E-02  0.29402665559E-02  0.48834271877E-02  0.00000000000E+00 0.  1.
         14    1    1    0    0    0  0.28686411274E-02  0.91695983916E-03 -0.32227438512E-02  0.44108950560E-02  0.00000000000E+00 0.  1.
     999901    1    1    0    0    0 -0.10416903891E-01  0.65997694761E-02 -0.44924929144E-02  0.90009569010E+00  0.90000000000E+00 0. -1.
     999903    1    1    0    0    0  0.17663707336E-02 -0.74841521740E-02  0.84543954301E-02  0.23034960417E-01  0.20000000000E-01 0.  0.
</event>
<event>
 7    1  0.4717691E-066  0.9118800E+02  0.7957747E-01            NaN
     999900   -1    0    0    0    0  0.00000000000E+00  0.00000000000E+00  0.99999998245E-14  0.93827000000E+00  0.93827000000E+00 0.  1.
        -11    1    1    0    0    0 -0.80730423536E-03  0.33678146470E-03 -0.91193190307E-03  0.13630490377E-02  0.51100000000E-03 0. -1.
        -14    1    1    0    0    0  0.25680936473E-02 -0.40142076451E-02 -0.30104204185E-02  0.56366301187E-02  0.00000000000E+00 0. -1.
         12    1    1    0    0    0  0.54971199653E-02 -0.48070566859E-02  0.27976780818E-02  0.78200463262E-02  0.00000000000E+00 0.  1.
         14    1    1    0    0    0 -0.44015258015E-03  0.83032617511E-03  0.98686173109E-03  0.13627442633E-02  0.00000000000E+00 0.  1.
     999901    1    1    0    0    0 -0.14392901932E-01  0.11217249982E-01 -0.29337099381E-02  0.90018975165E+00  0.90000000000E+00 0.  1.
     999903    1    1    0    0    0  0.75751451349E-02 -0.35630932913E-02  0.30715224467E-02  0.21897778603E-01  0.20000000000E-01 0.  0.
</event>
<event>
 7    1  0.4717691E-066  0.9118800E+02  0.7957747E-01            NaN
     999900   -1    0    0    0    0  0.00000000000E+00  0.00000000000E+00  0.99999998245E-14  0.93827000000E+00  0.93827000000E+00 0. -1.
        -11    1    1    0    0    0  0.29772049597E-02 -0.30651935438E-02  0.12635931161E-02  0.44851922363E-02  0.51100000000E-03 0. -1.
        -14    1    1    0    0    0 -0.26333622540E-02  0.89079806749E-03 -0.86770272037E-03  0.29122201100E-02  0.00000000000E+00 0. -1.
         12    1    1    0    0    0 -0.28456950334E-04  0.45311560714E-02 -0.32724533955E-02  0.55893771001E-02  0.00000000000E+00 0.  1.
         14    1    1    0    0    0  0.32504394193E-02  0.14037445769E-02  0.46213264584E-03  0.35706332545E-02  0.00000000000E+00 0.  1.
     999901    1    1    0    0    0 -0.11321240742E-02  0.25679607057E-02  0.73118782118E-02  0.90003407696E+00  0.90000000000E+00 0. -1.
     999903    1    1    0    0    0 -0.24337011005E-02 -0.63284658776E-02 -0.48974478579E-02  0.21678500339E-01  0.20000000000E-01 0.  0.
</event>
<event>
 7    1  0.4717691E-066  0.9118800E+02  0.7957747E-01            NaN
     999900   -1    0    0    0    0  0.00000000000E+00  0.00000000000E+00  0.99999998245E-14  0.93827000000E+00  0.93827000000E+00 0.  1.
        -11    1    1    0    0    0  0.63473682207E-03 -0.33472327548E-02  0.45263667197E-02  0.56882312390E-02  0.51100000000E-03 0. -1.
        -14    1    1    0    0    0  0.80581051620E-03 -0.14321657347E-04 -0.69106202800E-04  0.80889515090E-03  0.00000000000E+00 0. -1.
         12    1    1    0    0    0  0.51785997247E-03  0.18017638475E-02  0.53101444238E-02  0.56313555841E-02  0.00000000000E+00 0.  1.
         14    1    1    0    0    0 -0.33372938543E-03  0.28253248469E-02 -0.32431969126E-02  0.43141814991E-02  0.00000000000E+00 0.  1.
     999901    1    1    0    0    0  0.22031881631E-02  0.31512087843E-02 -0.12690086894E-01  0.90009767384E+00  0.90000000000E+00 0. -1.
     999903    1    1    0    0    0 -0.38278660884E-02 -0.44167430666E-02  0.61658788654E-02  0.21729662682E-01  0.20000000000E-01 0.  0.
</event>
<event>
 7    1  0.4717691E-066  0.9118800E+02  0.7957747E-01            NaN
     999900   -1    0    0    0    0  0.00000000000E+00  0.00000000000E+00  0.99999998245E-14  0.93827000000E+00  0.93827000000E+00 0. -1.
        -11    1    1    0    0    0 -0.23433045584E-03  0.38283119770E-02  0.44671942629E-02  0.59099770675E-02  0.51100000000E-03 0. -1.
        -14    1    1    0    0    0  0.31943664727E-02  0.19812658831E-02  0.41926528516E-02  0.56309616936E-02  0.00000000000E+00 0. -1.
         12    1    1    0    0    0 -0.14478810282E-02 -0.65390616646E-03 -0.97378151654E-03  0.18633848739E-02  0.00000000000E+00 0.  1.
         14    1    1    0    0    0 -0.12701767423E-02 -0.15477196120E-04 -0.15489384867E-03  0.12796798837E-02  0.00000000000E+00 0.  1.
     999901    1    1    0    0    0  0.33600712858E-02  0.15762438028E-02  0.23535584970E-02  0.90001072986E+00  0.90000000000E+00 0. -1.
     999903    1    1    0    0    0 -0.36020495322E-02 -0.67164383003E-02 -0.98847302463E-02  0.23575266622E-01  0.20000000000E-01 0.  0.
</event>
<event>
 7    1  0.4717691E-066  0.9118800E+02  0.7957747E-01            NaN
     999900   -1    0    0    0    0  0.00000000000E+00  0.00000000000E+00  0.99999998245E-14  0.93827000000E+00  0.93827000000E+00 0. -1.
        -11    1    1    0    0    0  0.40870722260E-02 -0.35747087868E-04  0.24644593546E-02  0.48000123068E-02  0.51100000000E-03 0. -1.
        -14    1    1    0    0    0 -0.15317327566E-02 -0.12573052503E-02  0.31553636577E-03  0.20066352255E-02  0.00000000000E+00 0. -1.
         12    1    1    0    0    0 -0.40372590728E-03 -0.24807083447E-02 -0.16715903546E-02  0.30184636511E-02  0.00000000000E+00 0.  1.
         14    1    1    0    0    0 -0.75977446233E-03 -0.11148120526E-02  0.14044460417E-02  0.19474423818E-02  0.00000000000E+00 0.  1.
     999901    1    1    0    0    0  0.70760685759E-02 -0.33637763292E-02  0.10038722038E-01  0.90009008531E+00  0.90000000000E+00 0. -1.
     999903    1    1    0    0    0 -0.84679076758E-02  0.82523490647E-02 -0.12551573445E-01  0.26407361122E-01  0.20000000000E-01 0.  0.
</event>
<event>
 7    1  0.4717691E-066  0.9118800E+02  0.7957747E-01            NaN
     999900   -1    0    0    0    0  0.00000000000E+00  0.00000000000E+00  0.99999998245E-14  0.93827000000E+00  0.93827000000E+00 0.  1.
        -11    1    1    0    0    0 -0.33573677586E-02  0.53751751402E-03 -0.94907141091E-03  0.35668895256E-02  0.51100000000E-03 0. -1.
        -14    1    1    0    0    0  0.52812734681E-03  0.14696368050E-02  0.11403823503E-02  0.19337069938E-02  0.00000000000E+00 0. -1.
         12    1    1    0    0    0  0.83364591312E-03  0.68053567034E-02 -0.17485206253E-02  0.70756745082E-02  0.00000000000E+00 0.  1.
         14    1    1    0    0    0  0.38139738527E-02 -0.22594413201E-04  0.41071234687E-03  0.38360906779E-02  0.00000000000E+00 0.  1.
     999901    1    1    0    0    0 -0.60952200973E-02 -0.11280864261E-01  0.80536421882E-02  0.90012736363E+00  0.90000000000E+00 0.  1.
     999903    1    1    0    0    0  0.42768407432E-02  0.24909476517E-02 -0.69071448491E-02  0.21730274663E-01  0.20000000000E-01 0.  0.
</event>
<event>
 7    1  0.4717691E-066  0.9118800E+02  0.7957747E-01            NaN
     999900   -1    0    0    0    0  0.00000000000E+00  0.00000000000E+00  0.99999998245E-14  0.93827000000E+00  0.93827000000E+00 0. -1.
        -11    1    1    0    0    0 -0.13955024555E-03  0.20815888812E-03 -0.44708815543E-02  0.45069620884E-02  0.51100000000E-03 0. -1.
        -14    1    1    0    0    0 -0.27918428001E-02  0.33554026590E-03  0.26839508541E-02  0.38872311068E-02  0.00000000000E+00 0. -1.
         12    1    1    0    0    0  0.56356380167E-03 -0.64583040104E-02  0.91649481882E-03  0.65473091879E-02  0.00000000000E+00 0.  1.
         14    1    1    0    0    0  0.16600550988E-03  0.25154994425E-03  0.27056572223E-03  0.40501976965E-03  0.00000000000E+00 0.  1.
     999901    1    1    0    0    0  0.30549304333E-02  0.16507127689E-01  0.53733431596E-03  0.90015671224E+00  0.90000000000E+00 0. -1.
     999903    1    1    0    0    0 -0.85310669921E-03 -0.10844072777E-01  0.62535843142E-04  0.22766765606E-01  0.20000000000E-01 0.  0.
</event>
<event>
 7    1  0.4717691E-066  0.9118800E+02  0.7957747E-01            NaN
     999900   -1    0    0    0    0  0.00000000000E+00  0.00000000000E+00  0.99999998245E-14  0.93827000000E+00  0.93827000000E+00 0.  1.
        -11    1    1    0    0    0 -0.38871934560E-02 -0.14013563040E-02 -0.25495560719E-02  0.48821541986E-02  0.51100000000E-03 0. -1.
        -14    1    1    0    0    0  0.13552540378E-02  0.24141122305E-02 -0.30471319165E-02  0.41169969984E-02  0.00000000000E+00 0. -1.
         12    1    1    0    0    0  0.78644360676E-04 -0.10089084816E-03 -0.14430396422E-02  0.14486984875E-02  0.00000000000E+00 0.  1.
         14    1    1    0    0    0  0.25120931073E-02  0.34949288467E-02  0.39842974293E-04  0.43042684496E-02  0.00000000000E+00 0.  1.
     999901    1    1    0    0    0 -0.68785126119E-02  0.37108025460E-02  0.12895770593E-01  0.90012631607E+00  0.90000000000E+00 0.  1.
     999903    1    1    0    0    0  0.68197145622E-02 -0.81175964711E-02 -0.58958859367E-02  0.23391565791E-01  0.20000000000E-01 0.  0.
</event>
<event>
 7    1  0.4717691E-066  0.9118800E+02  0.7957747E-01            NaN
     999900   -1    0    0    0    0  0.00000000000E+00  0.00000000000E+00  0.99999998245E-14  0.93827000000E+00  0.93827000000E+00 0. -1.
        -11    1    1    0    0    0  0.30444464061E-02 -0.13889021443E-02 -0.13107864983E-02  0.36300117535E-02  0.51100000000E-03 0. -1.
        -14    1    1    0    0    0 -0.15244107029E-02  0.14428834790E-02 -0.21452592402E-02  0.30013127016E-02  0.00000000000E+00 0. -1.
         12    1    1    0    0    0  0.38598132048E-03 -0.28820862241E-02  0.17863530473E-03  0.29132993590E-02  0.00000000000E+00 0.  1.
         14    1    1    0    0    0  0.33892166664E-02  0.31830071385E-02  0.18461450882E-02  0.50026568684E-02  0.00000000000E+00 0.  1.
     999901    1    1    0    0    0  0.40113150517E-02  0.78815404582E-02 -0.10641766910E-02  0.90004407770E+00  0.90000000000E+00 0.  1.
     999903    1    1    0    0    0 -0.93065487419E-02 -0.82364427073E-02  0.24954420367E-02  0.23678641619E-01  0.20000000000E-01 0.  0.
</event>
<event>
 7    1  0.4717691E-066  0.9118800E+02  0.7957747E-01            NaN
     999900   -1    0    0    0    0  0.00000000000E+00  0.00000000000E+00  0.99999998245E-14  0.93827000000E+00  0.93827000000E+00 0. -1.
        -11    1    1    0    0    0  0.25436494468E-03 -0.31070700269E-02 -0.37836036752E-02  0.49290327092E-02  0.51100000000E-03 0. -1.
        -14    1    1    0    0    0 -0.29342985487E-02  0.22941267056E-02 -0.26826536393E-02  0.45901803736E-02  0.00000000000E+00 0. -1.
         12    1    1    0    0    0 -0.21491029046E-02 -0.12483418554E-02  0.24552761029E-02  0.34936201030E-02  0.00000000000E+00 0.  1.
         14    1    1    0    0    0  0.20545639057E-03  0.32996738805E-03 -0.39565111652E-02  0.39755592570E-02  0.00000000000E+00 0.  1.
     999901    1    1    0    0    0  0.80938511719E-02  0.50567759732E-02  0.27254455306E-02  0.90005472582E+00  0.90000000000E+00 0. -1.
     999903    1    1    0    0    0 -0.34702710539E-02 -0.33254581847E-02  0.52420468462E-02  0.21226881741E-01  0.20000000000E-01 0.  0.
</event>
<event>
 7    1  0.4717691E-066  0.9118800E+02  0.7957747E-01            NaN
     999900   -1    0    0    0    0  0.00000000000E+00  0.00000000000E+00  0.99999998245E-14  0.93827000000E+00  0.93827000000E+00 0. -1.
        -11    1    1    0    0    0 -0.21364811078E-02 -0.39312309160E-04 -0.19738608352E-02  0.29535308664E-02  0.51100000000E-03 0. -1.
        -14    1    1    0    0    0  0.17329742760E-02 -0.14005852900E-02 -0.17391195911E-02  0.28265484160E-02  0.00000000000E+00 0. -1.
         12    1    1    0    0    0  0.62225349724E-02  0.33171017051E-02 -0.36630187464E-02  0.79461192756E-02  0.00000000000E+00 0.  1.
         14    1    1    0    0    0  0.92228186218E-04  0.61877369107E-03  0.14843473901E-02  0.16107992095E-02  0.00000000000E+00 0.  1.
     999901    1    1    0    0    0 -0.13350673057E-01 -0.10297568132E-01  0.44822305110E-02  0.90016907899E+00  0.90000000000E+00 0. -1.
     999903    1    1    0    0    0  0.74394167299E-02  0.78015903351E-02  0.14094212717E-02  0.22763923242E-01  0.20000000000E-01 0.  0.
</event>
<event>
 7    1  0.4717691E-066  0.9118800E+02  0.7957747E-01            NaN
     999900   -1    0    0    0    0  0.00000000000E+00  0.00000000000E+00  0.99999998245E-14  0.93827000000E+00  0.93827000000E+00 0. -1.
        -11    1    1    0    0    0  0.15069994113E-03  0.56180191808E-02  0.27564394661E-02  0.62804402328E-02  0.51100000000E-03 0. -1.
        -14    1    1    0    0    0 -0.34285563006E-03 -0.28840606087E-03 -0.66089325598E-03  0.79844094009E-03  0.00000000000E+00 0. -1.
         12    1    1    0    0    0  0.57865241701E-03 -0.74219801517E-03  0.44496067262E-02  0.45480431541E-02  0.00000000000E+00 0.  1.
         14    1    1    0    0    0  0.19083250384E-03  0.44298622448E-02  0.48508938679E-03  0.44604269151E-02  0.00000000000E+00 0.  1.
     999901    1    1    0    0    0 -0.67896225176E-02 -0.60864669585E-02 -0.48541415884E-03  0.90004632085E+00  0.90000000000E+00 0. -1.
     999903    1    1    0    0    0  0.62122932857E-02 -0.29308103910E-02 -0.65448281643E-02  0.22136327905E-01  0.20000000000E-01 0.  0.
</event>
<event>
 7    1  0.4717691E-066  0.9118800E+02  0.7957747E-01            NaN
     999900   -1    0    0    0    0  0.00000000000E+00  0.00000000000E+00  0.99999998245E-14  0.93827000000E+00  0.93827000000E+00 0. -1.
        -11    1    1    0    0    0  0.30340575273E-02  0.29970724599E-02  0.15039892178E-02  0.45509397904E-02  0.51100000000E-03 0. -1.
        -14    1    1    0    0    0 -0.33323024669E-02  0.33329164618E-02 -0.84139370209E-03  0.47875374917E-02  0.00000000000E+00 0. -1.
         12    1    1    0    0    0  0.42071396260E-03  0.36727959579E-02 -0.15613830905E-02  0.40130222454E-02  0.00000000000E+00 0.  1.
         14    1    1    0    0    0 -0.13679180526E-02 -0.30241839407E-02 -0.11480956202E-02  0.35121235540E-02  0.00000000000E+00 0.  1.
     999901    1    1    0    0    0 -0.37501884986E-04 -0.87625183044E-02  0.90910751404E-02  0.90008856830E+00  0.90000000000E+00 0. -1.
     999903    1    1    0    0    0  0.12829509145E-02  0.17839173654E-02 -0.70441919454E-02  0.21317808620E-01  0.20000000000E-01 0.  0.
</event>
<event>
 7    1  0.4717691E-066  0.9118800E+02  0.7957747E-01            NaN
     999900   -1    0    0    0    0  0.00000000000E+00  0.00000000000E+00  0.99999998245E-14  0.93827000000E+00  0.93827000000E+00 0.  1.
        -11    1    1    0    0    0  0.17485798997E-02 -0.93844656184E-03  0.16621649170E-04  0.20492952189E-02  0.51100000000E-03 0. -1.
        -14    1    1    0    0    0  0.28630138550E-03  0.40404660664E-02  0.56604936795E-02  0.69604973394E-02  0.00000000000E+00 0. -1.
         12    1    1    0    0    0 -0.37488200922E-03 -0.18276711125E-02  0.45133968640E-02  0.48838171002E-02  0.00000000000E+00 0.  1.
         14    1    1    0    0    0 -0.11006892845E-02  0.10643483021E-02 -0.41083374425E-03  0.15852881677E-02  0.00000000000E+00 0.  1.
     999901    1    1    0    0    0  0.45759489636E-02 -0.44548974253E-02 -0.18655857528E-01  0.90021598877E+00  0.90000000000E+00 0. -1.
     999903    1    1    0    0    0 -0.51352589551E-02  0.21162007311E-02  0.88761790792E-02  0.22575113402E-01  0.20000000000E-01 0.  0.
</event>
<event>
 7    1  0.4717691E-066  0.9118800E+02  0.7957747E-01            NaN
     999900   -1    0    0    0    0  0.00000000000E+00  0.00000000000E+00  0.99999998245E-14  0.93827000000E+00  0.93827000000E+00 0. -1.
        -11    1    1    0    0    0  0.13822752404E-02  0.56098068877E-02 -0.41663057008E-04  0.58002995584E-02  0.51100000000E-03 0. -1.
        -14    1    1    0    0    0  0.29455285720E-02  0.15322494669E-03 -0.48951734882E-02  0.57150975436E-02  0.00000000000E+00 0. -1.
         12    1    1    0    0    0  0.13505514007E-02  0.60054721514E-04 -0.13587150867E-02  0.19166904659E-02  0.00000000000E+00 0.  1.
         14    1    1    0    0    0 -0.51317303480E-03 -0.22149000560E-02 -0.82818255247E-04  0.22750797096E-02  0.00000000000E+00 0.  1.
     999901    1    1    0    0    0 -0.10025482921E-01  0.53027872628E-02  0.48822052679E-02  0.90008469923E+00  0.90000000000E+00 0. -1.
     999903    1    1    0    0    0  0.48603007431E-02 -0.89109737628E-02  0.14961646193E-02  0.22478133492E-01  0.20000000000E-01 0.  0.
</event>
<event>
 7    1  0.4717691E-066  0.9118800E+02  0.7957747E-01            NaN
     999900   -1    0    0    0    0  0.00000000000E+00  0.00000000000E+00  0.99999998245E-14  0.93827000000E+00  0.93827000000E+00 0.  1.
        -11    1    1    0    0    0  0.37706511988E-02  0.45019856825E-02  0.56453667431E-03  0.59216136488E-02  0.51100000000E-03 0. -1.
        -14    1    1    0    0    0  0.14498974373E-02 -0.16791825851E-02  0.16041716647E-02  0.27377405763E-02  0.00000000000E+00 0. -1.
         12    1    1    0    0    0 -0.18035481077E-02 -0.43272741923E-03 -0.36518790349E-02  0.40958832114E-02  0.00000000000E+00 0.  1.
         14    1    1    0    0    0 -0.19397093721E-03 -0.93857463414E-03  0.13101094496E-03  0.96732152671E-03  0.00000000000E+00 0.  1.
     999901    1    1    0    0    0 -0.72023835753E-02  0.11136753660E-01  0.60936103753E-02  0.90011834427E+00  0.90000000000E+00 0.  1.
     999903    1    1    0    0    0  0.39793539840E-02 -0.12588254704E-01 -0.47414506244E-02  0.24429096763E-01  0.20000000000E-01 0.  0.
</event>
<event>
 7    1  0.4717691E-066  0.9118800E+02  0.7957747E-01            NaN
     999900   -1    0    0    0    0  0.00000000000E+00  0.00000000000E+00  0.99999998245E-14  0.93827000000E+00  0.93827000000E+00 0. -1.
        -11    1    1    0    0    0  0.19922430414E-02  0.10758462208E-02 -0.45643766961E-02  0.51206574823E-02  0.51100000000E-03 0. -1.
        -14    1    1    0    0    0 -0.11446791448E-03  0.88030527276E-03 -0.14399000711E-03  0.89931829673E-03  0.00000000000E+00 0. -1.
         12    1    1    0    0    0  0.98176196382E-03  0.19115719043E-02  0.27090330334E-02  0.34578640336E-02  0.00000000000E+00 0.  1.
         14    1    1    0    0    0  0.37048895391E-02  0.40282881929E-02  0.26861277367E-02  0.60966051602E-02  0.00000000000E+00 0.  1.
     999901    1    1    0    0    0 -0.10333089909E-01 -0.17206803351E-01 -0.26641723539E-02  0.90022771822E+00  0.90000000000E+00 0.  1.
     999903    1    1    0    0    0  0.37686632787E-02  0.93107917607E-02  0.19773782870E-02  0.22467836812E-01  0.20000000000E-01 0.  0.
</event>
<event>
 7    1  0.4717691E-066  0.9118800E+02  0.7957747E-01            NaN
     999900   -1    0    0    0    0  0.00000000000E+00  0.00000000000E+00  0.99999998245E-14  0.93827000000E+00  0.93827000000E+00 0.  1.
        -11    1    1    0    0    0  0.40243362690E-03  0.25281177349E-03  0.37677126348E-04  0.69886134728E-03  0.51100000000E-03 0. -1.
        -14    1    1    0    0    0 -0.91058412757E-03  0.10135767528E-02 -0.45181094397E-02  0.47190903992E-02  0.00000000000E+00 0. -1.
         12    1    1    0    0    0 -0.65807034939E-02  0.15373356577E-02  0.29076339394E-02  0.73568603714E-02  0.00000000000E+00 0.  1.
         14    1    1    0    0    0  0.31837400786E-02 -0.33330697238E-02 -0.79859918563E-03  0.46779605953E-02  0.00000000000E+00 0.  1.
     999901    1    1    0    0    0  0.70666491570E-02 -0.19329137227E-02 -0.16282423889E-02  0.90003129104E+00  0.90000000000E+00 0.  1.
     999903    1    1    0    0    0 -0.31615352410E-02  0.24622592625E-02  0.39996399484E-02  0.20785936242E-01  0.20000000000E-01 0.  0.
</event>
<event>
 7    1  0.4717691E-066  0.9118800E+02  0.7957747E-01            NaN
     999900   -1    0    0    0    0  0.00000000000E+00  0.00000000000E+00  0.99999998245E-14  0.93827000000E+00  0.93827000000E+00 0.  1.
        -11    1    1    0    0    0 -0.10822147528E-02  0.29950531800E-02 -0.41185852312E-02  0.52311946656E-02  0.51100000000E-03 0. -1.
        -14    1    1    0    0    0  0.21792224389E-02  0.14578196308E-02  0.11342136832E-02  0.28566920018E-02  0.00000000000E+00 0. -1.
         12    1    1    0    0    0 -0.16422046606E-02  0.20736702499E-02 -0.92551169794E-03  0.28024125956E-02  0.00000000000E+00 0.  1.
         14    1    1    0    0    0  0.23638388345E-02  0.31029568384E-03  0.65779092740E-03  0.24731975964E-02  0.00000000000E+00 0.  1.
     999901    1    1    0    0    0  0.28104300034E-02 -0.82608805359E-03 -0.94008238780E-02  0.90005386307E+00  0.90000000000E+00 0. -1.
     999903    1    1    0    0    0 -0.46290718634E-02 -0.60107506910E-02  0.12652916197E-01  0.24852640070E-01  0.20000000000E-01 0.  0.
</event>
<event>
 7    1  0.4717691E-066  0.9118800E+02  0.7957747E-01            NaN
     999900   -1    0    0    0    0  0.00000000000E+00  0.00000000000E+00  0.99999998245E-14  0.93827000000E+00  0.93827000000E+00 0.  1.
        -11    1    1    0    0    0 -0.11843737246E-03  0.83026488257E-03  0.16219189810E-02  0.18960773632E-02  0.51100000000E-03 0. -1.
        -14    1    1    0    0    0  0.22286721145E-02  0.36281942536E-03 -0.89542702213E-02  0.92345856716E-02  0.00000000000E+00 0. -1.
         12    1    1    0    0    0 -0.21229039984E-02 -0.21797911781E-02 -0.75708376645E-03  0.31355042331E-02  0.00000000000E+00 0.  1.
         14    1    1    0    0    0  0.10673325079E-03  0.63192654956E-03 -0.14509165931E-02  0.15861532432E-02  0.00000000000E+00 0.  1.
     999901    1    1    0    0    0  0.51780558117E-03  0.21516899869E-02  0.19019746116E-01  0.90020367064E+00  0.90000000000E+00 0.  1.
     999903    1    1    0    0    0 -0.61186957569E-03 -0.17969096662E-02 -0.94793945160E-02  0.22214008848E-01  0.20000000000E-01 0.  0.
</event>
<event>
 7    1  0.4717691E-066  0.9118800E+02  0.7957747E-01            NaN
     999900   -1    0    0    0    0  0.00000000000E+00  0.00000000000E+00  0.99999998245E-14  0.93827000000E+00  0.93827000000E+00 0.  1.
        -11    1    1    0    0    0  0.32181850252E-02  0.16566530831E-02 -0.47489371298E-03  0.36861713651E-02  0.51100000000E-03 0. -1.
        -14    1    1    0    0    0  0.40098589578E-03 -0.14608821159E-02  0.14947757140E-02  0.21282200733E-02  0.00000000000E+00 0. -1.
         12    1    1    0    0    0 -0.21938005368E-02 -0.41917026459E-03 -0.14220611284E-02  0.26477768710E-02  0.00000000000E+00 0.  1.
         14    1    1    0    0    0  0.43435872237E-02 -0.12870117048E-02  0.34852932242E-03  0.45436353052E-02  0.00000000000E+00 0.  1.
     999901    1    1    0    0    0 -0.85151915357E-02 -0.10143093415E-01  0.94102780158E-02  0.90014662370E+00  0.90000000000E+00 0.  1.
     999903    1    1    0    0    0  0.27462339277E-02  0.11653504418E-01 -0.93566282109E-02  0.25117572683E-01  0.20000000000E-01 0.  0.
</event>
<event>
 7    1  0.4717691E-066  0.9118800E+02  0.7957747E-01            NaN
     999900   -1    0    0    0    0  0.00000000000E+00  0.00000000000E+00  0.99999998245E-14  0.93827000000E+00  0.93827000000E+00 0.  1.
        -11    1    1    0    0    0 -0.11175145809E-02 -0.54821091038E-03  0.35786415033E-02  0.38232407784E-02  0.51100000000E-03 0. -1.
        -14    1    1    0    0    0 -0.55461257658E-02 -0.25109150672E-02 -0.26918765740E-02  0.66566061153E-02  0.00000000000E+00 0. -1.
         12    1    1    0    0    0 -0.56285410084E-03  0.98085464440E-03  0.22627451662E-02  0.25296039729E-02  0.00000000000E+00 0.  1.
         14    1    1    0    0    0 -0.22777491801E-02 -0.15686054148E-02 -0.25573564648E-02  0.37667939103E-02  0.00000000000E+00 0.  1.
     999901    1    1    0    0    0  0.14917986489E-01 -0.15572269574E-02 -0.10928519216E-03  0.90012498200E+00  0.90000000000E+00 0.  1.
     999903    1    1    0    0    0 -0.54137428614E-02  0.52041037054E-02 -0.48286843861E-03  0.21368773223E-01  0.20000000000E-01 0.  0.
</event>
<event>
 7    1  0.4717691E-066  0.9118800E+02  0.7957747E-01            NaN
     999900   -1    0    0    0    0  0.00000000000E+00  0.00000000000E+00  0.99999998245E-14  0.93827000000E+00  0.93827000000E+00 0.  1.
        -11    1    1    0    0    0 -0.53941937351E-03  0.12952619367E-02 -0.32064599279E-03  0.15272889700E-02  0.51100000000E-03 0. -1.
        -14    1    1    0    0    0 -0.57149535525E-04  0.21372274867E-02  0.47170418084E-02  0.51789468835E-02  0.00000000000E+00 0. -1.
         12    1    1    0    0    0 -0.89467333539E-03 -0.55951873171E-02 -0.77246375132E-03  0.57186765722E-02  0.00000000000E+00 0.  1.
         14    1    1    0    0    0 -0.35502730330E-02  0.12872847181E-02  0.29696107895E-02  0.48041782643E-02  0.00000000000E+00 0.  1.
     999901    1    1    0    0    0  0.11222355338E-01  0.16009434996E-02 -0.63954399845E-02  0.90009410949E+00  0.90000000000E+00 0. -1.
     999903    1    1    0    0    0 -0.61808400605E-02 -0.72553032398E-03 -0.19810286933E-03  0.20946799824E-01  0.20000000000E-01 0.  0.
</event>
<event>
 7    1  0.4717691E-066  0.9118800E+02  0.7957747E-01            NaN
     999900   -1    0    0    0    0  0.00000000000E+00  0.00000000000E+00  0.99999998245E-14  0.93827000000E+00  0.93827000000E+00 0. -1.
        -11    1    1    0    0    0 -0.20059898671E-02 -0.17573540685E-02 -0.34411094201E-02  0.43834511187E-02  0.51100000000E-03 0. -1.
        -14    1    1    0    0    0 -0.78389745924E-03  0.35519637827E-03 -0.19236063697E-02  0.21073493207E-02  0.00000000000E+00 0. -1.
         12    1    1    0    0    0 -0.40404900612E-03  0.90128380398E-03 -0.54678059196E-02  0.55562999981E-02  0.00000000000E+00 0.  1.
         14    1    1    0    0    0  0.32951727129E-02  0.91089724470E-03  0.65093874191E-03  0.34801750307E-02  0.00000000000E+00 0.  1.
     999901    1    1    0    0    0  0.76234139907E-02  0.54520614441E-02  0.56911899460E-02  0.90006679255E+00  0.90000000000E+00 0. -1.
     999903    1    1    0    0    0 -0.77246503712E-02 -0.58620848025E-02  0.44903930215E-02  0.22675931978E-01  0.20000000000E-01 0.  0.
</event>
<event>
 7    1  0.4717691E-066  0.9118800E+02  0.7957747E-01            NaN
     999900   -1    0    0    0    0  0.00000000000E+00  0.00000000000E+00  0.99999998245E-14  0.93827000000E+00  0.93827000000E+00 0.  1.
        -11    1    1    0    0    0 -0.23894487391E-02  0.12209892068E-02  0.94139985334E-03  0.28892273368E-02  0.51100000000E-03 0. -1.
        -14    1    1    0    0    0 -0.17042368443E-02 -0.36545868296E-02  0.37889063893E-02  0.55331943526E-02  0.00000000000E+00 0. -1.
         12    1    1    0    0    0  0.12208949330E-02  0.11431827840E-02 -0.17810467002E-02  0.24432721222E-02  0.00000000000E+00 0.  1.
         14    1    1    0    0    0  0.53899080830E-02  0.71793158450E-03  0.98136241281E-03  0.55253603582E-02  0.00000000000E+00 0.  1.
     999901    1    1    0    0    0  0.37348205665E-02 -0.30730137472E-02  0.11400608706E-02  0.90001371769E+00  0.90000000000E+00 0. -1.
     999903    1    1    0    0    0 -0.62519379990E-02  0.36454970015E-02 -0.50706828259E-02  0.21865228136E-01  0.20000000000E-01 0.  0.
</event>
<event>
 7    1  0.4717691E-066  0.9118800E+02  0.7957747E-01            NaN
     999900   -1    0    0    0    0  0.00000000000E+00  0.00000000000E+00  0.99999998245E-14  0.93827000000E+00  0.93827000000E+00 0. -1.
        -11    1    1    0    0    0  0.41579567381E-02  0.17284331116E-02 -0.33479405016E-02  0.56343510593E-02  0.51100000000E-03 0. -1.
        -14    1    1    0    0    0 -0.84544480290E-03 -0.19628098029E-02  0.15616410941E-02  0.26469080347E-02  0.00000000000E+00 0. -1.
         12    1    1    0    0    0  0.14404858909E-02 -0.68868410113E-03 -0.43598961290E-02  0.46430571447E-02  0.00000000000E+00 0.  1.
         14    1    1    0    0    0  0.27911570917E-02  0.24509387306E-02  0.24081456838E-02  0.44268300403E-02  0.00000000000E+00 0.  1.
     999901    1    1    0    0    0 -0.85567101343E-02 -0.24658499307E-02  0.93785021158E-02  0.90009291410E+00  0.90000000000E+00 0. -1.
     999903    1    1    0    0    0  0.10125552165E-02  0.93797199253E-03 -0.56404522631E-02  0.20825939625E-01  0.20000000000E-01 0.  0.
</event>
<event>
 7    1  0.4717691E-066  0.9118800E+02  0.7957747E-01            NaN
     999900   -1    0    0    0    0  0.00000000000E+00  0.00000000000E+00  0.99999998245E-14  0.93827000000E+00  0.93827000000E+00 0.  1.
        -11    1    1    0    0    0 -0.51869070623E-02 -0.46566628762E-03 -0.21568455803E-02  0.56598545760E-02  0.51100000000E-03 0. -1.
        -14    1    1    0    0    0 -0.29548725834E-02 -0.10902832097E-02  0.28480770346E-02  0.42463551732E-02  0.00000000000E+00 0. -1.
         12    1    1    0    0    0 -0.12106324567E-02  0.97655353832E-03 -0.14924368692E-02  0.21556102539E-02  0.00000000000E+00 0.  1.
         14    1    1    0    0    0  0.14429562967E-02  0.18440844079E-02  0.32022022724E-02  0.39669723431E-02  0.00000000000E+00 0.  1.
     999901    1    1    0    0    0  0.79870964879E-02 -0.91607369665E-02  0.29340151982E-02  0.90008684095E+00  0.90000000000E+00 0.  1.
     999903    1    1    0    0    0 -0.77640682252E-04  0.78960485176E-02 -0.53350120557E-02  0.22154366701E-01  0.20000000000E-01 0.  0.
</event>
<event>
 7    1  0.4717691E-066  0.9118800E+02  0.7957747E-01            NaN
     999900   -1    0    0    0    0  0.00000000000E+00  0.00000000000E+00  0.99999998245E-14  0.93827000000E+00  0.93827000000E+00 0.  1.
        -11    1    1    0    0    0 -0.30849627617E-02  0.26283182092E-02 -0.15471045463E-02  0.43680322031E-02  0.51100000000E-03 0. -1.
        -14    1    1    0    0    0  0.82114968483E-03  0.83391925681E-02 -0.12647441597E-02  0.84744319740E-02  0.00000000000E+00 0. -1.
         12    1    1    0    0    0 -0.72055160318E-03 -0.14217385105E-02 -0.60554721866E-03  0.17050578991E-02  0.00000000000E+00 0.  1.
         14    1    1    0    0    0  0.18012254137E-02  0.73932677823E-03 -0.93326423105E-03  0.21591663208E-02  0.00000000000E+00 0.  1.
     999901    1    1    0    0    0 -0.65109448039E-02 -0.92825181989E-02  0.31416315480E-02  0.90007690082E+00  0.90000000000E+00 0. -1.
     999903    1    1    0    0    0  0.76940840702E-02 -0.10025808461E-02  0.12090286077E-02  0.21486410780E-01  0.20000000000E-01 0.  0.
</event>
<event>
 7    1  0.4717691E-066  0.9118800E+02  0.7957747E-01            NaN
     999900   -1    0    0    0    0  0.00000000000E+00  0.00000000000E+00  0.99999998245E-14  0.93827000000E+00  0.93827000000E+00 0.  1.
        -11    1    1    0    0    0 -0.34280137182E-02 -0.15099368077E-03 -0.73800242127E-03  0.35468078208E-02  0.51100000000E-03 0. -1.
        -14    1    1    0    0    0 -0.15039215540E-02 -0.23008991079E-02 -0.31092268478E-02  0.41500853409E-02  0.00000000000E+00 0. -1.
         12    1    1    0    0    0 -0.19604137260E-02  0.18854673446E-03 -0.77088906883E-03  0.21149566910E-02  0.00000000000E+00 0.  1.
         14    1    1    0    0    0 -0.45809883557E-03  0.14616349991E-02  0.33454755539E-03  0.15678499547E-02  0.00000000000E+00 0.  1.
     999901    1    1    0    0    0  0.12671559893E-01  0.10376510244E-01 -0.95864732250E-02  0.90020005602E+00  0.90000000000E+00 0. -1.
     999903    1    1    0    0    0 -0.53211120592E-02 -0.95747991893E-02  0.13870044007E-01  0.26690244170E-01  0.20000000000E-01 0.  0.
</event>
<event>
 7    1  0.4717691E-066  0.9118800E+02  0.7957747E-01            NaN
     999900   -1    0    0    0    0  0.00000000000E+00  0.00000000000E+00  0.99999998245E-14  0.93827000000E+00  0.93827000000E+00 0.  1.
        -11    1    1    0    0    0  0.47976761358E-03 -0.46742363713E-02  0.41486333291E-02  0.62889539764E-02  0.51100000000E-03 0. -1.
        -14    1    1    0    0    0  0.15720430650E-03 -0.12063709400E-02 -0.25379755543E-02  0.28144917753E-02  0.00000000000E+00 0. -1.
         12    1    1    0    0    0  0.89356035574E-03 -0.21288194455E-02 -0.10623577406E-02  0.25414417778E-02  0.00000000000E+00 0.  1.
         14    1    1    0    0    0  0.15372359794E-02 -0.11386821119E-02  0.53822393435E-02  0.57121092216E-02  0.00000000000E+00 0.  1.
     999901    1    1    0    0    0 -0.15661115828E-03  0.70137814719E-02 -0.11189311987E-02  0.90002803827E+00  0.90000000000E+00 0. -1.
     999903    1    1    0    0    0 -0.29111570970E-02  0.21343273967E-02 -0.48116081790E-02  0.20884964983E-01  0.20000000000E-01 0.  0.
</event>
<event>
 7    1  0.4717691E-066  0.9118800E+02  0.7957747E-01            NaN
     999900   -1    0    0    0    0  0.00000000000E+00  0.00000000000E+00  0.99999998245E-14  0.93827000000E+00  0.93827000000E+00 0. -1.
        -11    1    1    0    0    0  0.11549987761E-02 -0.11496896561E-02 -0.21525729884E-02  0.27478173062E-02  0.51100000000E-03 0. -1.
        -14    1    1    0    0    0 -0.32938091204E-02 -0.78781002070E-04 -0.29226282098E-03  0.33076883959E-02  0.00000000000E+00 0. -1.
         12    1    1    0    0    0  0.22811957003E-02 -0.81107295805E-03  0.46050582635E-03  0.24644997022E-02  0.00000000000E+00 0.  1.
         14    1    1    0    0    0 -0.80664793664E-02 -0.44157454849E-03 -0.10440155850E-02  0.81457379035E-02  0.00000000000E+00 0.  1.
     999901    1    1    0    0    0  0.12214102910E-01  0.19393641349E-02 -0.36102276182E-02  0.90009220594E+00  0.90000000000E+00 0. -1.
     999903    1    1    0    0    0 -0.42900088998E-02  0.54175402973E-03  0.66385731862E-02  0.21512050756E-01  0.20000000000E-01 0.  0.
</event>
<event>
 7    1  0.4717691E-066  0.9118800E+02  0.7957747E-01            NaN
     999900   -1    0    0    0    0  0.00000000000E+00  0.00000000000E+00  0.99999998245E-14  0.93827000000E+00  0.93827000000E+00 0.  1.
        -11    1    1    0    0    0  0.55563393800E-03  0.15149830263E-02  0.94922720370E-04  0.16952976040E-02  0.51100000000E-03 0. -1.
        -14    1    1    0    0    0 -0.14522124856E-02 -0.14174089872E-02  0.10504220088E-02  0.22850286075E-02  0.00000000000E+00 0. -1.
         12    1    1    0    0    0  0.62022913065E-02 -0.45791379667E-02  0.56621757800E-02  0.95654146032E-02  0.00000000000E+00 0.  1.
         14    1    1    0    0    0 -0.13495198768E-02  0.28930489912E-03 -0.56668540977E-03  0.14919898043E-02  0.00000000000E+00 0.  1.
     999901    1    1    0    0    0 -0.13688626301E-01  0.70119442971E-03 -0.11217187081E-01  0.90017425838E+00  0.90000000000E+00 0.  1.
     999903    1    1    0    0    0  0.97324334191E-02  0.34910645987E-02  0.49763519815E-02  0.23058011001E-01  0.20000000000E-01 0.  0.
</event>
<event>
 7    1  0.1294730E-065  0.9118800E+02  0.7957747E-01            NaN
     999900   -1    0    0    0    0  0.00000000000E+00  0.00000000000E+00  0.99999998245E-14  0.93827000000E+00  0.93827000000E+00 0. -1.
        -11    1    1    0    0    0 -0.27508419490E-02  0.18016093796E-02 -0.15634784676E-02  0.36767531470E-02  0.51100000000E-03 0. -1.
        -14    1    1    0    0    0  0.15556969207E-02 -0.73036071022E-02 -0.89575887643E-03  0.75209875400E-02  0.00000000000E+00 0. -1.
         12    1    1    0    0    0 -0.34849729800E-02 -0.21468617848E-03 -0.46531264181E-03  0.35224483930E-02  0.00000000000E+00 0.  1.
         14    1    1    0    0    0  0.28752858460E-02  0.95056031269E-04 -0.13926591934E-03  0.28802255713E-02  0.00000000000E+00 0.  1.
     999901    1    1    0    0    0 -0.28141963640E-02  0.55788782438E-02  0.51585789240E-02  0.90003647399E+00  0.90000000000E+00 0.  1.
     999903    1    1    0    0    0  0.46190285262E-02  0.42749625955E-04 -0.20947630188E-02  0.20633111354E-01  0.20000000000E-01 0.  0.
</event>
<event>
 7    1  0.4717691E-066  0.9118800E+02  0.7957747E-01            NaN
     999900   -1    0    0    0    0  0.00000000000E+00  0.00000000000E+00  0.99999998245E-14  0.93827000000E+00  0.93827000000E+00 0. -1.
        -11    1    1    0    0    0  0.14665471119E-02 -0.46749700430E-03  0.38299808921E-02  0.41592293174E-02  0.51100000000E-03 0. -1.
        -14    1    1    0    0    0 -0.45216769994E-03 -0.13000585581E-02 -0.16444995362E-02  0.21445247977E-02  0.00000000000E+00 0. -1.
         12    1    1    0    0    0 -0.77177324556E-02 -0.17058997580E-03  0.11422584846E-02  0.78036689859E-02  0.00000000000E+00 0.  1.
         14    1    1    0    0    0  0.77617277712E-03  0.60939902172E-03 -0.48488090090E-03  0.10995093613E-02  0.00000000000E+00 0.  1.
     999901    1    1    0    0    0  0.13717597444E-01 -0.65919648479E-02 -0.12560297335E-02  0.90012954850E+00  0.90000000000E+00 0.  1.
     999903    1    1    0    0    0 -0.77904171778E-02  0.79207113643E-02 -0.15868292061E-02  0.22933519033E-01  0.20000000000E-01 0.  0.
</event>
<event>
 7    1  0.4717691E-066  0.9118800E+02  0.7957747E-01            NaN
     999900   -1    0    0    0    0  0.00000000000E+00  0.00000000000E+00  0.99999998245E-14  0.93827000000E+00  0.93827000000E+00 0.  1.
        -11    1    1    0    0    0  0.46842776635E-02  0.23969411034E-02  0.13405397099E-02  0.54539849281E-02  0.51100000000E-03 0. -1.
        -14    1    1    0    0    0  0.16303655633E-02 -0.60633999742E-03 -0.48283602901E-03  0.18052342489E-02  0.00000000000E+00 0. -1.
         12    1    1    0    0    0  0.14014086231E-02  0.13425115553E-02  0.14641000637E-02  0.24310229126E-02  0.00000000000E+00 0.  1.
         14    1    1    0    0    0 -0.30552947218E-02 -0.22559423628E-02  0.63433439887E-03  0.38505170966E-02  0.00000000000E+00 0.  1.
     999901    1    1    0    0    0 -0.79923597623E-02 -0.30176595199E-02 -0.16605699191E-01  0.90019371989E+00  0.90000000000E+00 0.  1.
     999903    1    1    0    0    0  0.33316026341E-02  0.21404892214E-02  0.13649561048E-01  0.24535520924E-01  0.20000000000E-01 0.  0.
</event>
<event>
 7    1  0.4717691E-066  0.9118800E+02  0.7957747E-01            NaN
     999900   -1    0    0    0    0  0.00000000000E+00  0.00000000000E+00  0.99999998245E-14  0.93827000000E+00  0.93827000000E+00 0.  1.
        -11    1    1    0    0    0  0.31375558737E-04 -0.24456066559E-03 -0.41146939679E-02  0.41536275464E-02  0.51100000000E-03 0. -1.
        -14    1    1    0    0    0  0.24603933999E-03 -0.79826822541E-04  0.15817954013E-02  0.16028051566E-02  0.00000000000E+00 0. -1.
         12    1    1    0    0    0 -0.50030132450E-03 -0.15985832319E-02  0.71960464281E-03  0.18230744929E-02  0.00000000000E+00 0.  1.
         14    1    1    0    0    0 -0.19134523083E-02  0.55974795958E-02  0.33946814848E-02  0.68203328324E-02  0.00000000000E+00 0.  1.
     999901    1    1    0    0    0  0.79503681308E-02 -0.46077172591E-02 -0.12915708680E-01  0.90013957526E+00  0.90000000000E+00 0. -1.
     999903    1    1    0    0    0 -0.58140293968E-02  0.93320838336E-03  0.11334321119E-01  0.23730584715E-01  0.20000000000E-01 0.  0.
</event>
<event>
 7    1  0.4717691E-066  0.9118800E+02  0.7957747E-01            NaN
     999900   -1    0    0    0    0  0.00000000000E+00  0.00000000000E+00  0.99999998245E-14  0.93827000000E+00  0.93827000000E+00 0. -1.
        -11    1    1    0    0    0 -0.93247044074E-03  0.39793747886E-03  0.18595242315E-02  0.21787167617E-02  0.51100000000E-03 0. -1.
        -14    1    1    0    0    0  0.73366898145E-03 -0.29533854356E-02 -0.35299025521E-02  0.46605759014E-02  0.00000000000E+00 0. -1.
         12    1    1    0    0    0  0.17157212441E-02  0.48613181682E-02 -0.21474324294E-02  0.55845841169E-02  0.00000000000E+00 0.  1.
         14    1    1    0    0    0  0.35237153974E-03  0.40357272895E-03  0.99572273720E-03  0.11307079282E-02  0.00000000000E+00 0.  1.
     999901    1    1    0    0    0 -0.74429321984E-02  0.10486231594E-01  0.18026613215E-02  0.90009366617E+00  0.90000000000E+00 0.  1.
     999903    1    1    0    0    0  0.55736408739E-02 -0.13195674534E-01  0.10194266912E-02  0.24621749121E-01  0.20000000000E-01 0.  0.
</event>
<event>
 7    1  0.4717691E-066  0.9118800E+02  0.7957747E-01            NaN
     999900   -1    0    0    0    0  0.00000000000E+00  0.00000000000E+00  0.99999998245E-14  0.93827000000E+00  0.93827000000E+00 0.  1.
        -11    1    1    0    0    0 -0.34395530569E-03  0.15314936620E-02  0.13992070672E-02  0.21639499777E-02  0.51100000000E-03 0. -1.
        -14    1    1    0    0    0 -0.17366808832E-02  0.65483472169E-03 -0.41858759943E-02  0.45789110979E-02  0.00000000000E+00 0. -1.
         12    1    1    0    0    0 -0.37465374659E-02  0.54369575018E-03  0.66459934389E-03  0.38436753687E-02  0.00000000000E+00 0.  1.
         14    1    1    0    0    0  0.19245721710E-02 -0.23767340607E-02 -0.12533236847E-02  0.33050965334E-02  0.00000000000E+00 0.  1.
     999901    1    1    0    0    0  0.13319436205E-02  0.12629723951E-01  0.70414787419E-02  0.90011714039E+00  0.90000000000E+00 0. -1.
     999903    1    1    0    0    0  0.25706578632E-02 -0.12983014024E-01 -0.36660854740E-02  0.24261226632E-01  0.20000000000E-01 0.  0.
</event>
<event>
 7    1  0.4717691E-066  0.9118800E+02  0.7957747E-01            NaN
     999900   -1    0    0    0    0  0.00000000000E+00  0.00000000000E+00  0.99999998245E-14  0.93827000000E+00  0.93827000000E+00 0. -1.
        -11    1    1    0    0    0 -0.34122084902E-02  0.10524432331E-02  0.60205308969E-03  0.36571016478E-02  0.51100000000E-03 0. -1.
        -14    1    1    0    0    0 -0.61974762970E-03  0.76566986690E-03 -0.24178702626E-02  0.26108301508E-02  0.00000000000E+00 0. -1.
         12    1    1    0    0    0  0.20035241922E-02 -0.37457922759E-03 -0.82655759203E-03  0.21994581695E-02  0.00000000000E+00 0.  1.
         14    1    1    0    0    0  0.34369670991E-02  0.59477639040E-02 -0.16364116909E-02  0.70616203184E-02  0.00000000000E+00 0.  1.
     999901    1    1    0    0    0 -0.10363917365E-01 -0.12773935506E-01  0.33366079551E-02  0.90015649593E+00  0.90000000000E+00 0.  1.
     999903    1    1    0    0    0  0.89553821931E-02  0.53826377297E-02  0.94217850075E-03  0.22584493784E-01  0.20000000000E-01 0.  0.
</event>
<event>
 7    1  0.4717691E-066  0.9118800E+02  0.7957747E-01            NaN
     999900   -1    0    0    0    0  0.00000000000E+00  0.00000000000E+00  0.99999998245E-14  0.93827000000E+00  0.93827000000E+00 0.  1.
        -11    1    1    0    0    0  0.28918570688E-02  0.38565816391E-02 -0.50884054581E-03  0.48740228709E-02  0.51100000000E-03 0. -1.
        -14    1    1    0    0    0 -0.15767316816E-02 -0.28946651878E-03  0.25901184102E-02  0.30460773201E-02  0.00000000000E+00 0. -1.
         12    1    1    0    0    0 -0.16944042344E-02 -0.11010944023E-02 -0.84316811056E-03  0.21895997477E-02  0.00000000000E+00 0.  1.
         14    1    1    0    0    0  0.24014472987E-02  0.38016670920E-02  0.18017564285E-02  0.48441663921E-02  0.00000000000E+00 0.  1.
     999901    1    1    0    0    0 -0.18471048962E-04 -0.92430524458E-02 -0.14148465639E-01  0.90015866015E+00  0.90000000000E+00 0. -1.
     999903    1    1    0    0    0 -0.20036974025E-02  0.29753646359E-02  0.11108599457E-01  0.23157473521E-01  0.20000000000E-01 0.  0.
</event>
<event>
 7    1  0.4717691E-066  0.9118800E+02  0.7957747E-01            NaN
     999900   -1    0    0    0    0  0.00000000000E+00  0.00000000000E+00  0.99999998245E-14  0.93827000000E+00  0.93827000000E+00 0.  1.
        -11    1    1    0    0    0  0.14563384493E-02 -0.42892926523E-02 -0.10267803032E-02  0.46727242511E-02  0.51100000000E-03 0. -1.
        -14    1    1    0    0    0 -0.54352142852E-03  0.35852240349E-02 -0.49438262221E-02  0.61311226246E-02  0.00000000000E+00 0. -1.
         12    1    1    0    0    0 -0.22146533426E-02  0.22665469619E-02  0.18977254256E-02  0.36936819502E-02  0.00000000000E+00 0.  1.
         14    1    1    0    0    0  0.11210415134E-02 -0.17507487639E-02  0.19080523162E-02  0.28217935697E-02  0.00000000000E+00 0.  1.
     999901    1    1    0    0    0 -0.39665584037E-02 -0.23442427801E-02  0.59079598922E-02  0.90003118449E+00  0.90000000000E+00 0.  1.
     999903    1    1    0    0    0  0.41473532121E-02  0.25325131995E-02 -0.37431311086E-02  0.20919493117E-01  0.20000000000E-01 0.  0.
</event>
<event>
 7    1  0.4717691E-066  0.9118800E+02  0.7957747E-01            NaN
     999900   -1    0    0    0    0  0.00000000000E+00  0.00000000000E+00  0.99999998245E-14  0.93827000000E+00  0.93827000000E+00 0. -1.
        -11    1    1    0    0    0 -0.21889557976E-02 -0.15135570359E-02 -0.42810651612E-03  0.27434975076E-02  0.51100000000E-03 0. -1.
        -14    1    1    0    0    0 -0.33223902098E-05 -0.44008900313E-03  0.13954114383E-02  0.14631686339E-02  0.00000000000E+00 0. -1.
         12    1    1    0    0    0 -0.55914126670E-02  0.31103809591E-02 -0.30289007074E-02  0.70790256970E-02  0.00000000000E+00 0.  1.
         14    1    1    0    0    0  0.27621631020E-02  0.42604414401E-03  0.10247773761E-02  0.29767813634E-02  0.00000000000E+00 0.  1.
     999901    1    1    0    0    0  0.68755373259E-02 -0.10193659392E-01 -0.85958839329E-02  0.90012503183E+00  0.90000000000E+00 0.  1.
     999903    1    1    0    0    0 -0.18540095732E-02  0.86108803282E-02  0.96327023420E-02  0.23882494969E-01  0.20000000000E-01 0.  0.
</event>
<event>
 7    1  0.4717691E-066  0.9118800E+02  0.7957747E-01            NaN
     999900   -1    0    0    0    0  0.00000000000E+00  0.00000000000E+00  0.99999998245E-14  0.93827000000E+00  0.93827000000E+00 0.  1.
        -11    1    1    0    0    0  0.50621010812E-02 -0.24251177713E-03  0.32980245527E-03  0.51042697791E-02  0.51100000000E-03 0. -1.
        -14    1    1    0    0    0 -0.22646695414E-02 -0.17232185141E-03 -0.19772027845E-02  0.30112711275E-02  0.00000000000E+00 0. -1.
         12    1    1    0    0    0 -0.35128541911E-02  0.28956810098E-02 -0.79828177941E-03  0.46219440583E-02  0.00000000000E+00 0.  1.
         14    1    1    0    0    0  0.13951034251E-02  0.18136925807E-02 -0.15363176373E-02  0.27560961933E-02  0.00000000000E+00 0.  1.
     999901    1    1    0    0    0 -0.77144671940E-02 -0.10979742097E-01  0.82621936324E-02  0.90013795142E+00  0.90000000000E+00 0. -1.
     999903    1    1    0    0    0  0.70347864203E-02  0.66852021351E-02 -0.42801938864E-02  0.22638467423E-01  0.20000000000E-01 0.  0.
</event>
<event>
 7    1  0.4717691E-066  0.9118800E+02  0.7957747E-01            NaN
     999900   -1    0    0    0    0  0.00000000000E+00  0.00000000000E+00  0.99999998245E-14  0.93827000000E+00  0.93827000000E+00 0.  1.
        -11    1    1    0    0    0 -0.52675848768E-02 -0.74248535037E-03  0.74796343122E-03  0.53962306496E-02  0.51100000000E-03 0. -1.
        -14    1    1    0    0    0  0.28144524586E-02 -0.10390727821E-02  0.52043506603E-02  0.60071691073E-02  0.00000000000E+00 0. -1.
         12    1    1    0    0    0  0.10724954524E-02 -0.52575313324E-03 -0.26573874065E-03  0.12236339040E-02  0.00000000000E+00 0.  1.
         14    1    1    0    0    0 -0.24176108506E-02  0.30071233198E-03  0.15223830940E-02  0.28727896576E-02  0.00000000000E+00 0.  1.
     999901    1    1    0    0    0  0.12068719061E-01 -0.30061323719E-02 -0.11423595251E-01  0.90015842458E+00  0.90000000000E+00 0. -1.
     999903    1    1    0    0    0 -0.82704712443E-02  0.50127313056E-02  0.42146368066E-02  0.22611752103E-01  0.20000000000E-01 0.  0.
</event>
<event>
 7    1  0.4717691E-066  0.9118800E+02  0.7957747E-01            NaN
     999900   -1    0    0    0    0  0.00000000000E+00  0.00000000000E+00  0.99999998245E-14  0.93827000000E+00  0.93827000000E+00 0.  1.
        -11    1    1    0    0    0  0.33056972576E-02  0.39038455154E-04 -0.31046986661E-03  0.33595640935E-02  0.51100000000E-03 0. -1.
        -14    1    1    0    0    0 -0.17026184539E-02 -0.26198767768E-02  0.57030537005E-04  0.31250466248E-02  0.00000000000E+00 0. -1.
         12    1    1    0    0    0 -0.18550445760E-02  0.68876773131E-02  0.38085136058E-02  0.80861650387E-02  0.00000000000E+00 0.  1.
         14    1    1    0    0    0 -0.11078693298E-02 -0.17633413616E-03 -0.59369688669E-03  0.12692297557E-02  0.00000000000E+00 0.  1.
     999901    1    1    0    0    0 -0.36741575770E-03 -0.15305381439E-02 -0.12419872097E-01  0.90008706844E+00  0.90000000000E+00 0. -1.
     999903    1    1    0    0    0  0.17272508597E-02 -0.25999667114E-02  0.94584947079E-02  0.22342926052E-01  0.20000000000E-01 0.  0.
</event>
<event>
 7    1  0.4717691E-066  0.9118800E+02  0.7957747E-01            NaN
     999900   -1    0    0    0    0  0.00000000000E+00  0.00000000000E+00  0.99999998245E-14  0.93827000000E+00  0.93827000000E+00 0.  1.
        -11    1    1    0    0    0 -0.12225242453E-02  0.22939694475E-02  0.24034203727E-02  0.35769277102E-02  0.51100000000E-03 0. -1.
        -14    1    1    0    0    0 -0.15792043313E-02 -0.12198852463E-02 -0.17281215387E-03  0.20029653953E-02  0.00000000000E+00 0. -1.
         12    1    1    0    0    0  0.14617530353E-03  0.66235618781E-03  0.18306381711E-02  0.19522599858E-02  0.00000000000E+00 0.  1.
         14    1    1    0    0    0 -0.73020705786E-03  0.53192694739E-02  0.81518824783E-03  0.54306870618E-02  0.00000000000E+00 0.  1.
     999901    1    1    0    0    0  0.16640847914E-01 -0.11433094608E-01 -0.10456873016E-01  0.90028716511E+00  0.90000000000E+00 0. -1.
     999903    1    1    0    0    0 -0.13255087583E-01  0.43773847456E-02  0.55804383783E-02  0.25019994735E-01  0.20000000000E-01 0.  0.
</event>
<event>
 7    1  0.4717691E-066  0.9118800E+02  0.7957747E-01            NaN
     999900   -1    0    0    0    0  0.00000000000E+00  0.00000000000E+00  0.99999998245E-14  0.93827000000E+00  0.93827000000E+00 0.  1.
        -11    1    1    0    0    0  0.19733487424E-02  0.25482840941E-02 -0.15439117694E-02  0.36100750179E-02  0.51100000000E-03 0. -1.
        -14    1    1    0    0    0  0.20229180441E-02  0.67205804676E-03  0.14510264987E-02  0.25786309025E-02  0.00000000000E+00 0. -1.
         12    1    1    0    0    0 -0.18249013570E-03  0.25687471308E-03  0.16453156878E-02  0.16752166965E-02  0.00000000000E+00 0.  1.
         14    1    1    0    0    0  0.37698628798E-02  0.50833225622E-03  0.20977450498E-03  0.38097602494E-02  0.00000000000E+00 0.  1.
     999901    1    1    0    0    0 -0.17328583463E-01  0.80476600882E-02  0.57144043755E-02  0.90022091681E+00  0.90000000000E+00 0.  1.
     999903    1    1    0    0    0  0.97449439320E-02 -0.12033209198E-01 -0.74766092975E-02  0.26375400328E-01  0.20000000000E-01 0.  0.
</event>
<event>
 7    1  0.4717691E-066  0.9118800E+02  0.7957747E-01            NaN
     999900   -1    0    0    0    0  0.00000000000E+00  0.00000000000E+00  0.99999998245E-14  0.93827000000E+00  0.93827000000E+00 0. -1.
        -11    1    1    0    0    0  0.17705326717E-02  0.97613698148E-03 -0.28351413565E-02  0.35194853117E-02  0.51100000000E-03 0. -1.
        -14    1    1    0    0    0  0.28899750399E-03  0.11685759383E-02  0.25489487372E-02  0.28189056291E-02  0.00000000000E+00 0. -1.
         12    1    1    0    0    0  0.13232945416E-02 -0.99158060142E-03 -0.23783685466E-02  0.28967183978E-02  0.00000000000E+00 0.  1.
         14    1    1    0    0    0 -0.41595466102E-02  0.20344033658E-02 -0.20500629227E-02  0.50639296050E-02  0.00000000000E+00 0.  1.
     999901    1    1    0    0    0 -0.86678472330E-03 -0.69610685322E-02 -0.77260191131E-02  0.90006049750E+00  0.90000000000E+00 0.  1.
     999903    1    1    0    0    0  0.16435066162E-02  0.37735328481E-02  0.12440643202E-01  0.23910463555E-01  0.20000000000E-01 0.  0.
</event>
<event>
 7    1  0.4717691E-066  0.9118800E+02  0.7957747E-01            NaN
     999900   -1    0    0    0    0  0.00000000000E+00  0.00000000000E+00  0.99999998245E-14  0.93827000000E+00  0.93827000000E+00 0.  1.
        -11    1    1    0    0    0 -0.20300131061E-02 -0.29812276749E-02  0.14145858872E-02  0.39077929696E-02  0.51100000000E-03 0. -1.
        -14    1    1    0    0    0  0.52463748050E-02  0.14735181602E-02 -0.31990605440E-02  0.63189945978E-02  0.00000000000E+00 0. -1.
         12    1    1    0    0    0  0.65831619553E-03  0.17317579130E-03  0.12842567190E-02  0.14535079595E-02  0.00000000000E+00 0.  1.
         14    1    1    0    0    0  0.95366841533E-03  0.31453777050E-02  0.22681361908E-03  0.32945908352E-02  0.00000000000E+00 0.  1.
     999901    1    1    0    0    0  0.41450887120E-02 -0.31315331465E-02 -0.73617982839E-02  0.90004510128E+00  0.90000000000E+00 0. -1.
     999903    1    1    0    0    0 -0.89734350218E-02  0.13206891648E-02  0.76352026027E-02  0.23250012360E-01  0.20000000000E-01 0.  0.
</event>
<event>
 7    1  0.4717691E-066  0.9118800E+02  0.7957747E-01            NaN
     999900   -1    0    0    0    0  0.00000000000E+00  0.00000000000E+00  0.99999998245E-14  0.93827000000E+00  0.93827000000E+00 0.  1.
        -11    1    1    0    0    0 -0.34565525503E-02  0.15552078375E-02 -0.61032304281E-04  0.38250846910E-02  0.51100000000E-03 0. -1.
        -14    1    1    0    0    0  0.26637063913E-02 -0.15008065591E-02 -0.15993634291E-02  0.34504659751E-02  0.00000000000E+00 0. -1.
         12    1    1    0    0    0  0.34627315414E-03 -0.29792760442E-02  0.28287250129E-02  0.41228237949E-02  0.00000000000E+00 0.  1.
         14    1    1    0    0    0  0.17278520443E-04  0.35262285045E-02 -0.46502429426E-02  0.58360385056E-02  0.00000000000E+00 0.  1.
     999901    1    1    0    0    0 -0.32674676790E-02  0.46235855400E-02  0.27004167089E-02  0.90002185870E+00  0.90000000000E+00 0. -1.
     999903    1    1    0    0    0  0.36967621635E-02 -0.52249392787E-02  0.78149695419E-03  0.21013728333E-01  0.20000000000E-01 0.  0.
</event>
<event>
 7    1  0.4717691E-066  0.9118800E+02  0.7957747E-01            NaN
     999900   -1    0    0    0    0  0.00000000000E+00  0.00000000000E+00  0.99999998245E-14  0.93827000000E+00  0.93827000000E+00 0. -1.
        -11    1    1    0    0    0 -0.60395717079E-03  0.40837277952E-02 -0.22838916783E-03  0.41659188160E-02  0.51100000000E-03 0. -1.
        -14    1    1    0    0    0 -0.48851709567E-02 -0.21054984334E-02 -0.35753080455E-03  0.53315895571E-02  0.00000000000E+00 0. -1.
         12    1    1    0    0    0  0.24776973474E-03 -0.16731235179E-02  0.29262720453E-02  0.33799112755E-02  0.00000000000E+00 0.  1.
         14    1    1    0    0    0  0.15114239858E-02  0.11806275621E-02 -0.10877205988E-02  0.22048628089E-02  0.00000000000E+00 0.  1.
     999901    1    1    0    0    0  0.56758271397E-02 -0.33923778419E-02  0.99969747918E-02  0.90007980910E+00  0.90000000000E+00 0. -1.
     999903    1    1    0    0    0 -0.19458927327E-02  0.19066444359E-02 -0.11249606266E-01  0.23107908444E-01  0.20000000000E-01 0.  0.
</event>
<event>
 7    1  0.4717691E-066  0.9118800E+02  0.7957747E-01            NaN
     999900   -1    0    0    0    0  0.00000000000E+00  0.00000000000E+00  0.99999998245E-14  0.93827000000E+00  0.93827000000E+00 0.  1.
        -11    1    1    0    0    0 -0.15989661249E-02  0.83711219934E-03  0.13712589280E-02  0.23235579508E-02  0.51100000000E-03 0. -1.
        -14    1    1    0    0    0  0.16352730909E-03 -0.18841027785E-02  0.15501189486E-02  0.24452920512E-02  0.00000000000E+00 0. -1.
         12    1    1    0    0    0 -0.75363960202E-03 -0.14839318255E-02  0.15147269358E-03  0.16712182052E-02  0.00000000000E+00 0.  1.
         14    1    1    0    0    0  0.63634662321E-04  0.51330994333E-02 -0.29542820036E-02  0.59228828555E-02  0.00000000000E+00 0.  1.
     999901    1    1    0    0    0  0.65008923400E-02  0.71348747829E-02 -0.12372202873E-01  0.90013678930E+00  0.90000000000E+00 0. -1.
     999903    1    1    0    0    0 -0.43754485845E-02 -0.97370518116E-02  0.12253634306E-01  0.25770259642E-01  0.20000000000E-01 0.  0.
</event>
<event>
 7    1  0.4717691E-066  0.9118800E+02  0.7957747E-01            NaN
     999900   -1    0    0    0    0  0.00000000000E+00  0.00000000000E+00  0.99999998245E-14  0.93827000000E+00  0.93827000000E+00 0. -1.
        -11    1    1    0    0    0  0.93524954446E-03  0.84591888454E-03  0.78709162416E-03  0.15719111598E-02  0.51100000000E-03 0. -1.
        -14    1    1    0    0    0  0.63596908763E-03 -0.12098059691E-02 -0.23018286484E-02  0.26770323662E-02  0.00000000000E+00 0. -1.
         12    1    1    0    0    0 -0.16471363993E-02  0.93447362370E-03  0.34680884661E-02  0.39514474411E-02  0.00000000000E+00 0.  1.
         14    1    1    0    0    0 -0.46539502055E-03 -0.53560672105E-02  0.24556509684E-03  0.53818538353E-02  0.00000000000E+00 0.  1.
     999901    1    1    0    0    0 -0.11331274555E-01  0.11277338215E-01 -0.64710858633E-02  0.90016523544E+00  0.90000000000E+00 0.  1.
     999903    1    1    0    0    0  0.11872587343E-01 -0.64918575439E-02  0.42721693246E-02  0.24522519759E-01  0.20000000000E-01 0.  0.
</event>
<event>
 7    1  0.4717691E-066  0.9118800E+02  0.7957747E-01            NaN
     999900   -1    0    0    0    0  0.00000000000E+00  0.00000000000E+00  0.99999998245E-14  0.93827000000E+00  0.93827000000E+00 0. -1.
        -11    1    1    0    0    0  0.95685361211E-03  0.20267608957E-02 -0.14644647002E-02  0.27256387181E-02  0.51100000000E-03 0. -1.
        -14    1    1    0    0    0  0.11875959823E-02 -0.34387919617E-02  0.14073775111E-02  0.39008186104E-02  0.00000000000E+00 0. -1.
         12    1    1    0    0    0  0.29753977030E-02  0.35819853886E-03 -0.54490773630E-04  0.29973766745E-02  0.00000000000E+00 0.  1.
         14    1    1    0    0    0 -0.41951957857E-02 -0.42978136391E-03 -0.18584659437E-02  0.46085003379E-02  0.00000000000E+00 0.  1.
     999901    1    1    0    0    0 -0.27830863423E-02  0.11750518419E-01  0.98736255437E-02  0.90013516137E+00  0.90000000000E+00 0. -1.
     999903    1    1    0    0    0  0.18584348307E-02 -0.10266904528E-01 -0.79035816372E-02  0.23902504289E-01  0.20000000000E-01 0.  0.
</event>
<event>
 7    1  0.4717691E-066  0.9118800E+02  0.7957747E-01            NaN
     999900   -1    0    0    0    0  0.00000000000E+00  0.00000000000E+00  0.99999998245E-14  0.93827000000E+00  0.93827000000E+00 0. -1.
        -11    1    1    0    0    0  0.19808319604E-02 -0.13367146239E-02  0.12646152941E-02  0.27515221393E-02  0.51100000000E-03 0. -1.
        -14    1    1    0    0    0  0.59248155292E-03 -0.61748828317E-03 -0.99119521653E-03  0.13095014806E-02  0.00000000000E+00 0. -1.
         12    1    1    0    0    0 -0.69358051594E-02  0.71644283679E-03  0.31056549069E-02  0.76330712003E-02  0.00000000000E+00 0.  1.
         14    1    1    0    0    0  0.20776056949E-02  0.12159911628E-02  0.14023299729E-02  0.27859664902E-02  0.00000000000E+00 0.  1.
     999901    1    1    0    0    0 -0.50954577978E-02  0.44740695608E-02  0.46986369915E-02  0.90003780930E+00  0.90000000000E+00 0. -1.
     999903    1    1    0    0    0  0.73803437489E-02 -0.44523006534E-02 -0.94800419488E-02  0.23752129385E-01  0.20000000000E-01 0.  0.
</event>
<event>
 7    1  0.4717691E-066  0.9118800E+02  0.7957747E-01            NaN
     999900   -1    0    0    0    0  0.00000000000E+00  0.00000000000E+00  0.99999998245E-14  0.93827000000E+00  0.93827000000E+00 0.  1.
        -11    1    1    0    0    0 -0.44282812730E-03 -0.20293039438E-02 -0.25161552377E-02  0.33024732288E-02  0.51100000000E-03 0. -1.
        -14    1    1    0    0    0 -0.16092879956E-02 -0.15310575766E-02  0.45426553698E-02  0.50566454260E-02  0.00000000000E+00 0. -1.
         12    1    1    0    0    0  0.68404463218E-03  0.69915263530E-03 -0.34679612838E-04  0.97874110050E-03  0.00000000000E+00 0.  1.
         14    1    1    0    0    0 -0.28671202997E-02 -0.19691637762E-02  0.65874834637E-02  0.74493572324E-02  0.00000000000E+00 0.  1.
     999901    1    1    0    0    0  0.11407001760E-01  0.36343200244E-02 -0.10235262390E-01  0.90013781643E+00  0.90000000000E+00 0. -1.
     999903    1    1    0    0    0 -0.71718099699E-02  0.11960526370E-02  0.16559584069E-02  0.21344966582E-01  0.20000000000E-01 0.  0.
</event>
<event>
 7    1  0.4717691E-066  0.9118800E+02  0.7957747E-01            NaN
     999900   -1    0    0    0    0  0.00000000000E+00  0.00000000000E+00  0.99999998245E-14  0.93827000000E+00  0.93827000000E+00 0.  1.
        -11    1    1    0    0    0  0.43626838548E-02  0.11289783126E-02 -0.97337532617E-03  0.46385539744E-02  0.51100000000E-03 0. -1.
        -14    1    1    0    0    0  0.52242061236E-03 -0.48302815238E-03 -0.49304984904E-03  0.86564290897E-03  0.00000000000E+00 0. -1.
         12    1    1    0    0    0 -0.63664441963E-03  0.89478382264E-03  0.15407490352E-02  0.18920522709E-02  0.00000000000E+00 0.  1.
         14    1    1    0    0    0 -0.17743418388E-02 -0.17652800007E-02 -0.11557711801E-02  0.27568658768E-02  0.00000000000E+00 0.  1.
     999901    1    1    0    0    0 -0.19605110600E-01 -0.79112914109E-02  0.51051661882E-02  0.90026274588E+00  0.90000000000E+00 0.  1.
     999903    1    1    0    0    0  0.17130992391E-01  0.81358374288E-02 -0.40237188681E-02  0.27854139091E-01  0.20000000000E-01 0.  0.
</event>
<event>
 7    1  0.4717691E-066  0.9118800E+02  0.7957747E-01            NaN
     999900   -1    0    0    0    0  0.00000000000E+00  0.00000000000E+00  0.99999998245E-14  0.93827000000E+00  0.93827000000E+00 0. -1.
        -11    1    1    0    0    0  0.21969493346E-02  0.17859393433E-02  0.61662952598E-02  0.68044458957E-02  0.51100000000E-03 0. -1.
        -14    1    1    0    0    0 -0.47511469680E-02 -0.31895477545E-04 -0.50157499175E-02  0.69088466525E-02  0.00000000000E+00 0. -1.
         12    1    1    0    0    0  0.50859744354E-03 -0.11814206982E-02  0.10638553096E-02  0.16691957182E-02  0.00000000000E+00 0.  1.
         14    1    1    0    0    0 -0.56058846897E-03  0.37803038380E-03 -0.72612923862E-03  0.99218449584E-03  0.00000000000E+00 0.  1.
     999901    1    1    0    0    0 -0.12748271537E-02  0.36766764313E-02 -0.78951373341E-02  0.90004304137E+00  0.90000000000E+00 0.  1.
     999903    1    1    0    0    0  0.38810158125E-02 -0.46273299826E-02  0.64068659208E-02  0.21852285863E-01  0.20000000000E-01 0.  0.
</event>
<event>
 7    1  0.4717691E-066  0.9118800E+02  0.7957747E-01            NaN
     999900   -1    0    0    0    0  0.00000000000E+00  0.00000000000E+00  0.99999998245E-14  0.93827000000E+00  0.93827000000E+00 0.  1.
        -11    1    1    0    0    0  0.36213248912E-02  0.26833485054E-02  0.29081988722E-02  0.53882367105E-02  0.51100000000E-03 0. -1.
        -14    1    1    0    0    0 -0.61964954007E-02  0.23161432478E-02  0.31767431190E-02  0.73384447697E-02  0.00000000000E+00 0. -1.
         12    1    1    0    0    0 -0.19751545949E-02  0.32398506973E-03  0.87508580135E-03  0.21844855593E-02  0.00000000000E+00 0.  1.
         14    1    1    0    0    0  0.64580122717E-03  0.77750718183E-03 -0.28442513401E-03  0.10499877617E-02  0.00000000000E+00 0.  1.
     999901    1    1    0    0    0  0.56174556185E-02 -0.90679921941E-02 -0.15464148790E-01  0.90019604764E+00  0.90000000000E+00 0. -1.
     999903    1    1    0    0    0 -0.17129317413E-02  0.29670081893E-02  0.87885461311E-02  0.22112797558E-01  0.20000000000E-01 0.  0.
</event>
<event>
 7    1  0.4717691E-066  0.9118800E+02  0.7957747E-01            NaN
     999900   -1    0    0    0    0  0.00000000000E+00  0.00000000000E+00  0.99999998245E-14  0.93827000000E+00  0.93827000000E+00 0. -1.
        -11    1    1    0    0    0 -0.51498704383E-03 -0.32075772298E-02  0.53976569401E-02  0.63205683908E-02  0.51100000000E-03 0. -1.
        -14    1    1    0    0    0 -0.39093346711E-02 -0.13591317593E-02 -0.26699312310E-02  0.49253090754E-02  0.00000000000E+00 0. -1.
         12    1    1    0    0    0 -0.10152173053E-02 -0.27275102542E-03  0.41011914564E-03  0.11283869073E-02  0.00000000000E+00 0.  1.
         14    1    1    0    0    0 -0.19604946932E-02  0.32231368341E-02  0.10417900315E-02  0.39137548419E-02  0.00000000000E+00 0.  1.
     999901    1    1    0    0    0  0.12725346135E-01  0.85939137856E-02 -0.41594587383E-02  0.90014059507E+00  0.90000000000E+00 0. -1.
     999903    1    1    0    0    0 -0.53253124214E-02 -0.69775906052E-02 -0.20176147936E-04  0.21841385719E-01  0.20000000000E-01 0.  0.
</event>
<event>
 7    1  0.4717691E-066  0.9118800E+02  0.7957747E-01            NaN
     999900   -1    0    0    0    0  0.00000000000E+00  0.00000000000E+00  0.99999998245E-14  0.93827000000E+00  0.93827000000E+00 0.  1.
        -11    1    1    0    0    0 -0.17453851386E-03  0.23840606816E-02  0.23780996857E-02  0.34103794718E-02  0.51100000000E-03 0. -1.
        -14    1    1    0    0    0  0.96586165926E-03  0.16011087202E-02  0.99448916215E-04  0.18725191496E-02  0.00000000000E+00 0. -1.
         12    1    1    0    0    0  0.21723748336E-02 -0.14497123696E-02 -0.46478250667E-02  0.53313371890E-02  0.00000000000E+00 0.  1.
         14    1    1    0    0    0 -0.35606417126E-02  0.21078914379E-02  0.17165616356E-02  0.44797276221E-02  0.00000000000E+00 0.  1.
     999901    1    1    0    0    0  0.11734108028E-01 -0.40662412730E-02  0.33698768990E-02  0.90009198401E+00  0.90000000000E+00 0. -1.
     999903    1    1    0    0    0 -0.11137164295E-01 -0.57710719711E-03 -0.29161620697E-02  0.23084052557E-01  0.20000000000E-01 0.  0.
</event>
<event>
 7    1  0.4717691E-066  0.9118800E+02  0.7957747E-01            NaN
     999900   -1    0    0    0    0  0.00000000000E+00  0.00000000000E+00  0.99999998245E-14  0.93827000000E+00  0.93827000000E+00 0.  1.
        -11    1    1    0    0    0 -0.14491903876E-02 -0.68314119261E-03  0.37747876187E-03  0.17234981533E-02  0.51100000000E-03 0. -1.
        -14    1    1    0    0    0 -0.21494045546E-02  0.29018024870E-02  0.56185630508E-03  0.36545971215E-02  0.00000000000E+00 0. -1.
         12    1    1    0    0    0  0.39741376282E-02  0.72251078436E-03 -0.33933915380E-02  0.52754997727E-02  0.00000000000E+00 0.  1.
         14    1    1    0    0    0 -0.20356546417E-02  0.14378125796E-02  0.37273735507E-03  0.25199460253E-02  0.00000000000E+00 0.  1.
     999901    1    1    0    0    0 -0.93700211180E-04 -0.18079435937E-01 -0.33647543940E-02  0.90018786726E+00  0.90000000000E+00 0.  1.
     999903    1    1    0    0    0  0.17538121669E-02  0.13700451278E-01  0.54460735101E-02  0.24908591671E-01  0.20000000000E-01 0.  0.
</event>
<event>
 7    1  0.4717691E-066  0.9118800E+02  0.7957747E-01            NaN
     999900   -1    0    0    0    0  0.00000000000E+00  0.00000000000E+00  0.99999998245E-14  0.93827000000E+00  0.93827000000E+00 0.  1.
        -11    1    1    0    0    0 -0.32910177601E-03  0.84561320011E-03  0.79126097676E-03  0.13078931900E-02  0.51100000000E-03 0. -1.
        -14    1    1    0    0    0 -0.58619803855E-03 -0.21761050689E-02  0.20408377929E-02  0.30404079181E-02  0.00000000000E+00 0. -1.
         12    1    1    0    0    0 -0.11586789081E-02  0.24902611539E-03 -0.71498040982E-03  0.13841054167E-02  0.00000000000E+00 0.  1.
         14    1    1    0    0    0  0.60791102671E-02 -0.27839935053E-02 -0.17610798800E-03  0.66885884535E-02  0.00000000000E+00 0.  1.
     999901    1    1    0    0    0  0.10675217033E-01 -0.68488255872E-03 -0.71567481720E-02  0.90009202217E+00  0.90000000000E+00 0. -1.
     999903    1    1    0    0    0 -0.14680348577E-01  0.45503418175E-02  0.52157378001E-02  0.25756982855E-01  0.20000000000E-01 0.  0.
</event>
<event>
 7    1  0.4730056E-066  0.9118800E+02  0.7957747E-01            NaN
     999900   -1    0    0    0    0  0.00000000000E+00  0.00000000000E+00  0.99999998245E-14  0.93827000000E+00  0.93827000000E+00 0.  1.
        -11    1    1    0    0    0 -0.41983799051E-02 -0.29538240176E-03  0.12624624159E-02  0.44236384281E-02  0.51100000000E-03 0. -1.
        -14    1    1    0    0    0  0.18442345072E-02  0.20716051096E-02  0.48363066760E-02  0.55751781059E-02  0.00000000000E+00 0. -1.
         12    1    1    0    0    0  0.19585160570E-02  0.17870057518E-02  0.22156637256E-02  0.34551903634E-02  0.00000000000E+00 0.  1.
         14    1    1    0    0    0  0.38162091784E-03 -0.57451736284E-03 -0.21718738222E-02  0.22787585709E-02  0.00000000000E+00 0.  1.
     999901    1    1    0    0    0 -0.70744607086E-02  0.30940871022E-02 -0.10214753579E-01  0.90009108570E+00  0.90000000000E+00 0. -1.
     999903    1    1    0    0    0  0.70884691316E-02 -0.60827981990E-02  0.40721945838E-02  0.22446148830E-01  0.20000000000E-01 0.  0.
</event>
<event>
 7    1  0.4717691E-066  0.9118800E+02  0.7957747E-01            NaN
     999900   -1    0    0    0    0  0.00000000000E+00  0.00000000000E+00  0.99999998245E-14  0.93827000000E+00  0.93827000000E+00 0.  1.
        -11    1    1    0    0    0  0.41889898735E-02 -0.98258531831E-03  0.20548696911E-02  0.47954896012E-02  0.51100000000E-03 0. -1.
        -14    1    1    0    0    0  0.48020588348E-03 -0.84722072214E-04 -0.17502138718E-02  0.18168720695E-02  0.00000000000E+00 0. -1.
         12    1    1    0    0    0  0.29897814281E-03  0.23493288188E-02 -0.19981669501E-02  0.30986133978E-02  0.00000000000E+00 0.  1.
         14    1    1    0    0    0 -0.20284042563E-02  0.43978459089E-03  0.52125915125E-04  0.20761867508E-02  0.00000000000E+00 0.  1.
     999901    1    1    0    0    0  0.10118050626E-01  0.58603576839E-02  0.97970419046E-02  0.90012926892E+00  0.90000000000E+00 0. -1.
     999903    1    1    0    0    0 -0.13057820270E-01 -0.75821637031E-02 -0.81556566890E-02  0.26353569258E-01  0.20000000000E-01 0.  0.
</event>
<event>
 7    1  0.4717691E-066  0.9118800E+02  0.7957747E-01            NaN
     999900   -1    0    0    0    0  0.00000000000E+00  0.00000000000E+00  0.99999998245E-14  0.93827000000E+00  0.93827000000E+00 0.  1.
        -11    1    1    0    0    0  0.69662077007E-02  0.30827656388E-02 -0.17878447127E-02  0.78414924237E-02  0.51100000000E-03 0. -1.
        -14    1    1    0    0    0 -0.17183628177E-02  0.99637550226E-03  0.12068251212E-02  0.23242120789E-02  0.00000000000E+00 0. -1.
         12    1    1    0    0    0 -0.11563231555E-02 -0.13092224168E-02 -0.83573874114E-03  0.19363898936E-02  0.00000000000E+00 0.  1.
         14    1    1    0    0    0  0.15744145638E-02  0.25321049002E-02 -0.17539952786E-02  0.34593114751E-02  0.00000000000E+00 0.  1.
     999901    1    1    0    0    0 -0.39434281070E-02  0.91562393111E-03  0.11554030161E-01  0.90008326537E+00  0.90000000000E+00 0.  1.
     999903    1    1    0    0    0 -0.17225081843E-02 -0.62176475556E-02 -0.83832765498E-02  0.22625328755E-01  0.20000000000E-01 0.  0.
</event>
<event>
 7    1  0.4717691E-066  0.9118800E+02  0.7957747E-01            NaN
     999900   -1    0    0    0    0  0.00000000000E+00  0.00000000000E+00  0.99999998245E-14  0.93827000000E+00  0.93827000000E+00 0.  1.
        -11    1    1    0    0    0  0.33222819646E-03 -0.18988684621E-02  0.53439978261E-02  0.57039907764E-02  0.51100000000E-03 0. -1.
        -14    1    1    0    0    0 -0.58818063382E-03  0.53519971731E-03 -0.16939032635E-03  0.81307335344E-03  0.00000000000E+00 0. -1.
         12    1    1    0    0    0 -0.48437501949E-02  0.15105771749E-02  0.11381470102E-02  0.51999171117E-02  0.00000000000E+00 0.  1.
         14    1    1    0    0    0  0.49344762200E-03  0.94927501806E-03  0.16194070392E-03  0.10820528671E-02  0.00000000000E+00 0.  1.
     999901    1    1    0    0    0  0.45436333967E-02  0.13377654118E-01 -0.11919103986E-01  0.90018979736E+00  0.90000000000E+00 0. -1.
     999903    1    1    0    0    0  0.62621613547E-04 -0.14473837566E-01  0.54444087719E-02  0.25281168530E-01  0.20000000000E-01 0.  0.
</event>
<event>
 7    1  0.4717691E-066  0.9118800E+02  0.7957747E-01            NaN
     999900   -1    0    0    0    0  0.00000000000E+00  0.00000000000E+00  0.99999998245E-14  0.93827000000E+00  0.93827000000E+00 0.  1.
        -11    1    1    0    0    0  0.52149921063E-03  0.38877262124E-02  0.15583198178E-03  0.39587600503E-02  0.51100000000E-03 0. -1.
        -14    1    1    0    0    0 -0.88836735383E-04 -0.11801700056E-02 -0.13961779131E-02  0.18303021534E-02  0.00000000000E+00 0. -1.
         12    1    1    0    0    0  0.29012326200E-02  0.12396223926E-02  0.15235122626E-02  0.35035559087E-02  0.00000000000E+00 0.  1.
         14    1    1    0    0    0 -0.70002042589E-03 -0.74754427125E-03 -0.12274430251E-02  0.15985829394E-02  0.00000000000E+00 0.  1.
     999901    1    1    0    0    0  0.74040043397E-02 -0.10531163419E-01  0.14497788970E-01  0.90020881498E+00  0.90000000000E+00 0.  1.
     999903    1    1    0    0    0 -0.10037879009E-01  0.73315290905E-02 -0.13553512276E-01  0.27169983968E-01  0.20000000000E-01 0.  0.
</event>
<event>
 7    1  0.4717691E-066  0.9118800E+02  0.7957747E-01            NaN
     999900   -1    0    0    0    0  0.00000000000E+00  0.00000000000E+00  0.99999998245E-14  0.93827000000E+00  0.93827000000E+00 0.  1.
        -11    1    1    0    0    0 -0.93281316542E-03 -0.38169684429E-03 -0.64539790329E-03  0.13013425130E-02  0.51100000000E-03 0. -1.
        -14    1    1    0    0    0  0.74897456463E-03  0.38969248512E-03  0.14918971541E-02  0.17142287624E-02  0.00000000000E+00 0. -1.
         12    1    1    0    0    0 -0.34551836810E-02 -0.40984648513E-02  0.19258929425E-02  0.56960312528E-02  0.00000000000E+00 0.  1.
         14    1    1    0    0    0  0.55819672406E-04 -0.10920429911E-02 -0.79922393818E-03  0.13544122835E-02  0.00000000000E+00 0.  1.
     999901    1    1    0    0    0 -0.12538092546E-01 -0.57022202778E-02  0.13584529500E-02  0.90010641842E+00  0.90000000000E+00 0.  1.
     999903    1    1    0    0    0  0.16121295155E-01  0.10884732479E-01 -0.33316212050E-02  0.28097566772E-01  0.20000000000E-01 0.  0.
</event>
<event>
 7    1  0.4717691E-066  0.9118800E+02  0.7957747E-01            NaN
     999900   -1    0    0    0    0  0.00000000000E+00  0.00000000000E+00  0.99999998245E-14  0.93827000000E+00  0.93827000000E+00 0.  1.
        -11    1    1    0    0    0 -0.33006571750E-02 -0.16982961167E-02  0.35504093327E-02  0.51618867594E-02  0.51100000000E-03 0. -1.
        -14    1    1    0    0    0 -0.20486886108E-02 -0.75629568306E-04 -0.35358986856E-02  0.40872269781E-02  0.00000000000E+00 0. -1.
         12    1    1    0    0    0 -0.69369101634E-03 -0.28357658930E-02  0.11064727028E-02  0.31220277494E-02  0.00000000000E+00 0.  1.
         14    1    1    0    0    0 -0.10099242959E-02  0.15133657856E-03  0.61471433425E-03  0.11919410875E-02  0.00000000000E+00 0.  1.
     999901    1    1    0    0    0  0.19221083187E-02  0.72397712361E-03 -0.14551569857E-01  0.90011997357E+00  0.90000000000E+00 0. -1.
     999903    1    1    0    0    0  0.51308527794E-02  0.37343778758E-02  0.12815872173E-01  0.24586943851E-01  0.20000000000E-01 0.  0.
</event>
<event>
 7    1  0.4717691E-066  0.9118800E+02  0.7957747E-01            NaN
     999900   -1    0    0    0    0  0.00000000000E+00  0.00000000000E+00  0.99999998245E-14  0.93827000000E+00  0.93827000000E+00 0. -1.
        -11    1    1    0    0    0  0.41700604869E-03  0.94636689314E-03  0.15005756992E-02  0.18927104295E-02  0.51100000000E-03 0. -1.
        -14    1    1    0    0    0  0.48208428161E-02  0.12886058370E-02  0.60657601849E-03  0.50268245371E-02  0.00000000000E+00 0. -1.
         12    1    1    0    0    0 -0.61953178294E-03 -0.19001598583E-02 -0.22580930125E-02  0.30155283402E-02  0.00000000000E+00 0.  1.
         14    1    1    0    0    0  0.38594241962E-02  0.30317611637E-02 -0.31755467641E-02  0.58455819326E-02  0.00000000000E+00 0.  1.
     999901    1    1    0    0    0 -0.13701022046E-01  0.51105761553E-02  0.42479361446E-02  0.90012881353E+00  0.90000000000E+00 0. -1.
     999903    1    1    0    0    0  0.52232807682E-02 -0.84771501908E-02 -0.92144808559E-03  0.22360541226E-01  0.20000000000E-01 0.  0.
</event>
<event>
 7    1  0.4717691E-066  0.9118800E+02  0.7957747E-01            NaN
     999900   -1    0    0    0    0  0.00000000000E+00  0.00000000000E+00  0.99999998245E-14  0.93827000000E+00  0.93827000000E+00 0.  1.
        -11    1    1    0    0    0  0.35370827481E-03 -0.10320336531E-02 -0.41032437577E-03  0.12726704594E-02  0.51100000000E-03 0. -1.
        -14    1    1    0    0    0 -0.98086962658E-03  0.82964751429E-03 -0.56154924920E-03  0.14020548426E-02  0.00000000000E+00 0. -1.
         12    1    1    0    0    0 -0.17180282908E-02  0.63221744912E-02 -0.97763199370E-03  0.66239924381E-02  0.00000000000E+00 0.  1.
         14    1    1    0    0    0  0.18035147669E-03 -0.19857697588E-02 -0.68649641571E-03  0.21088113996E-02  0.00000000000E+00 0.  1.
     999901    1    1    0    0    0  0.11582829874E-01  0.68782619421E-02 -0.75868715265E-02  0.90013278635E+00  0.90000000000E+00 0. -1.
     999903    1    1    0    0    0 -0.94179917077E-02 -0.11012280536E-01  0.10222873561E-01  0.26729684514E-01  0.20000000000E-01 0.  0.
</event>
<event>
 7    1  0.4717691E-066  0.9118800E+02  0.7957747E-01            NaN
     999900   -1    0    0    0    0  0.00000000000E+00  0.00000000000E+00  0.99999998245E-14  0.93827000000E+00  0.93827000000E+00 0. -1.
        -11    1    1    0    0    0  0.12620610325E-02  0.38211701677E-03 -0.44211974025E-03  0.14816890123E-02  0.51100000000E-03 0. -1.
        -14    1    1    0    0    0 -0.70607858942E-02 -0.50323831059E-02 -0.17057588311E-02  0.88368088334E-02  0.00000000000E+00 0. -1.
         12    1    1    0    0    0 -0.91952149870E-03 -0.10965188366E-02 -0.19648855545E-02  0.24307711920E-02  0.00000000000E+00 0.  1.
         14    1    1    0    0    0  0.34578329692E-03  0.49592447074E-02  0.12082816120E-02  0.51160158923E-02  0.00000000000E+00 0.  1.
     999901    1    1    0    0    0  0.38606223587E-02 -0.22784881966E-02  0.28284288253E-02  0.90001560871E+00  0.90000000000E+00 0. -1.
     999903    1    1    0    0    0  0.25118407047E-02  0.30660284150E-02  0.76053688514E-04  0.20389106359E-01  0.20000000000E-01 0.  0.
</event>
<event>
 7    1  0.4717691E-066  0.9118800E+02  0.7957747E-01            NaN
     999900   -1    0    0    0    0  0.00000000000E+00  0.00000000000E+00  0.99999998245E-14  0.93827000000E+00  0.93827000000E+00 0. -1.
        -11    1    1    0    0    0 -0.58917726369E-02  0.13882173911E-02 -0.12242308476E-02  0.61967729100E-02  0.51100000000E-03 0. -1.
        -14    1    1    0    0    0  0.43720323932E-03  0.46088329462E-03  0.83186220620E-03  0.10466875436E-02  0.00000000000E+00 0. -1.
         12    1    1    0    0    0 -0.28629278980E-02 -0.21221455581E-02  0.74144967155E-03  0.36400007602E-02  0.00000000000E+00 0.  1.
         14    1    1    0    0    0 -0.10858896681E-03 -0.31490221614E-03  0.49797097193E-02  0.49908379915E-02  0.00000000000E+00 0.  1.
     999901    1    1    0    0    0  0.58711970347E-03  0.54720176910E-02 -0.13966182258E-02  0.90001790995E+00  0.90000000000E+00 0. -1.
     999903    1    1    0    0    0  0.78389665589E-02 -0.48840706024E-02 -0.39321725236E-02  0.22377790845E-01  0.20000000000E-01 0.  0.
</event>
<event>
 7    1  0.4717691E-066  0.9118800E+02  0.7957747E-01            NaN
     999900   -1    0    0    0    0  0.00000000000E+00  0.00000000000E+00  0.99999998245E-14  0.93827000000E+00  0.93827000000E+00 0.  1.
        -11    1    1    0    0    0 -0.69152173329E-03 -0.31695205907E-02  0.13726993493E-02  0.35594223669E-02  0.51100000000E-03 0. -1.
        -14    1    1    0    0    0  0.13401912024E-02 -0.76576916591E-03  0.30100015220E-02  0.33826947892E-02  0.00000000000E+00 0. -1.
         12    1    1    0    0    0 -0.47747842908E-02  0.43774983729E-03 -0.49123971232E-03  0.48199073019E-02  0.00000000000E+00 0.  1.
         14    1    1    0    0    0 -0.10821585347E-02 -0.21665307255E-03 -0.25541815782E-02  0.27824178662E-02  0.00000000000E+00 0.  1.
     999901    1    1    0    0    0  0.13223007897E-01 -0.57230351855E-02 -0.33019236352E-02  0.90012138280E+00  0.90000000000E+00 0.  1.
     999903    1    1    0    0    0 -0.80147345405E-02  0.94372281773E-02  0.19646440544E-02  0.23604174878E-01  0.20000000000E-01 0.  0.
</event>
<event>
 7    1  0.4717691E-066  0.9118800E+02  0.7957747E-01            NaN
     999900   -1    0    0    0    0  0.00000000000E+00  0.00000000000E+00  0.99999998245E-14  0.93827000000E+00  0.93827000000E+00 0. -1.
        -11    1    1    0    0    0 -0.91627635942E-03 -0.21382426469E-02 -0.10565051527E-02  0.26055648373E-02  0.51100000000E-03 0. -1.
        -14    1    1    0    0    0 -0.12638817202E-02  0.16750367412E-02 -0.16559202111E-02  0.26730538401E-02  0.00000000000E+00 0. -1.
         12    1    1    0    0    0  0.16960944833E-02  0.18190818131E-02  0.82492128817E-03  0.26203607138E-02  0.00000000000E+00 0.  1.
         14    1    1    0    0    0 -0.39249335579E-02 -0.98240884455E-03  0.23911920577E-02  0.46997904240E-02  0.00000000000E+00 0.  1.
     999901    1    1    0    0    0  0.16448660387E-01 -0.24724704609E-02  0.94588241341E-02  0.90020338863E+00  0.90000000000E+00 0.  1.
     999903    1    1    0    0    0 -0.12039663233E-01  0.20990033980E-02 -0.99625121162E-02  0.25467841559E-01  0.20000000000E-01 0.  0.
</event>
<event>
 7    1  0.4717691E-066  0.9118800E+02  0.7957747E-01            NaN
     999900   -1    0    0    0    0  0.00000000000E+00  0.00000000000E+00  0.99999998245E-14  0.93827000000E+00  0.93827000000E+00 0. -1.
        -11    1    1    0    0    0 -0.24730742193E-02  0.86065854650E-03 -0.23164233153E-02  0.35332374961E-02  0.51100000000E-03 0. -1.
        -14    1    1    0    0    0  0.38793513854E-03 -0.18724155650E-02  0.30297364917E-02  0.35826996705E-02  0.00000000000E+00 0. -1.
         12    1    1    0    0    0  0.60632771860E-03 -0.18230479774E-02 -0.20856298199E-02  0.28356637629E-02  0.00000000000E+00 0.  1.
         14    1    1    0    0    0 -0.49322717499E-02  0.36423832665E-04 -0.80829458282E-05  0.49324128623E-02  0.00000000000E+00 0.  1.
     999901    1    1    0    0    0 -0.84568215029E-03 -0.63192623529E-02 -0.17778501301E-02  0.90002433801E+00  0.90000000000E+00 0. -1.
     999903    1    1    0    0    0  0.72567652623E-02  0.91176435161E-02  0.31582497194E-02  0.23361648201E-01  0.20000000000E-01 0.  0.
</event>
<event>
 7    1  0.4717691E-066  0.9118800E+02  0.7957747E-01            NaN
     999900   -1    0    0    0    0  0.00000000000E+00  0.00000000000E+00  0.99999998245E-14  0.93827000000E+00  0.93827000000E+00 0.  1.
        -11    1    1    0    0    0  0.54790223854E-03 -0.31588296503E-02  0.20054150036E-02  0.38159156121E-02  0.51100000000E-03 0. -1.
        -14    1    1    0    0    0 -0.43015502200E-03 -0.14631019139E-02  0.49278691591E-02  0.51584488951E-02  0.00000000000E+00 0. -1.
         12    1    1    0    0    0  0.53071167604E-03  0.16210484192E-02  0.51782933979E-03  0.17825824204E-02  0.00000000000E+00 0.  1.
         14    1    1    0    0    0 -0.10819197199E-02 -0.50212507962E-02 -0.79991989353E-03  0.51984018385E-02  0.00000000000E+00 0.  1.
     999901    1    1    0    0    0  0.62127300715E-03  0.16897938766E-01 -0.97687459894E-02  0.90021183880E+00  0.90000000000E+00 0. -1.
     999903    1    1    0    0    0 -0.18781217979E-03 -0.88758048252E-02  0.31175523804E-02  0.22102812435E-01  0.20000000000E-01 0.  0.
</event>
<event>
 7    1  0.4717691E-066  0.9118800E+02  0.7957747E-01            NaN
     999900   -1    0    0    0    0  0.00000000000E+00  0.00000000000E+00  0.99999998245E-14  0.93827000000E+00  0.93827000000E+00 0.  1.
        -11    1    1    0    0    0  0.16268641342E-04 -0.78522535407E-03 -0.26135834119E-02  0.27764694806E-02  0.51100000000E-03 0. -1.
        -14    1    1    0    0    0  0.61945771038E-03  0.37385824117E-02  0.23470870929E-02  0.44575266826E-02  0.00000000000E+00 0. -1.
         12    1    1    0    0    0 -0.12552888048E-02 -0.56546114016E-03  0.12497362728E-02  0.18593915768E-02  0.00000000000E+00 0.  1.
         14    1    1    0    0    0 -0.37317769299E-02  0.16985163582E-02  0.20287762197E-03  0.41051523971E-02  0.00000000000E+00 0.  1.
     999901    1    1    0    0    0  0.59129491562E-02 -0.15325577943E-02  0.13427917670E-01  0.90012089226E+00  0.90000000000E+00 0.  1.
     999903    1    1    0    0    0 -0.15616097732E-02 -0.25538544814E-02 -0.14614035246E-01  0.24950567608E-01  0.20000000000E-01 0.  0.
</event>
<event>
 7    1  0.4717691E-066  0.9118800E+02  0.7957747E-01            NaN
     999900   -1    0    0    0    0  0.00000000000E+00  0.00000000000E+00  0.99999998245E-14  0.93827000000E+00  0.93827000000E+00 0. -1.
        -11    1    1    0    0    0 -0.35509030336E-02 -0.12634791078E-03 -0.15711660088E-03  0.35931438567E-02  0.51100000000E-03 0. -1.
        -14    1    1    0    0    0  0.14561694486E-02  0.18286694968E-02 -0.81932352182E-03  0.24770451399E-02  0.00000000000E+00 0. -1.
         12    1    1    0    0    0 -0.16870341242E-02 -0.22169693558E-02 -0.90907287632E-03  0.29304352501E-02  0.00000000000E+00 0.  1.
         14    1    1    0    0    0  0.37865045877E-02  0.12339171096E-02  0.21355524440E-02  0.45189326912E-02  0.00000000000E+00 0.  1.
     999901    1    1    0    0    0  0.37358846019E-02  0.75908390845E-02 -0.11386169878E-01  0.90011178336E+00  0.90000000000E+00 0.  1.
     999903    1    1    0    0    0 -0.37406214804E-02 -0.83101084244E-02  0.11136130433E-01  0.24638659706E-01  0.20000000000E-01 0.  0.
</event>
<event>
 7    1  0.4717691E-066  0.9118800E+02  0.7957747E-01            NaN
     999900   -1    0    0    0    0  0.00000000000E+00  0.00000000000E+00  0.99999998245E-14  0.93827000000E+00  0.93827000000E+00 0.  1.
        -11    1    1    0    0    0 -0.21786654005E-02  0.22241238562E-02  0.39922696522E-03  0.31802221660E-02  0.51100000000E-03 0. -1.
        -14    1    1    0    0    0 -0.17214550099E-02  0.58857146402E-02 -0.94832185806E-03  0.62051880329E-02  0.00000000000E+00 0. -1.
         12    1    1    0    0    0 -0.43570972826E-03 -0.44964596990E-03 -0.79890312225E-03  0.10150224945E-02  0.00000000000E+00 0.  1.
         14    1    1    0    0    0  0.17154371076E-03  0.14441279002E-02 -0.49614819548E-05  0.14542892605E-02  0.00000000000E+00 0.  1.
     999901    1    1    0    0    0 -0.97203875330E-02 -0.30927946765E-02  0.93065636137E-02  0.90010591790E+00  0.90000000000E+00 0.  1.
     999903    1    1    0    0    0  0.13884673961E-01 -0.60115257502E-02 -0.79536041167E-02  0.26309360146E-01  0.20000000000E-01 0.  0.
</event>
<event>
 7    1  0.4717691E-066  0.9118800E+02  0.7957747E-01            NaN
     999900   -1    0    0    0    0  0.00000000000E+00  0.00000000000E+00  0.99999998245E-14  0.93827000000E+00  0.93827000000E+00 0.  1.
        -11    1    1    0    0    0  0.33905414485E-04 -0.81494720711E-03 -0.78758263714E-03  0.12436623086E-02  0.51100000000E-03 0. -1.
        -14    1    1    0    0    0  0.12864739271E-03 -0.19658191798E-02  0.30928174276E-02  0.36669489825E-02  0.00000000000E+00 0. -1.
         12    1    1    0    0    0  0.76532986890E-03  0.36418141767E-02 -0.28761174789E-02  0.47032533483E-02  0.00000000000E+00 0.  1.
         14    1    1    0    0    0  0.78683365267E-03  0.56868768395E-02  0.17341059471E-02  0.59972325968E-02  0.00000000000E+00 0.  1.
     999901    1    1    0    0    0  0.65094617174E-02 -0.42230827365E-02  0.50202900939E-02  0.90004744921E+00  0.90000000000E+00 0.  1.
     999903    1    1    0    0    0 -0.82241780462E-02 -0.23248418927E-02 -0.61835133526E-02  0.22611453552E-01  0.20000000000E-01 0.  0.
</event>
<event>
 7    1  0.4717691E-066  0.9118800E+02  0.7957747E-01            NaN
     999900   -1    0    0    0    0  0.00000000000E+00  0.00000000000E+00  0.99999998245E-14  0.93827000000E+00  0.93827000000E+00 0.  1.
        -11    1    1    0    0    0 -0.11306755996E-03  0.39377101335E-02 -0.11200552628E-02  0.41272254797E-02  0.51100000000E-03 0. -1.
        -14    1    1    0    0    0  0.65170591999E-04 -0.22245724126E-02  0.58970108736E-02  0.63029918982E-02  0.00000000000E+00 0. -1.
         12    1    1    0    0    0  0.19302598099E-02 -0.41220696198E-02  0.99510321432E-03  0.46591406173E-02  0.00000000000E+00 0.  1.
         14    1    1    0    0    0  0.27479499714E-03  0.10990273107E-02  0.56469288840E-03  0.12658006867E-02  0.00000000000E+00 0.  1.
     999901    1    1    0    0    0 -0.20790447122E-02 -0.24047772461E-02 -0.14168431285E-01  0.90011713117E+00  0.90000000000E+00 0. -1.
     999903    1    1    0    0    0 -0.78113126912E-04  0.37146818342E-02  0.78316795719E-02  0.21797710148E-01  0.20000000000E-01 0.  0.
</event>
<event>
 7    1  0.4717691E-066  0.9118800E+02  0.7957747E-01            NaN
     999900   -1    0    0    0    0  0.00000000000E+00  0.00000000000E+00  0.99999998245E-14  0.93827000000E+00  0.93827000000E+00 0. -1.
        -11    1    1    0    0    0  0.20805468400E-02 -0.29874946646E-02 -0.31273931969E-02  0.48265421093E-02  0.51100000000E-03 0. -1.
        -14    1    1    0    0    0 -0.11669269855E-02  0.19733465382E-02  0.28281678805E-03  0.23099351690E-02  0.00000000000E+00 0. -1.
         12    1    1    0    0    0  0.52287690717E-03  0.22775469328E-03 -0.19092377033E-02  0.19926015829E-02  0.00000000000E+00 0.  1.
         14    1    1    0    0    0 -0.28774226156E-02  0.45237244596E-03  0.21026888952E-02  0.35924229051E-02  0.00000000000E+00 0.  1.
     999901    1    1    0    0    0  0.16585933444E-01 -0.30964242035E-02  0.43802568525E-02  0.90016879955E+00  0.90000000000E+00 0. -1.
     999903    1    1    0    0    0 -0.15145007591E-01  0.34304451907E-02 -0.17291316355E-02  0.25379698685E-01  0.20000000000E-01 0.  0.
</event>
<event>
 7    1  0.4717691E-066  0.9118800E+02  0.7957747E-01            NaN
     999900   -1    0    0    0    0  0.00000000000E+00  0.00000000000E+00  0.99999998245E-14  0.93827000000E+00  0.93827000000E+00 0. -1.
        -11    1    1    0    0    0  0.53204137792E-03  0.88408017297E-03  0.11430316453E-02  0.16224389425E-02  0.51100000000E-03 0. -1.
        -14    1    1    0    0    0  0.34763219833E-02  0.96081786081E-03 -0.15472301707E-02  0.39245263019E-02  0.00000000000E+00 0. -1.
         12    1    1    0    0    0 -0.56111596137E-02 -0.31172874961E-03 -0.67948298261E-02  0.88177094185E-02  0.00000000000E+00 0.  1.
         14    1    1    0    0    0 -0.60123350947E-03 -0.18495653279E-02  0.49581464189E-04  0.19454644578E-02  0.00000000000E+00 0.  1.
     999901    1    1    0    0    0  0.24134206542E-02  0.64399352781E-02  0.13408015798E-01  0.90012614241E+00  0.90000000000E+00 0. -1.
     999903    1    1    0    0    0 -0.20939089221E-03 -0.61235392344E-02 -0.62585689109E-02  0.21833718467E-01  0.20000000000E-01 0.  0.
</event>
<event>
 7    1  0.4717691E-066  0.9118800E+02  0.7957747E-01            NaN
     999900   -1    0    0    0    0  0.00000000000E+00  0.00000000000E+00  0.99999998245E-14  0.93827000000E+00  0.93827000000E+00 0. -1.
        -11    1    1    0    0    0  0.38238944164E-02  0.31355203376E-03 -0.31350198824E-02  0.49809591495E-02  0.51100000000E-03 0. -1.
        -14    1    1    0    0    0  0.25405183026E-02 -0.17392337108E-02 -0.58950558276E-02  0.66506278168E-02  0.00000000000E+00 0. -1.
         12    1    1    0    0    0 -0.11318284747E-02  0.20333481890E-02  0.27888443747E-02  0.36322435904E-02  0.00000000000E+00 0.  1.
         14    1    1    0    0    0 -0.23245400889E-03 -0.16012847885E-02 -0.17568691919E-02  0.23884591681E-02  0.00000000000E+00 0.  1.
     999901    1    1    0    0    0 -0.38395533516E-02  0.26020282997E-02  0.34830514041E-02  0.90001869112E+00  0.90000000000E+00 0. -1.
     999903    1    1    0    0    0 -0.11605768839E-02 -0.16084100232E-02  0.45150491231E-02  0.20599019154E-01  0.20000000000E-01 0.  0.
</event>
<event>
 7    1  0.4717691E-066  0.9118800E+02  0.7957747E-01            NaN
     999900   -1    0    0    0    0  0.00000000000E+00  0.00000000000E+00  0.99999998245E-14  0.93827000000E+00  0.93827000000E+00 0. -1.
        -11    1    1    0    0    0 -0.33800608757E-02  0.86860100033E-03  0.57604767840E-03  0.35738258421E-02  0.51100000000E-03 0. -1.
        -14    1    1    0    0    0  0.16282351371E-02 -0.52339446383E-03  0.67652075048E-03  0.18392312939E-02  0.00000000000E+00 0. -1.
         12    1    1    0    0    0  0.25253170161E-03 -0.30524875837E-03  0.34001104309E-02  0.34231126196E-02  0.00000000000E+00 0.  1.
         14    1    1    0    0    0  0.81525056158E-03 -0.10677079821E-02 -0.41429577424E-02  0.43553108578E-02  0.00000000000E+00 0.  1.
     999901    1    1    0    0    0  0.13222110022E-01 -0.52845004009E-02 -0.55489848786E-02  0.90012973586E+00  0.90000000000E+00 0.  1.
     999903    1    1    0    0    0 -0.12538066547E-01  0.63122506048E-02  0.50392637613E-02  0.24948783531E-01  0.20000000000E-01 0.  0.
</event>
<event>
 7    1  0.4717691E-066  0.9118800E+02  0.7957747E-01            NaN
     999900   -1    0    0    0    0  0.00000000000E+00  0.00000000000E+00  0.99999998245E-14  0.93827000000E+00  0.93827000000E+00 0.  1.
        -11    1    1    0    0    0  0.66948159229E-03  0.61285864287E-02 -0.60133434957E-02  0.86272358386E-02  0.51100000000E-03 0. -1.
        -14    1    1    0    0    0  0.19038611580E-02 -0.37614210375E-03  0.50962415181E-03  0.20064613047E-02  0.00000000000E+00 0. -1.
         12    1    1    0    0    0  0.15574619064E-02  0.13265174633E-02 -0.18186143832E-02  0.27372786568E-02  0.00000000000E+00 0.  1.
         14    1    1    0    0    0 -0.18911441447E-03 -0.11294079661E-02 -0.11569094362E-02  0.16278102037E-02  0.00000000000E+00 0.  1.
     999901    1    1    0    0    0 -0.14271501540E-01 -0.18496312913E-02  0.11525842848E-01  0.90018883683E+00  0.90000000000E+00 0. -1.
     999903    1    1    0    0    0  0.10329811298E-01 -0.40999225309E-02 -0.30465996843E-02  0.23082377171E-01  0.20000000000E-01 0.  0.
</event>
<event>
 7    1  0.4717691E-066  0.9118800E+02  0.7957747E-01            NaN
     999900   -1    0    0    0    0  0.00000000000E+00  0.00000000000E+00  0.99999998245E-14  0.93827000000E+00  0.93827000000E+00 0.  1.
        -11    1    1    0    0    0 -0.26603979441E-02  0.11066529593E-02 -0.26398900699E-02  0.39411341737E-02  0.51100000000E-03 0. -1.
        -14    1    1    0    0    0  0.11494893390E-02  0.45163217728E-04  0.39814245777E-04  0.11510649985E-02  0.00000000000E+00 0. -1.
         12    1    1    0    0    0 -0.45869869544E-03 -0.64757639110E-02 -0.19399012802E-02  0.67756283621E-02  0.00000000000E+00 0.  1.
         14    1    1    0    0    0  0.66875812589E-04  0.62457714690E-03  0.41435325844E-02  0.41908747613E-02  0.00000000000E+00 0.  1.
     999901    1    1    0    0    0  0.18666908896E-02  0.13886547530E-01  0.23872834605E-02  0.90011222626E+00  0.90000000000E+00 0. -1.
     999903    1    1    0    0    0  0.36040598371E-04 -0.91871769425E-02 -0.19908389406E-02  0.22099071446E-01  0.20000000000E-01 0.  0.
</event>
<event>
 7    1  0.4717691E-066  0.9118800E+02  0.7957747E-01            NaN
     999900   -1    0    0    0    0  0.00000000000E+00  0.00000000000E+00  0.99999998245E-14  0.93827000000E+00  0.93827000000E+00 0.  1.
        -11    1    1    0    0    0 -0.41230040534E-02  0.31127329571E-02 -0.33800413199E-02  0.61946807190E-02  0.51100000000E-03 0. -1.
        -14    1    1    0    0    0  0.12281737440E-02 -0.44286561008E-04 -0.45953680141E-03  0.13120770239E-02  0.00000000000E+00 0. -1.
         12    1    1    0    0    0 -0.91509070977E-03 -0.18387505367E-02 -0.56135775908E-03  0.21292057386E-02  0.00000000000E+00 0.  1.
         14    1    1    0    0    0  0.22673843964E-02  0.33921669651E-02 -0.26337267701E-03  0.40886665170E-02  0.00000000000E+00 0.  1.
     999901    1    1    0    0    0  0.11304202049E-01 -0.79622938535E-02 -0.48325441021E-02  0.90011917910E+00  0.90000000000E+00 0.  1.
     999903    1    1    0    0    0 -0.97616654261E-02  0.33404310291E-02  0.94968526595E-02  0.24426190898E-01  0.20000000000E-01 0.  0.
</event>
<event>
 7    1  0.4717691E-066  0.9118800E+02  0.7957747E-01            NaN
     999900   -1    0    0    0    0  0.00000000000E+00  0.00000000000E+00  0.99999998245E-14  0.93827000000E+00  0.93827000000E+00 0. -1.
        -11    1    1    0    0    0 -0.30479879270E-03  0.36980838347E-03 -0.55214173481E-03  0.89198769040E-03  0.51100000000E-03 0. -1.
        -14    1    1    0    0    0  0.26908724856E-02 -0.45788508087E-02 -0.36601359839E-02  0.64500592930E-02  0.00000000000E+00 0. -1.
         12    1    1    0    0    0  0.13407327681E-02  0.24391652283E-02 -0.23931526800E-02  0.36707316867E-02  0.00000000000E+00 0.  1.
         14    1    1    0    0    0 -0.10549838654E-02  0.28368504230E-03  0.11351102914E-02  0.15754185263E-02  0.00000000000E+00 0.  1.
     999901    1    1    0    0    0 -0.11066864116E-01  0.27491492196E-02 -0.80185608596E-02  0.90010795498E+00  0.90000000000E+00 0.  1.
     999903    1    1    0    0    0  0.83950415206E-02 -0.12629570649E-02  0.13488880967E-01  0.25573847822E-01  0.20000000000E-01 0.  0.
</event>
<event>
 7    1  0.4717691E-066  0.9118800E+02  0.7957747E-01            NaN
     999900   -1    0    0    0    0  0.00000000000E+00  0.00000000000E+00  0.99999998245E-14  0.93827000000E+00  0.93827000000E+00 0. -1.
        -11    1    1    0    0    0  0.33117638708E-02 -0.23348250488E-02  0.32760848409E-02  0.52357464443E-02  0.51100000000E-03 0. -1.
        -14    1    1    0    0    0  0.24740876860E-02  0.23663701099E-02 -0.12424789008E-03  0.34258217865E-02  0.00000000000E+00 0. -1.
         12    1    1    0    0    0  0.27377585480E-04  0.11846873811E-02 -0.34794172586E-02  0.36756738406E-02  0.00000000000E+00 0.  1.
         14    1    1    0    0    0  0.11640222134E-02  0.76807034223E-03  0.62269018946E-03  0.15272926491E-02  0.00000000000E+00 0.  1.
     999901    1    1    0    0    0 -0.10340841898E-03 -0.13700732385E-01  0.21338976469E-02  0.90010681271E+00  0.90000000000E+00 0. -1.
     999903    1    1    0    0    0 -0.68738429367E-02  0.11716429600E-01 -0.24290075286E-02  0.24298652573E-01  0.20000000000E-01 0.  0.
</event>
<event>
 7    1  0.4717691E-066  0.9118800E+02  0.7957747E-01            NaN
     999900   -1    0    0    0    0  0.00000000000E+00  0.00000000000E+00  0.99999998245E-14  0.93827000000E+00  0.93827000000E+00 0.  1.
        -11    1    1    0    0    0 -0.33658547020E-02 -0.29005840562E-02  0.38637764644E-02  0.59103515385E-02  0.51100000000E-03 0. -1.
        -14    1    1    0    0    0 -0.11727789197E-02  0.23928632779E-02  0.21414075398E-02  0.34186007829E-02  0.00000000000E+00 0. -1.
         12    1    1    0    0    0  0.22562145226E-02 -0.69575921731E-03  0.53427495279E-03  0.24207508310E-02  0.00000000000E+00 0.  1.
         14    1    1    0    0    0  0.31547147072E-02  0.20989658076E-02 -0.17751893184E-03  0.37933356451E-02  0.00000000000E+00 0.  1.
     999901    1    1    0    0    0  0.28803851073E-02 -0.73170469177E-02  0.13574491384E-02  0.90003537623E+00  0.90000000000E+00 0.  1.
     999903    1    1    0    0    0 -0.37526807154E-02  0.64215611057E-02 -0.77193891636E-02  0.22691584974E-01  0.20000000000E-01 0.  0.
</event>
<event>
 7    1  0.4717691E-066  0.9118800E+02  0.7957747E-01            NaN
     999900   -1    0    0    0    0  0.00000000000E+00  0.00000000000E+00  0.99999998245E-14  0.93827000000E+00  0.93827000000E+00 0.  1.
        -11    1    1    0    0    0 -0.85729841686E-03 -0.24521391698E-03  0.77179205820E-04  0.10306153843E-02  0.51100000000E-03 0.  1.
        -14    1    1    0    0    0  0.92483240806E-03  0.23584865225E-02  0.26227174836E-02  0.36464257374E-02  0.00000000000E+00 0. -1.
         12    1    1    0    0    0 -0.13907762747E-02 -0.20736985688E-02  0.12439921214E-02  0.27896237737E-02  0.00000000000E+00 0.  1.
         14    1    1    0    0    0  0.48706866704E-02  0.67167678024E-02 -0.55360538330E-03  0.83153494980E-02  0.00000000000E+00 0.  1.
     999901    1    1    0    0    0 -0.31428850947E-02 -0.18335089490E-03 -0.11073737684E-01  0.90007362977E+00  0.90000000000E+00 0. -1.
     999903    1    1    0    0    0 -0.40455929229E-03 -0.65729909442E-02  0.76834542568E-02  0.22414355835E-01  0.20000000000E-01 0.  0.
</event>
<event>
 7    1  0.4717691E-066  0.9118800E+02  0.7957747E-01            NaN
     999900   -1    0    0    0    0  0.00000000000E+00  0.00000000000E+00  0.99999998245E-14  0.93827000000E+00  0.93827000000E+00 0.  1.
        -11    1    1    0    0    0 -0.39838398269E-02  0.17488610826E-02 -0.14466376472E-03  0.43830974730E-02  0.51100000000E-03 0. -1.
        -14    1    1    0    0    0 -0.14236658034E-03 -0.25424872639E-02 -0.23467431603E-02  0.34629053107E-02  0.00000000000E+00 0. -1.
         12    1    1    0    0    0 -0.29448591248E-03 -0.26930105141E-02 -0.21333722621E-02  0.34482321254E-02  0.00000000000E+00 0.  1.
         14    1    1    0    0    0  0.15370037541E-02  0.33497448969E-04  0.24632439769E-02  0.29036310904E-02  0.00000000000E+00 0.  1.
     999901    1    1    0    0    0  0.79163664036E-02  0.14636068802E-01  0.66905129233E-02  0.90017867467E+00  0.90000000000E+00 0.  1.
     999903    1    1    0    0    0 -0.50326778380E-02 -0.11182929556E-01 -0.45289777130E-02  0.23893459331E-01  0.20000000000E-01 0.  0.
</event>
<event>
 7    1  0.5588936E-066  0.9118800E+02  0.7957747E-01            NaN
     999900   -1    0    0    0    0  0.00000000000E+00  0.00000000000E+00  0.99999998245E-14  0.93827000000E+00  0.93827000000E+00 0. -1.
        -11    1    1    0    0    0  0.19667520681E-03 -0.44300183271E-02 -0.32240289896E-02  0.55062898073E-02  0.51100000000E-03 0. -1.
        -14    1    1    0    0    0 -0.27668223273E-02  0.11932031565E-03  0.28496694426E-02  0.39736833116E-02  0.00000000000E+00 0. -1.
         12    1    1    0    0    0 -0.29847658758E-03  0.28479541034E-02  0.46180423532E-02  0.54338058508E-02  0.00000000000E+00 0.  1.
         14    1    1    0    0    0  0.27922351349E-03  0.72297375968E-04 -0.74275436610E-03  0.79679152193E-03  0.00000000000E+00 0.  1.
     999901    1    1    0    0    0  0.75183272566E-02  0.96451904067E-02  0.69918215253E-04  0.90008308496E+00  0.90000000000E+00 0.  1.
     999903    1    1    0    0    0 -0.49289270620E-02 -0.82547438746E-02 -0.35708466553E-02  0.22476344548E-01  0.20000000000E-01 0.  0.
</event>
<event>
 7    1  0.4717691E-066  0.9118800E+02  0.7957747E-01            NaN
     999900   -1    0    0    0    0  0.00000000000E+00  0.00000000000E+00  0.99999998245E-14  0.93827000000E+00  0.93827000000E+00 0.  1.
        -11    1    1    0    0    0  0.62800762705E-03  0.21268065947E-02  0.10172862279E-02  0.24927278513E-02  0.51100000000E-03 0. -1.
        -14    1    1    0    0    0  0.65612781024E-03  0.65535407582E-03 -0.32667094860E-03  0.98321237621E-03  0.00000000000E+00 0. -1.
         12    1    1    0    0    0  0.26510356104E-02 -0.15701269065E-02  0.46593505254E-02  0.55859498412E-02  0.00000000000E+00 0.  1.
         14    1    1    0    0    0 -0.26920554456E-02 -0.48744639503E-02  0.12676833387E-02  0.57109178222E-02  0.00000000000E+00 0.  1.
     999901    1    1    0    0    0 -0.10471486223E-01  0.58620370763E-02 -0.13920648175E-01  0.90018764708E+00  0.90000000000E+00 0. -1.
     999903    1    1    0    0    0  0.92283706214E-02 -0.21996068901E-02  0.73029990319E-02  0.23309545033E-01  0.20000000000E-01 0.  0.
</event>
<event>
 7    1  0.4717691E-066  0.9118800E+02  0.7957747E-01            NaN
     999900   -1    0    0    0    0  0.00000000000E+00  0.00000000000E+00  0.99999998245E-14  0.93827000000E+00  0.93827000000E+00 0. -1.
        -11    1    1    0    0    0 -0.31483048805E-02  0.13604084091E-02 -0.11664493861E-02  0.36584504685E-02  0.51100000000E-03 0. -1.
        -14    1    1    0    0    0  0.41204149607E-02 -0.10067487716E-02  0.35329917413E-02  0.55202711149E-02  0.00000000000E+00 0. -1.
         12    1    1    0    0    0  0.30170214849E-03  0.33236114002E-02 -0.20840329125E-02  0.39345406475E-02  0.00000000000E+00 0.  1.
         14    1    1    0    0    0 -0.16749360752E-02 -0.23423775730E-02 -0.96922603282E-05  0.28796245398E-02  0.00000000000E+00 0.  1.
     999901    1    1    0    0    0 -0.47316821370E-03  0.69863070275E-02  0.46778687814E-02  0.90003939627E+00  0.90000000000E+00 0. -1.
     999903    1    1    0    0    0  0.87429206020E-03 -0.83212004923E-02 -0.49506859638E-02  0.22237716964E-01  0.20000000000E-01 0.  0.
</event>
<event>
 7    1  0.4717691E-066  0.9118800E+02  0.7957747E-01            NaN
     999900   -1    0    0    0    0  0.00000000000E+00  0.00000000000E+00  0.99999998245E-14  0.93827000000E+00  0.93827000000E+00 0. -1.
        -11    1    1    0    0    0 -0.37246303181E-02  0.24423312057E-02 -0.41904453565E-03  0.45027293998E-02  0.51100000000E-03 0. -1.
        -14    1    1    0    0    0  0.38168119721E-02  0.24778983216E-02  0.13465042847E-02  0.47456408957E-02  0.00000000000E+00 0. -1.
         12    1    1    0    0    0 -0.24099378495E-02 -0.18189883961E-02  0.10390901211E-02  0.31931532226E-02  0.00000000000E+00 0.  1.
         14    1    1    0    0    0  0.23220939554E-02  0.17905041943E-02 -0.18996154444E-02  0.34937894104E-02  0.00000000000E+00 0.  1.
     999901    1    1    0    0    0  0.55342203451E-02 -0.52276213165E-02  0.79971314086E-02  0.90006772508E+00  0.90000000000E+00 0. -1.
     999903    1    1    0    0    0 -0.55385581050E-02  0.33587599100E-03 -0.80640658343E-02  0.22266961992E-01  0.20000000000E-01 0.  0.
</event>
<event>
 7    1  0.4717691E-066  0.9118800E+02  0.7957747E-01            NaN
     999900   -1    0    0    0    0  0.00000000000E+00  0.00000000000E+00  0.99999998245E-14  0.93827000000E+00  0.93827000000E+00 0. -1.
        -11    1    1    0    0    0  0.71327798964E-04  0.45321999591E-03 -0.29515731194E-02  0.30304126615E-02  0.51100000000E-03 0. -1.
        -14    1    1    0    0    0  0.20184726846E-02 -0.33972502240E-02  0.70649543062E-03  0.40143090136E-02  0.00000000000E+00 0. -1.
         12    1    1    0    0    0 -0.71717443521E-03  0.29118710708E-02  0.66288500801E-02  0.72756433178E-02  0.00000000000E+00 0.  1.
         14    1    1    0    0    0  0.17553619642E-02  0.88902455896E-03  0.11005677533E-02  0.22545309204E-02  0.00000000000E+00 0.  1.
     999901    1    1    0    0    0 -0.88669100140E-03  0.70715582564E-02 -0.62739772233E-02  0.90005008524E+00  0.90000000000E+00 0.  1.
     999903    1    1    0    0    0 -0.22412970111E-02 -0.79284236581E-02  0.78963707877E-03  0.21645018843E-01  0.20000000000E-01 0.  0.
</event>
<event>
 7    1  0.4717691E-066  0.9118800E+02  0.7957747E-01            NaN
     999900   -1    0    0    0    0  0.00000000000E+00  0.00000000000E+00  0.99999998245E-14  0.93827000000E+00  0.93827000000E+00 0.  1.
        -11    1    1    0    0    0 -0.16180014856E-03 -0.20761641681E-02  0.25271838171E-02  0.33142745792E-02  0.51100000000E-03 0. -1.
        -14    1    1    0    0    0 -0.11588335412E-02  0.31881377071E-03 -0.93414068777E-03  0.15222208188E-02  0.00000000000E+00 0. -1.
         12    1    1    0    0    0 -0.39373057098E-02  0.29829941896E-02 -0.12625437426E-02  0.50984946101E-02  0.00000000000E+00 0.  1.
         14    1    1    0    0    0  0.31799615871E-03 -0.35906625937E-02  0.37445371331E-02  0.51976473293E-02  0.00000000000E+00 0.  1.
     999901    1    1    0    0    0  0.14079534607E-01  0.76571944289E-02 -0.80213368861E-02  0.90017843107E+00  0.90000000000E+00 0. -1.
     999903    1    1    0    0    0 -0.91395913664E-02 -0.52921756274E-02  0.39463003663E-02  0.22958931591E-01  0.20000000000E-01 0.  0.
</event>
<event>
 7    1  0.4717691E-066  0.9118800E+02  0.7957747E-01            NaN
     999900   -1    0    0    0    0  0.00000000000E+00  0.00000000000E+00  0.99999998245E-14  0.93827000000E+00  0.93827000000E+00 0.  1.
        -11    1    1    0    0    0  0.25370593783E-02 -0.71855886391E-04 -0.37899732960E-02  0.45898640657E-02  0.51100000000E-03 0. -1.
        -14    1    1    0    0    0  0.19121206202E-02  0.24619600092E-02  0.15946332292E-02  0.35014721888E-02  0.00000000000E+00 0. -1.
         12    1    1    0    0    0 -0.33804819605E-02  0.33522830192E-02  0.63734075646E-03  0.48032970932E-02  0.00000000000E+00 0.  1.
         14    1    1    0    0    0  0.59326957078E-03  0.34550723479E-02  0.12196246465E-03  0.35077583377E-02  0.00000000000E+00 0.  1.
     999901    1    1    0    0    0  0.61687773129E-02 -0.57956766696E-02 -0.44958522198E-03  0.90003991345E+00  0.90000000000E+00 0. -1.
     999903    1    1    0    0    0 -0.78307449217E-02 -0.34017828204E-02  0.18856220677E-02  0.21827694862E-01  0.20000000000E-01 0.  0.
</event>
<event>
 7    1  0.4717691E-066  0.9118800E+02  0.7957747E-01            NaN
     999900   -1    0    0    0    0  0.00000000000E+00  0.00000000000E+00  0.99999998245E-14  0.93827000000E+00  0.93827000000E+00 0.  1.
        -11    1    1    0    0    0  0.39171043229E-02 -0.31286480646E-02  0.13078061081E-03  0.50408699207E-02  0.51100000000E-03 0. -1.
        -14    1    1    0    0    0 -0.13577173544E-02  0.41301504468E-03 -0.26343740367E-03  0.14433908366E-02  0.00000000000E+00 0. -1.
         12    1    1    0    0    0  0.60573823869E-02  0.68777039903E-03 -0.15513081846E-02  0.62905855519E-02  0.00000000000E+00 0.  1.
         14    1    1    0    0    0 -0.13008493114E-02  0.14312959773E-03  0.20987337471E-02  0.24733334498E-02  0.00000000000E+00 0.  1.
     999901    1    1    0    0    0 -0.14966003660E-01 -0.58988056551E-02 -0.24509448223E-02  0.90014709037E+00  0.90000000000E+00 0. -1.
     999903    1    1    0    0    0  0.76500836156E-02  0.77835386783E-02  0.20361760525E-02  0.22874729869E-01  0.20000000000E-01 0.  0.
</event>
<event>
 7    1  0.4717691E-066  0.9118800E+02  0.7957747E-01            NaN
     999900   -1    0    0    0    0  0.00000000000E+00  0.00000000000E+00  0.99999998245E-14  0.93827000000E+00  0.93827000000E+00 0. -1.
        -11    1    1    0    0    0 -0.45178552389E-03 -0.35137798633E-03 -0.63730368508E-03  0.99742349876E-03  0.51100000000E-03 0. -1.
        -14    1    1    0    0    0 -0.13460190011E-02  0.50729256078E-02 -0.39737735553E-02  0.65831009139E-02  0.00000000000E+00 0. -1.
         12    1    1    0    0    0  0.51203481046E-02 -0.61726229971E-04  0.51238503700E-02  0.72440056221E-02  0.00000000000E+00 0.  1.
         14    1    1    0    0    0 -0.49593342969E-03 -0.88398313626E-03  0.60194484631E-03  0.11788612089E-02  0.00000000000E+00 0.  1.
     999901    1    1    0    0    0  0.46161469456E-02 -0.29372867516E-02  0.50761539525E-02  0.90003094603E+00  0.90000000000E+00 0. -1.
     999903    1    1    0    0    0 -0.74427570954E-02 -0.83855150372E-03 -0.61908719285E-02  0.22235662730E-01  0.20000000000E-01 0.  0.
</event>
<event>
 7    1  0.4717691E-066  0.9118800E+02  0.7957747E-01            NaN
     999900   -1    0    0    0    0  0.00000000000E+00  0.00000000000E+00  0.99999998245E-14  0.93827000000E+00  0.93827000000E+00 0.  1.
        -11    1    1    0    0    0 -0.27599993653E-02  0.38406761076E-02 -0.32317106552E-02  0.57509533314E-02  0.51100000000E-03 0. -1.
        -14    1    1    0    0    0 -0.17528506879E-02 -0.20473321763E-02  0.67628444279E-03  0.27787434610E-02  0.00000000000E+00 0. -1.
         12    1    1    0    0    0  0.29424166971E-02 -0.26091899073E-02 -0.39560789985E-03  0.39524920749E-02  0.00000000000E+00 0.  1.
         14    1    1    0    0    0  0.15850979592E-02  0.84615997379E-03 -0.12405690462E-03  0.18010864380E-02  0.00000000000E+00 0.  1.
     999901    1    1    0    0    0 -0.78996005600E-02  0.76737668891E-02 -0.40088987543E-02  0.90007630880E+00  0.90000000000E+00 0. -1.
     999903    1    1    0    0    0  0.78849359569E-02 -0.77040808869E-02  0.70839897712E-02  0.23910415898E-01  0.20000000000E-01 0.  0.
</event>
<event>
 7    1  0.4717691E-066  0.9118800E+02  0.7957747E-01            NaN
     999900   -1    0    0    0    0  0.00000000000E+00  0.00000000000E+00  0.99999998245E-14  0.93827000000E+00  0.93827000000E+00 0.  1.
        -11    1    1    0    0    0 -0.42694040060E-02  0.11645419552E-02  0.10727436978E-02  0.45821248971E-02  0.51100000000E-03 0. -1.
        -14    1    1    0    0    0  0.53870254554E-02  0.31180019789E-02  0.28171699026E-03  0.62306776566E-02  0.00000000000E+00 0. -1.
         12    1    1    0    0    0  0.18120944524E-02  0.31881756182E-04 -0.12777635476E-02  0.22175171779E-02  0.00000000000E+00 0.  1.
         14    1    1    0    0    0 -0.24385570399E-02  0.16640334217E-02  0.11639035622E-02  0.31733640143E-02  0.00000000000E+00 0.  1.
     999901    1    1    0    0    0 -0.81146469175E-02 -0.10676147107E-01  0.28767889474E-03  0.90009994466E+00  0.90000000000E+00 0. -1.
     999903    1    1    0    0    0  0.76234880555E-02  0.46976879947E-02 -0.15282795974E-02  0.21966371597E-01  0.20000000000E-01 0.  0.
</event>
<event>
 7    1  0.4717691E-066  0.9118800E+02  0.7957747E-01            NaN
     999900   -1    0    0    0    0  0.00000000000E+00  0.00000000000E+00  0.99999998245E-14  0.93827000000E+00  0.93827000000E+00 0.  1.
        -11    1    1    0    0    0  0.23774578922E-02 -0.29234189236E-02 -0.30689129047E-02  0.48865152868E-02  0.51100000000E-03 0. -1.
        -14    1    1    0    0    0  0.17313439396E-02  0.14677105830E-02 -0.16112047523E-02  0.27834703064E-02  0.00000000000E+00 0. -1.
         12    1    1    0    0    0  0.18673627169E-03  0.33686403601E-03 -0.21859228108E-02  0.22195959877E-02  0.00000000000E+00 0.  1.
         14    1    1    0    0    0  0.11432635306E-02  0.18855759895E-02  0.18830706292E-02  0.28997246951E-02  0.00000000000E+00 0.  1.
     999901    1    1    0    0    0 -0.12642597552E-01  0.12501501189E-01  0.82243807418E-02  0.90021317656E+00  0.90000000000E+00 0. -1.
     999903    1    1    0    0    0  0.72037959183E-02 -0.13268232874E-01 -0.32414109032E-02  0.25267517169E-01  0.20000000000E-01 0.  0.
</event>
<event>
 7    1  0.4717691E-066  0.9118800E+02  0.7957747E-01            NaN
     999900   -1    0    0    0    0  0.00000000000E+00  0.00000000000E+00  0.99999998245E-14  0.93827000000E+00  0.93827000000E+00 0.  1.
        -11    1    1    0    0    0 -0.32748262617E-02  0.22794121623E-02 -0.33634455542E-02  0.52434810809E-02  0.51100000000E-03 0. -1.
        -14    1    1    0    0    0  0.32267677653E-03  0.14711394137E-02  0.16178371104E-02  0.22103774321E-02  0.00000000000E+00 0. -1.
         12    1    1    0    0    0  0.89034284657E-03  0.65661444665E-02 -0.17301205897E-02  0.68483779681E-02  0.00000000000E+00 0.  1.
         14    1    1    0    0    0 -0.97971681061E-03 -0.24139250678E-02 -0.65195428141E-03  0.26855024943E-02  0.00000000000E+00 0.  1.
     999901    1    1    0    0    0  0.36230680906E-02 -0.76374274429E-03  0.49769479861E-02  0.90002137749E+00  0.90000000000E+00 0.  1.
     999903    1    1    0    0    0 -0.58154464139E-03 -0.71390282304E-02 -0.84926467118E-03  0.21260883536E-01  0.20000000000E-01 0.  0.
</event>
<event>
 7    1  0.4717691E-066  0.9118800E+02  0.7957747E-01            NaN
     999900   -1    0    0    0    0  0.00000000000E+00  0.00000000000E+00  0.99999998245E-14  0.93827000000E+00  0.93827000000E+00 0. -1.
        -11    1    1    0    0    0 -0.50413712816E-03 -0.65521740803E-02  0.96014802378E-03  0.66609417240E-02  0.51100000000E-03 0. -1.
        -14    1    1    0    0    0 -0.21351707605E-02  0.25964602328E-02  0.11423882642E-02  0.35504381227E-02  0.00000000000E+00 0. -1.
         12    1    1    0    0    0  0.87662968401E-03 -0.85046415303E-03 -0.10138061254E-02  0.15873158912E-02  0.00000000000E+00 0.  1.
         14    1    1    0    0    0 -0.22196404531E-02 -0.17212325689E-02 -0.25620752925E-02  0.38017989297E-02  0.00000000000E+00 0.  1.
     999901    1    1    0    0    0  0.88736811117E-02  0.11180736829E-01  0.92867761908E-02  0.90016109409E+00  0.90000000000E+00 0. -1.
     999903    1    1    0    0    0 -0.48913624540E-02 -0.46533262599E-02 -0.78134310609E-02  0.22508411247E-01  0.20000000000E-01 0.  0.
</event>
<event>
 7    1  0.4717691E-066  0.9118800E+02  0.7957747E-01            NaN
     999900   -1    0    0    0    0  0.00000000000E+00  0.00000000000E+00  0.99999998245E-14  0.93827000000E+00  0.93827000000E+00 0. -1.
        -11    1    1    0    0    0 -0.21222182473E-03  0.95298806350E-03  0.22414763710E-02  0.24977112871E-02  0.51100000000E-03 0. -1.
        -14    1    1    0    0    0  0.37345613614E-02 -0.67848577834E-03  0.49769919565E-03  0.38281844265E-02  0.00000000000E+00 0. -1.
         12    1    1    0    0    0  0.22135780795E-03 -0.37871770938E-02 -0.19368489166E-02  0.42594710170E-02  0.00000000000E+00 0.  1.
         14    1    1    0    0    0 -0.19613982539E-02 -0.60802089139E-03  0.48067041350E-03  0.21089847229E-02  0.00000000000E+00 0.  1.
     999901    1    1    0    0    0 -0.13891166444E-01  0.66113125207E-02  0.83405782552E-02  0.90017011681E+00  0.90000000000E+00 0. -1.
     999903    1    1    0    0    0  0.12108867353E-01 -0.24906168207E-02 -0.96235753187E-02  0.25405531733E-01  0.20000000000E-01 0.  0.
</event>
<event>
 7    1  0.4717691E-066  0.9118800E+02  0.7957747E-01            NaN
     999900   -1    0    0    0    0  0.00000000000E+00  0.00000000000E+00  0.99999998245E-14  0.93827000000E+00  0.93827000000E+00 0. -1.
        -11    1    1    0    0    0  0.67743417395E-02 -0.35165671394E-03  0.19411813365E-02  0.70742260657E-02  0.51100000000E-03 0. -1.
        -14    1    1    0    0    0 -0.28594728301E-02  0.51007412987E-02  0.25302503433E-03  0.58530477813E-02  0.00000000000E+00 0. -1.
         12    1    1    0    0    0 -0.39620565736E-03  0.10683712071E-02  0.61343697252E-03  0.12941023446E-02  0.00000000000E+00 0.  1.
         14    1    1    0    0    0  0.39261068868E-03 -0.24537423218E-02 -0.54564279749E-03  0.25441542007E-02  0.00000000000E+00 0.  1.
     999901    1    1    0    0    0 -0.40723980640E-03 -0.21584260128E-02 -0.90901772222E-02  0.90004858534E+00  0.90000000000E+00 0.  1.
     999903    1    1    0    0    0 -0.35040341343E-02 -0.12052874573E-02  0.68281766763E-02  0.21455884270E-01  0.20000000000E-01 0.  0.
</event>
<event>
 7    1  0.4717691E-066  0.9118800E+02  0.7957747E-01            NaN
     999900   -1    0    0    0    0  0.00000000000E+00  0.00000000000E+00  0.99999998245E-14  0.93827000000E+00  0.93827000000E+00 0. -1.
        -11    1    1    0    0    0 -0.30507931179E-02 -0.17607188563E-02 -0.39506790007E-02  0.53175610110E-02  0.51100000000E-03 0. -1.
        -14    1    1    0    0    0  0.12395789925E-02  0.31012371243E-02  0.18328102756E-02  0.38096484465E-02  0.00000000000E+00 0. -1.
         12    1    1    0    0    0 -0.45067072382E-02  0.14790048137E-03 -0.27746412351E-02  0.52944233555E-02  0.00000000000E+00 0.  1.
         14    1    1    0    0    0  0.55852969093E-03 -0.88506224546E-03  0.49580929392E-03  0.11580662545E-02  0.00000000000E+00 0.  1.
     999901    1    1    0    0    0 -0.34683497412E-02 -0.46113016744E-02  0.77555504929E-02  0.90005191079E+00  0.90000000000E+00 0. -1.
     999903    1    1    0    0    0  0.92277414138E-02  0.40079451706E-02 -0.33588498266E-02  0.22638390143E-01  0.20000000000E-01 0.  0.
</event>
<event>
 7    1  0.4717691E-066  0.9118800E+02  0.7957747E-01            NaN
     999900   -1    0    0    0    0  0.00000000000E+00  0.00000000000E+00  0.99999998245E-14  0.93827000000E+00  0.93827000000E+00 0. -1.
        -11    1    1    0    0    0 -0.13234765949E-02  0.31714509090E-02 -0.62221461150E-03  0.35295839965E-02  0.51100000000E-03 0. -1.
        -14    1    1    0    0    0  0.17691509259E-02  0.46244237079E-03  0.11345378817E-02  0.21519582129E-02  0.00000000000E+00 0. -1.
         12    1    1    0    0    0  0.51994048632E-02 -0.12135050563E-02 -0.28151278392E-02  0.60358388153E-02  0.00000000000E+00 0.  1.
         14    1    1    0    0    0 -0.27354826193E-02 -0.16320352701E-03  0.10936017484E-02  0.29505025565E-02  0.00000000000E+00 0.  1.
     999901    1    1    0    0    0 -0.17854567781E-02 -0.14232102173E-01  0.37863098762E-02  0.90012225655E+00  0.90000000000E+00 0. -1.
     999903    1    1    0    0    0 -0.11241397967E-02  0.11974917476E-01 -0.25771070556E-02  0.23479859872E-01  0.20000000000E-01 0.  0.
</event>
<event>
 7    1  0.4717691E-066  0.9118800E+02  0.7957747E-01            NaN
     999900   -1    0    0    0    0  0.00000000000E+00  0.00000000000E+00  0.99999998245E-14  0.93827000000E+00  0.93827000000E+00 0.  1.
        -11    1    1    0    0    0  0.22342548471E-02  0.85616392792E-03 -0.54390421451E-02  0.59639929451E-02  0.51100000000E-03 0. -1.
        -14    1    1    0    0    0 -0.17107321199E-02  0.27138071121E-02  0.12507376367E-02  0.34432104297E-02  0.00000000000E+00 0. -1.
         12    1    1    0    0    0  0.14072031131E-02  0.17206660442E-02  0.61239248225E-03  0.23056315381E-02  0.00000000000E+00 0.  1.
         14    1    1    0    0    0  0.35355923883E-02 -0.24707465019E-02 -0.17796946257E-02  0.46660813080E-02  0.00000000000E+00 0.  1.
     999901    1    1    0    0    0 -0.12906833959E-01 -0.70496900117E-02  0.54364064806E-02  0.90013656687E+00  0.90000000000E+00 0. -1.
     999903    1    1    0    0    0  0.74405157305E-02  0.42297994294E-02 -0.80799828714E-04  0.21754516914E-01  0.20000000000E-01 0.  0.
</event>
<event>
 7    1  0.4717691E-066  0.9118800E+02  0.7957747E-01            NaN
     999900   -1    0    0    0    0  0.00000000000E+00  0.00000000000E+00  0.99999998245E-14  0.93827000000E+00  0.93827000000E+00 0. -1.
        -11    1    1    0    0    0 -0.13048159518E-02  0.41976022133E-03  0.26184516859E-02  0.29993588553E-02  0.51100000000E-03 0. -1.
        -14    1    1    0    0    0  0.18975916211E-02  0.40134936324E-02  0.41326169723E-03  0.44586736064E-02  0.00000000000E+00 0. -1.
         12    1    1    0    0    0 -0.24560722014E-03 -0.85021283151E-03 -0.20319961802E-02  0.22163468235E-02  0.00000000000E+00 0.  1.
         14    1    1    0    0    0 -0.36929913490E-02  0.24057383188E-02 -0.28297441302E-02  0.52376725561E-02  0.00000000000E+00 0.  1.
     999901    1    1    0    0    0  0.14922972157E-01 -0.57127069239E-02 -0.37846451739E-03  0.90014191845E+00  0.90000000000E+00 0. -1.
     999903    1    1    0    0    0 -0.11577149257E-01 -0.27607241712E-03  0.22084914446E-02  0.23216029707E-01  0.20000000000E-01 0.  0.
</event>
<event>
 7    1  0.4717691E-066  0.9118800E+02  0.7957747E-01            NaN
     999900   -1    0    0    0    0  0.00000000000E+00  0.00000000000E+00  0.99999998245E-14  0.93827000000E+00  0.93827000000E+00 0. -1.
        -11    1    1    0    0    0 -0.24319940289E-02  0.57506605021E-03  0.18614995366E-02  0.31577836284E-02  0.51100000000E-03 0. -1.
        -14    1    1    0    0    0  0.30877280941E-03  0.22575348147E-02  0.13009850147E-02  0.26238075569E-02  0.00000000000E+00 0. -1.
         12    1    1    0    0    0 -0.14988837302E-02  0.36013362217E-03  0.22132236494E-02  0.26971665845E-02  0.00000000000E+00 0.  1.
         14    1    1    0    0    0  0.15590191242E-03 -0.26457789651E-02 -0.33522367324E-02  0.42733994487E-02  0.00000000000E+00 0.  1.
     999901    1    1    0    0    0 -0.92729339840E-02 -0.93425371002E-02 -0.44815372221E-02  0.90010741275E+00  0.90000000000E+00 0.  1.
     999903    1    1    0    0    0  0.12739137021E-01  0.87955815782E-02  0.24580657537E-02  0.25410430036E-01  0.20000000000E-01 0.  0.
</event>
<event>
 7    1  0.4717691E-066  0.9118800E+02  0.7957747E-01            NaN
     999900   -1    0    0    0    0  0.00000000000E+00  0.00000000000E+00  0.99999998245E-14  0.93827000000E+00  0.93827000000E+00 0.  1.
        -11    1    1    0    0    0 -0.27086061152E-03 -0.17796784032E-02 -0.11473393331E-02  0.21950237436E-02  0.51100000000E-03 0. -1.
        -14    1    1    0    0    0 -0.38089145531E-02  0.28142549239E-02 -0.24290854776E-02  0.53224352610E-02  0.00000000000E+00 0. -1.
         12    1    1    0    0    0  0.15704424420E-02 -0.33958893397E-02 -0.39034989090E-02  0.54070007956E-02  0.00000000000E+00 0.  1.
         14    1    1    0    0    0  0.23862145034E-04 -0.87754836119E-03 -0.12048389345E-02  0.14907371956E-02  0.00000000000E+00 0.  1.
     999901    1    1    0    0    0 -0.77268324012E-02 -0.27492119196E-02  0.13414500983E-01  0.90013732893E+00  0.90000000000E+00 0.  1.
     999903    1    1    0    0    0  0.10212302979E-01  0.59880730998E-02 -0.47297383285E-02  0.23717474069E-01  0.20000000000E-01 0.  0.
</event>
<event>
 7    1  0.4717691E-066  0.9118800E+02  0.7957747E-01            NaN
     999900   -1    0    0    0    0  0.00000000000E+00  0.00000000000E+00  0.99999998245E-14  0.93827000000E+00  0.93827000000E+00 0. -1.
        -11    1    1    0    0    0  0.16445706631E-03  0.23301438196E-02  0.40932426597E-02  0.47405034351E-02  0.51100000000E-03 0. -1.
        -14    1    1    0    0    0  0.10354102346E-02 -0.20681758318E-02 -0.23310169045E-03  0.23245993254E-02  0.00000000000E+00 0. -1.
         12    1    1    0    0    0 -0.16016055796E-02  0.46911051186E-03 -0.48046685743E-02  0.50862604351E-02  0.00000000000E+00 0.  1.
         14    1    1    0    0    0 -0.47311853663E-02  0.32377562781E-03 -0.42554772916E-03  0.47613061755E-02  0.00000000000E+00 0.  1.
     999901    1    1    0    0    0  0.20526297017E-02  0.52447801738E-02  0.37925860632E-02  0.90002561337E+00  0.90000000000E+00 0. -1.
     999903    1    1    0    0    0  0.30802939432E-02 -0.62996343013E-02 -0.24225107290E-02  0.21331717262E-01  0.20000000000E-01 0.  0.
</event>
<event>
 7    1  0.4717691E-066  0.9118800E+02  0.7957747E-01            NaN
     999900   -1    0    0    0    0  0.00000000000E+00  0.00000000000E+00  0.99999998245E-14  0.93827000000E+00  0.93827000000E+00 0.  1.
        -11    1    1    0    0    0 -0.15233556329E-02  0.15677167769E-02 -0.51829381537E-02  0.56482136275E-02  0.51100000000E-03 0. -1.
        -14    1    1    0    0    0  0.72740521864E-03  0.44933277129E-03  0.57282774662E-03  0.10291500953E-02  0.00000000000E+00 0. -1.
         12    1    1    0    0    0 -0.70719728784E-03  0.13118789933E-02 -0.65066230072E-02  0.66751252764E-02  0.00000000000E+00 0.  1.
         14    1    1    0    0    0  0.14788402780E-03  0.17387278922E-02  0.81060432200E-03  0.19240903658E-02  0.00000000000E+00 0.  1.
     999901    1    1    0    0    0  0.10604361582E-01 -0.10143956494E-01  0.70449786631E-02  0.90014720133E+00  0.90000000000E+00 0.  1.
     999903    1    1    0    0    0 -0.92490979077E-02  0.50763000604E-02  0.32611504292E-02  0.22846219305E-01  0.20000000000E-01 0.  0.
</event>
<event>
 7    1  0.4717691E-066  0.9118800E+02  0.7957747E-01            NaN
     999900   -1    0    0    0    0  0.00000000000E+00  0.00000000000E+00  0.99999998245E-14  0.93827000000E+00  0.93827000000E+00 0. -1.
        -11    1    1    0    0    0 -0.41555626105E-02  0.41745825169E-02 -0.13705846382E-02  0.60692226068E-02  0.51100000000E-03 0. -1.
        -14    1    1    0    0    0  0.79898025334E-03 -0.23967690114E-02 -0.15103874300E-02  0.29434913501E-02  0.00000000000E+00 0. -1.
         12    1    1    0    0    0  0.15108505095E-03 -0.51026397314E-03 -0.14351402251E-02  0.15306284594E-02  0.00000000000E+00 0.  1.
         14    1    1    0    0    0 -0.35424469563E-02  0.22094005238E-02  0.23446951319E-02  0.47883166535E-02  0.00000000000E+00 0.  1.
     999901    1    1    0    0    0 -0.35951527804E-02 -0.55031904419E-02 -0.17572360212E-02  0.90002572080E+00  0.90000000000E+00 0. -1.
     999903    1    1    0    0    0  0.10343097043E-01  0.20262403858E-02  0.37286531827E-02  0.22912620127E-01  0.20000000000E-01 0.  0.
</event>
<event>
 7    1  0.4717691E-066  0.9118800E+02  0.7957747E-01            NaN
     999900   -1    0    0    0    0  0.00000000000E+00  0.00000000000E+00  0.99999998245E-14  0.93827000000E+00  0.93827000000E+00 0. -1.
        -11    1    1    0    0    0  0.18527156471E-02  0.55640184958E-03 -0.23931573213E-02  0.31193687264E-02  0.51100000000E-03 0. -1.
        -14    1    1    0    0    0 -0.45495929529E-03 -0.48296054003E-04  0.50101752335E-02  0.50310214013E-02  0.00000000000E+00 0. -1.
         12    1    1    0    0    0 -0.16185709705E-02  0.24800484856E-02  0.25190541751E-03  0.29721825006E-02  0.00000000000E+00 0.  1.
         14    1    1    0    0    0 -0.11362257019E-02  0.14134012121E-02 -0.18981598549E-02  0.26252090711E-02  0.00000000000E+00 0.  1.
     999901    1    1    0    0    0 -0.75634616448E-02 -0.14438047874E-01  0.27192657997E-02  0.90015168588E+00  0.90000000000E+00 0. -1.
     999903    1    1    0    0    0  0.89205019654E-02  0.10036492381E-01 -0.36900292746E-02  0.24370532425E-01  0.20000000000E-01 0.  0.
</event>
<event>
 7    1  0.4717691E-066  0.9118800E+02  0.7957747E-01            NaN
     999900   -1    0    0    0    0  0.00000000000E+00  0.00000000000E+00  0.99999998245E-14  0.93827000000E+00  0.93827000000E+00 0. -1.
        -11    1    1    0    0    0 -0.22506436805E-05 -0.19484986061E-02  0.56637601020E-03  0.20924996221E-02  0.51100000000E-03 0. -1.
        -14    1    1    0    0    0  0.20781345933E-02 -0.56534182352E-02 -0.16368208817E-02  0.62417116025E-02  0.00000000000E+00 0. -1.
         12    1    1    0    0    0  0.11276189308E-02  0.18549805326E-02  0.51588659497E-02  0.55969969731E-02  0.00000000000E+00 0.  1.
         14    1    1    0    0    0 -0.85274169998E-03 -0.97011973533E-03 -0.14996640199E-02  0.19792152183E-02  0.00000000000E+00 0.  1.
     999901    1    1    0    0    0 -0.44948218307E-02  0.24391382334E-02  0.60991897075E-02  0.90003519539E+00  0.90000000000E+00 0. -1.
     999903    1    1    0    0    0  0.21440606503E-02  0.42779178106E-02 -0.86879467658E-02  0.22324381198E-01  0.20000000000E-01 0.  0.
</event>
<event>
 7    1  0.4717691E-066  0.9118800E+02  0.7957747E-01            NaN
     999900   -1    0    0    0    0  0.00000000000E+00  0.00000000000E+00  0.99999998245E-14  0.93827000000E+00  0.93827000000E+00 0.  1.
        -11    1    1    0    0    0  0.95751427837E-03 -0.33905470257E-02 -0.20054406330E-02  0.40860195618E-02  0.51100000000E-03 0. -1.
        -14    1    1    0    0    0  0.45422761029E-02 -0.48368238103E-03  0.44424014990E-02  0.63719033199E-02  0.00000000000E+00 0. -1.
         12    1    1    0    0    0 -0.19898554082E-02  0.15042885380E-02  0.89843772748E-03  0.26513390770E-02  0.00000000000E+00 0.  1.
         14    1    1    0    0    0  0.24985448505E-02  0.30167984801E-02 -0.93246326506E-03  0.40265726344E-02  0.00000000000E+00 0.  1.
     999901    1    1    0    0    0 -0.82415082052E-02 -0.44900920226E-02  0.25645648420E-02  0.90005258756E+00  0.90000000000E+00 0.  1.
     999903    1    1    0    0    0  0.22330283816E-02  0.38432344113E-02 -0.49675001704E-02  0.21081577845E-01  0.20000000000E-01 0.  0.
</event>
<event>
 7    1  0.6161729E-066  0.9118800E+02  0.7957747E-01            NaN
     999900   -1    0    0    0    0  0.00000000000E+00  0.00000000000E+00  0.99999998245E-14  0.93827000000E+00  0.93827000000E+00 0.  1.
        -11    1    1    0    0    0  0.31227708844E-02 -0.67076296567E-02  0.35586881209E-02  0.82261397843E-02  0.51100000000E-03 0. -1.
        -14    1    1    0    0    0 -0.30590194760E-02 -0.10583350074E-02 -0.18189761685E-02  0.37129970972E-02  0.00000000000E+00 0. -1.
         12    1    1    0    0    0 -0.21357015593E-02  0.62565297027E-03  0.50279895297E-03  0.22815498190E-02  0.00000000000E+00 0.  1.
         14    1    1    0    0    0  0.16558705715E-02 -0.78120250729E-03  0.28032051222E-02  0.33481552628E-02  0.00000000000E+00 0.  1.
     999901    1    1    0    0    0 -0.28988596572E-02  0.11119273335E-01 -0.68402160945E-02  0.90009934462E+00  0.90000000000E+00 0.  1.
     999903    1    1    0    0    0  0.33149392366E-02 -0.31977591336E-02  0.17945000669E-02  0.20601813418E-01  0.20000000000E-01 0.  0.
</event>
<event>
 7    1  0.4717691E-066  0.9118800E+02  0.7957747E-01            NaN
     999900   -1    0    0    0    0  0.00000000000E+00  0.00000000000E+00  0.99999998245E-14  0.93827000000E+00  0.93827000000E+00 0. -1.
        -11    1    1    0    0    0  0.23060111089E-02  0.12491870672E-02 -0.13832863477E-02  0.30087800988E-02  0.51100000000E-03 0. -1.
        -14    1    1    0    0    0  0.33644192725E-02  0.53435099825E-02  0.71801430116E-02  0.95617398856E-02  0.00000000000E+00 0. -1.
         12    1    1    0    0    0 -0.59746662171E-03  0.22592479790E-03  0.17358587024E-03  0.66192177235E-03  0.00000000000E+00 0.  1.
         14    1    1    0    0    0  0.93002084735E-03  0.37172364265E-03  0.18193203396E-02  0.20767868790E-02  0.00000000000E+00 0.  1.
     999901    1    1    0    0    0 -0.82663533674E-02 -0.16728094265E-01 -0.12098622359E-01  0.90027470163E+00  0.90000000000E+00 0. -1.
     999903    1    1    0    0    0  0.22633687604E-02  0.95377487745E-02  0.43088594849E-02  0.22686069732E-01  0.20000000000E-01 0.  0.
</event>
<event>
 7    1  0.4717691E-066  0.9118800E+02  0.7957747E-01            NaN
     999900   -1    0    0    0    0  0.00000000000E+00  0.00000000000E+00  0.99999998245E-14  0.93827000000E+00  0.93827000000E+00 0. -1.
        -11    1    1    0    0    0  0.19752906875E-02 -0.36820542922E-03  0.17126181392E-02  0.26891505033E-02  0.51100000000E-03 0. -1.
        -14    1    1    0    0    0 -0.18690885217E-02 -0.16051855178E-02 -0.87620553030E-03  0.26149280258E-02  0.00000000000E+00 0. -1.
         12    1    1    0    0    0 -0.40084046621E-02 -0.42892011153E-02  0.31624060645E-03  0.58791633983E-02  0.00000000000E+00 0.  1.
         14    1    1    0    0    0  0.16236560930E-02 -0.94259710747E-04  0.11692522432E-02  0.20030713441E-02  0.00000000000E+00 0.  1.
     999901    1    1    0    0    0 -0.99678289345E-03 -0.76759253315E-02 -0.66403966671E-02  0.90005778052E+00  0.90000000000E+00 0.  1.
     999903    1    1    0    0    0  0.32753292968E-02  0.14032777105E-01  0.43184912085E-02  0.25025906209E-01  0.20000000000E-01 0.  0.
</event>
<event>
 7    1  0.4717691E-066  0.9118800E+02  0.7957747E-01            NaN
     999900   -1    0    0    0    0  0.00000000000E+00  0.00000000000E+00  0.99999998245E-14  0.93827000000E+00  0.93827000000E+00 0.  1.
        -11    1    1    0    0    0  0.65990319795E-03 -0.45384037355E-02  0.37940361223E-02  0.59739778870E-02  0.51100000000E-03 0. -1.
        -14    1    1    0    0    0 -0.18293927782E-03  0.28707663378E-03 -0.10119231514E-02  0.10676461199E-02  0.00000000000E+00 0. -1.
         12    1    1    0    0    0 -0.48686205480E-03  0.82562237667E-03  0.36538474223E-02  0.37774711058E-02  0.00000000000E+00 0.  1.
         14    1    1    0    0    0  0.13228396533E-02  0.14728477803E-02 -0.16237448479E-02  0.25604165019E-02  0.00000000000E+00 0.  1.
     999901    1    1    0    0    0 -0.62208122927E-02 -0.74806556677E-02 -0.14706134306E-01  0.90017272182E+00  0.90000000000E+00 0. -1.
     999903    1    1    0    0    0  0.49078707741E-02  0.94335126124E-02  0.98939187611E-02  0.24717766570E-01  0.20000000000E-01 0.  0.
</event>
<event>
 7    1  0.4717691E-066  0.9118800E+02  0.7957747E-01            NaN
     999900   -1    0    0    0    0  0.00000000000E+00  0.00000000000E+00  0.99999998245E-14  0.93827000000E+00  0.93827000000E+00 0. -1.
        -11    1    1    0    0    0  0.20325088627E-02 -0.95239554686E-03 -0.18907555129E-02  0.29789640757E-02  0.51100000000E-03 0. -1.
        -14    1    1    0    0    0 -0.49476696345E-02 -0.14150347578E-02 -0.58525113049E-03  0.51792158735E-02  0.00000000000E+00 0. -1.
         12    1    1    0    0    0 -0.46777555507E-03 -0.17853860654E-02  0.29317304738E-03  0.18687877911E-02  0.00000000000E+00 0.  1.
         14    1    1    0    0    0 -0.37041573151E-02 -0.88202380737E-03 -0.29737251774E-02  0.48313340645E-02  0.00000000000E+00 0.  1.
     999901    1    1    0    0    0  0.87855650491E-02 -0.66732285212E-02  0.70760727105E-02  0.90009543324E+00  0.90000000000E+00 0. -1.
     999903    1    1    0    0    0 -0.16984714071E-02  0.11708068699E-01 -0.19195139371E-02  0.23316264957E-01  0.20000000000E-01 0.  0.
</event>
<event>
 7    1  0.4717691E-066  0.9118800E+02  0.7957747E-01            NaN
     999900   -1    0    0    0    0  0.00000000000E+00  0.00000000000E+00  0.99999998245E-14  0.93827000000E+00  0.93827000000E+00 0. -1.
        -11    1    1    0    0    0  0.21736652398E-03  0.76436741723E-03  0.21721734786E-02  0.23687474275E-02  0.51100000000E-03 0. -1.
        -14    1    1    0    0    0 -0.18413945868E-02 -0.12360863341E-02 -0.10825718792E-02  0.24679151775E-02  0.00000000000E+00 0. -1.
         12    1    1    0    0    0  0.23125440657E-02  0.34564789349E-02 -0.20083394532E-02  0.46182825858E-02  0.00000000000E+00 0.  1.
         14    1    1    0    0    0 -0.49163406296E-02  0.77280132666E-04  0.38244670098E-02  0.62291994120E-02  0.00000000000E+00 0.  1.
     999901    1    1    0    0    0  0.61394410441E-02 -0.57294111260E-02  0.69119844640E-02  0.90006571672E+00  0.90000000000E+00 0. -1.
     999903    1    1    0    0    0 -0.19116164174E-02  0.26673709754E-02 -0.98177136200E-02  0.22520138676E-01  0.20000000000E-01 0.  0.
</event>
<event>
 7    1  0.4717691E-066  0.9118800E+02  0.7957747E-01            NaN
     999900   -1    0    0    0    0  0.00000000000E+00  0.00000000000E+00  0.99999998245E-14  0.93827000000E+00  0.93827000000E+00 0. -1.
        -11    1    1    0    0    0 -0.72683644139E-03  0.17582496440E-02 -0.24455235474E-02  0.31402928914E-02  0.51100000000E-03 0. -1.
        -14    1    1    0    0    0  0.19685880351E-03 -0.16422765691E-02  0.47010783036E-02  0.49835692967E-02  0.00000000000E+00 0. -1.
         12    1    1    0    0    0 -0.27028866262E-02 -0.15622685765E-02  0.94326092032E-03  0.32612912140E-02  0.00000000000E+00 0.  1.
         14    1    1    0    0    0 -0.14944298886E-02 -0.16099766041E-02  0.25748277525E-02  0.33845359080E-02  0.00000000000E+00 0.  1.
     999901    1    1    0    0    0  0.83829979288E-02  0.14123776668E-01 -0.85143075989E-02  0.90019011834E+00  0.90000000000E+00 0.  1.
     999903    1    1    0    0    0 -0.36557037762E-02 -0.11067504562E-01  0.27406641699E-02  0.23310192351E-01  0.20000000000E-01 0.  0.
</event>
<event>
 7    1  0.4717691E-066  0.9118800E+02  0.7957747E-01            NaN
     999900   -1    0    0    0    0  0.00000000000E+00  0.00000000000E+00  0.99999998245E-14  0.93827000000E+00  0.93827000000E+00 0. -1.
        -11    1    1    0    0    0  0.96103842444E-03 -0.18321185250E-02 -0.67140071683E-02  0.70440944343E-02  0.51100000000E-03 0. -1.
        -14    1    1    0    0    0 -0.14597555080E-02 -0.16849001026E-02  0.29404411069E-02  0.36899821682E-02  0.00000000000E+00 0. -1.
         12    1    1    0    0    0 -0.19417622787E-02  0.17951690733E-02  0.14224778548E-02  0.30027514044E-02  0.00000000000E+00 0.  1.
         14    1    1    0    0    0  0.12236608648E-02 -0.21226340840E-03 -0.82385839878E-03  0.14903504044E-02  0.00000000000E+00 0.  1.
     999901    1    1    0    0    0  0.11300013854E-01 -0.74006756034E-03 -0.11651935669E-02  0.90007199473E+00  0.90000000000E+00 0.  1.
     999903    1    1    0    0    0 -0.10083195357E-01  0.26741805230E-02  0.43401401723E-02  0.22970826863E-01  0.20000000000E-01 0.  0.
</event>
<event>
 7    1  0.4717691E-066  0.9118800E+02  0.7957747E-01            NaN
     999900   -1    0    0    0    0  0.00000000000E+00  0.00000000000E+00  0.99999998245E-14  0.93827000000E+00  0.93827000000E+00 0. -1.
        -11    1    1    0    0    0  0.16778638386E-02  0.21093844747E-02  0.48988408480E-02  0.56146676284E-02  0.51100000000E-03 0. -1.
        -14    1    1    0    0    0  0.89486414010E-03 -0.54122499893E-03 -0.39361460363E-02  0.40727081835E-02  0.00000000000E+00 0. -1.
         12    1    1    0    0    0  0.13642633565E-03  0.48142220568E-03  0.65146752140E-03  0.82145566930E-03  0.00000000000E+00 0.  1.
         14    1    1    0    0    0  0.26802881567E-02 -0.78097335105E-03 -0.38484181043E-02  0.47543859629E-02  0.00000000000E+00 0.  1.
     999901    1    1    0    0    0 -0.92515691751E-02  0.90776124748E-02  0.48490685726E-03  0.90009345610E+00  0.90000000000E+00 0.  1.
     999903    1    1    0    0    0  0.38621267040E-02 -0.10346220805E-01  0.17493489139E-02  0.22913326455E-01  0.20000000000E-01 0.  0.
</event>
<event>
 7    1  0.4717691E-066  0.9118800E+02  0.7957747E-01            NaN
     999900   -1    0    0    0    0  0.00000000000E+00  0.00000000000E+00  0.99999998245E-14  0.93827000000E+00  0.93827000000E+00 0.  1.
        -11    1    1    0    0    0 -0.14164430474E-02 -0.28430411533E-02  0.17773785730E-02  0.36755121409E-02  0.51100000000E-03 0. -1.
        -14    1    1    0    0    0 -0.55735709976E-04  0.24088629479E-02  0.21357365947E-02  0.32197978156E-02  0.00000000000E+00 0. -1.
         12    1    1    0    0    0  0.21393059862E-02  0.15383059501E-02 -0.17535106495E-02  0.31650931892E-02  0.00000000000E+00 0.  1.
         14    1    1    0    0    0 -0.26120742376E-02 -0.73229131605E-03 -0.17630983685E-02  0.32353822419E-02  0.00000000000E+00 0.  1.
     999901    1    1    0    0    0 -0.32226251705E-02  0.41246849120E-02 -0.13473397495E-01  0.90011606517E+00  0.90000000000E+00 0.  1.
     999903    1    1    0    0    0  0.51675721793E-02 -0.44965213406E-02  0.13076891346E-01  0.24858149442E-01  0.20000000000E-01 0.  0.
</event>
<event>
 7    1  0.4717691E-066  0.9118800E+02  0.7957747E-01            NaN
     999900   -1    0    0    0    0  0.00000000000E+00  0.00000000000E+00  0.99999998245E-14  0.93827000000E+00  0.93827000000E+00 0. -1.
        -11    1    1    0    0    0  0.81637712961E-02 -0.98023393840E-03 -0.31387412718E-02  0.88159422707E-02  0.51100000000E-03 0. -1.
        -14    1    1    0    0    0 -0.32177428775E-02 -0.11179455153E-03  0.65262195067E-03  0.32851609790E-02  0.00000000000E+00 0. -1.
         12    1    1    0    0    0  0.10094302045E-02 -0.85739786849E-03 -0.32563437803E-04  0.13248172780E-02  0.00000000000E+00 0.  1.
         14    1    1    0    0    0  0.24542924919E-02  0.96862256306E-03  0.32926562159E-02  0.42194035434E-02  0.00000000000E+00 0.  1.
     999901    1    1    0    0    0 -0.92140096357E-02  0.49821065356E-02 -0.32179235037E-02  0.90006670552E+00  0.90000000000E+00 0.  1.
     999903    1    1    0    0    0  0.80425852059E-03 -0.40013027403E-02  0.24439500467E-02  0.20557970406E-01  0.20000000000E-01 0.  0.
</event>
<event>
 7    1  0.4717691E-066  0.9118800E+02  0.7957747E-01            NaN
     999900   -1    0    0    0    0  0.00000000000E+00  0.00000000000E+00  0.99999998245E-14  0.93827000000E+00  0.93827000000E+00 0.  1.
        -11    1    1    0    0    0 -0.95678129878E-03 -0.29623640689E-02  0.33160915924E-05  0.31547049508E-02  0.51100000000E-03 0. -1.
        -14    1    1    0    0    0 -0.19452795700E-02  0.16811566949E-02 -0.30219095370E-03  0.25887680103E-02  0.00000000000E+00 0. -1.
         12    1    1    0    0    0 -0.57963197732E-03 -0.82609725473E-03  0.16298459674E-03  0.10222396403E-02  0.00000000000E+00 0.  1.
         14    1    1    0    0    0 -0.38969602105E-02  0.75187556408E-02  0.35167050999E-02  0.91697982545E-02  0.00000000000E+00 0.  1.
     999901    1    1    0    0    0  0.14987735827E-01 -0.32617823129E-02 -0.87297540659E-02  0.90017302784E+00  0.90000000000E+00 0. -1.
     999903    1    1    0    0    0 -0.76090827704E-02 -0.21496686992E-02  0.53489392314E-02  0.22161461302E-01  0.20000000000E-01 0.  0.
</event>
<event>
 7    1  0.4717691E-066  0.9118800E+02  0.7957747E-01            NaN
     999900   -1    0    0    0    0  0.00000000000E+00  0.00000000000E+00  0.99999998245E-14  0.93827000000E+00  0.93827000000E+00 0.  1.
        -11    1    1    0    0    0  0.23747153241E-02  0.63425126366E-03 -0.18701768541E-02  0.31305319040E-02  0.51100000000E-03 0. -1.
        -14    1    1    0    0    0  0.68531306038E-03 -0.19460402503E-02  0.59049371306E-03  0.21460217780E-02  0.00000000000E+00 0. -1.
         12    1    1    0    0    0  0.29854128914E-02  0.14674279244E-02 -0.14179344977E-03  0.33295855940E-02  0.00000000000E+00 0.  1.
         14    1    1    0    0    0 -0.12205787107E-02 -0.26627686195E-02 -0.80673211057E-03  0.30382504519E-02  0.00000000000E+00 0.  1.
     999901    1    1    0    0    0  0.51490065081E-02  0.11197639079E-01 -0.90423177277E-02  0.90012980336E+00  0.90000000000E+00 0. -1.
     999903    1    1    0    0    0 -0.99738690734E-02 -0.86905093972E-02  0.11270526429E-01  0.26495806911E-01  0.20000000000E-01 0.  0.
</event>
<event>
 7    1  0.4717691E-066  0.9118800E+02  0.7957747E-01            NaN
     999900   -1    0    0    0    0  0.00000000000E+00  0.00000000000E+00  0.99999998245E-14  0.93827000000E+00  0.93827000000E+00 0. -1.
        -11    1    1    0    0    0  0.23187301489E-02 -0.30486797685E-02 -0.50597708420E-03  0.38971902242E-02  0.51100000000E-03 0. -1.
        -14    1    1    0    0    0 -0.23327848590E-02 -0.19603385036E-02  0.33475248405E-02  0.45266692838E-02  0.00000000000E+00 0. -1.
         12    1    1    0    0    0  0.13328552751E-02  0.46355363147E-02 -0.21913941992E-02  0.52978211225E-02  0.00000000000E+00 0.  1.
         14    1    1    0    0    0  0.59253907203E-03 -0.23393136021E-02  0.21846907770E-02  0.32552057496E-02  0.00000000000E+00 0.  1.
     999901    1    1    0    0    0  0.35534523545E-02  0.66551134358E-02 -0.52815876457E-02  0.90004711695E+00  0.90000000000E+00 0.  1.
     999903    1    1    0    0    0 -0.54647919916E-02 -0.39423178762E-02  0.24467433117E-02  0.21245996672E-01  0.20000000000E-01 0.  0.
</event>
<event>
 7    1  0.4717691E-066  0.9118800E+02  0.7957747E-01            NaN
     999900   -1    0    0    0    0  0.00000000000E+00  0.00000000000E+00  0.99999998245E-14  0.93827000000E+00  0.93827000000E+00 0. -1.
        -11    1    1    0    0    0 -0.31332138254E-02 -0.19326180251E-02  0.15488513479E-02  0.40264255618E-02  0.51100000000E-03 0. -1.
        -14    1    1    0    0    0  0.42401953063E-03  0.82982326353E-03  0.17051890472E-02  0.19432109761E-02  0.00000000000E+00 0. -1.
         12    1    1    0    0    0  0.16295607587E-02 -0.27440793566E-02 -0.11484990737E-02  0.33918269272E-02  0.00000000000E+00 0.  1.
         14    1    1    0    0    0 -0.15260786759E-02  0.30715712519E-02  0.69308446405E-03  0.34991187684E-02  0.00000000000E+00 0.  1.
     999901    1    1    0    0    0 -0.46505232734E-02 -0.11855142816E-01  0.25588943309E-02  0.90009372830E+00  0.90000000000E+00 0.  1.
     999903    1    1    0    0    0  0.72562354853E-02  0.12630445683E-01 -0.53575201163E-02  0.25315689470E-01  0.20000000000E-01 0.  0.
</event>
<event>
 7    1  0.4717691E-066  0.9118800E+02  0.7957747E-01            NaN
     999900   -1    0    0    0    0  0.00000000000E+00  0.00000000000E+00  0.99999998245E-14  0.93827000000E+00  0.93827000000E+00 0. -1.
        -11    1    1    0    0    0  0.49100974910E-02  0.69378303861E-03 -0.33774917990E-02  0.60215416737E-02  0.51100000000E-03 0. -1.
        -14    1    1    0    0    0  0.14124573695E-02 -0.50902128639E-03  0.35341541081E-02  0.38398416309E-02  0.00000000000E+00 0. -1.
         12    1    1    0    0    0  0.10646896606E-02  0.19106119593E-02 -0.35261410726E-02  0.41494183925E-02  0.00000000000E+00 0.  1.
         14    1    1    0    0    0  0.94854584454E-04 -0.94344047251E-03  0.10243873599E-02  0.13958677518E-02  0.00000000000E+00 0.  1.
     999901    1    1    0    0    0  0.21697003889E-02 -0.38445257871E-02 -0.23125759362E-02  0.90001379766E+00  0.90000000000E+00 0. -1.
     999903    1    1    0    0    0 -0.96517994944E-02  0.26925925480E-02  0.46576673398E-02  0.22849532887E-01  0.20000000000E-01 0.  0.
</event>
<event>
 7    1  0.4717691E-066  0.9118800E+02  0.7957747E-01            NaN
     999900   -1    0    0    0    0  0.00000000000E+00  0.00000000000E+00  0.99999998245E-14  0.93827000000E+00  0.93827000000E+00 0. -1.
        -11    1    1    0    0    0  0.16916745385E-02 -0.24411056185E-03 -0.10772993532E-03  0.17871987717E-02  0.51100000000E-03 0. -1.
        -14    1    1    0    0    0 -0.36504668072E-02 -0.34871827369E-02 -0.32504300026E-02  0.60043023369E-02  0.00000000000E+00 0. -1.
         12    1    1    0    0    0 -0.20397870756E-02  0.11793011787E-02  0.39487997220E-02  0.45983151075E-02  0.00000000000E+00 0.  1.
         14    1    1    0    0    0  0.31862149437E-02  0.34985688833E-02 -0.21011709880E-02  0.51775350718E-02  0.00000000000E+00 0.  1.
     999901    1    1    0    0    0  0.48090886631E-02  0.22144888800E-02  0.28528850295E-02  0.90002009436E+00  0.90000000000E+00 0. -1.
     999903    1    1    0    0    0 -0.39967242624E-02 -0.31610656433E-02 -0.13423538255E-02  0.20682554354E-01  0.20000000000E-01 0.  0.
</event>
<event>
 7    1  0.4717691E-066  0.9118800E+02  0.7957747E-01            NaN
     999900   -1    0    0    0    0  0.00000000000E+00  0.00000000000E+00  0.99999998245E-14  0.93827000000E+00  0.93827000000E+00 0.  1.
        -11    1    1    0    0    0  0.45514494317E-06 -0.82986359062E-03 -0.27384234531E-03  0.10123163618E-02  0.51100000000E-03 0. -1.
        -14    1    1    0    0    0  0.82846529586E-03  0.48121860345E-03  0.13675064885E-02  0.16697305432E-02  0.00000000000E+00 0. -1.
         12    1    1    0    0    0 -0.60482706316E-03 -0.21045262219E-02 -0.51904680594E-03  0.22503901843E-02  0.00000000000E+00 0.  1.
         14    1    1    0    0    0 -0.40611594985E-02 -0.50254513442E-02 -0.81943735733E-02  0.10435321554E-01  0.00000000000E+00 0.  1.
     999901    1    1    0    0    0  0.50492009007E-02 -0.31318794997E-02  0.10245985833E-01  0.90007793181E+00  0.90000000000E+00 0.  1.
     999903    1    1    0    0    0 -0.12121347798E-02  0.10610502053E-01 -0.26262295971E-02  0.22824309550E-01  0.20000000000E-01 0.  0.
</event>
<event>
 7    1  0.4717691E-066  0.9118800E+02  0.7957747E-01            NaN
     999900   -1    0    0    0    0  0.00000000000E+00  0.00000000000E+00  0.99999998245E-14  0.93827000000E+00  0.93827000000E+00 0. -1.
        -11    1    1    0    0    0 -0.16649611115E-02  0.78833648948E-05  0.37521968654E-02  0.41366967458E-02  0.51100000000E-03 0. -1.
        -14    1    1    0    0    0  0.91723063633E-03 -0.54841927974E-03 -0.24839861828E-03  0.10971680000E-02  0.00000000000E+00 0. -1.
         12    1    1    0    0    0 -0.46715746914E-02 -0.18879488913E-02 -0.12228152306E-03  0.50401303440E-02  0.00000000000E+00 0.  1.
         14    1    1    0    0    0  0.62315875980E-03  0.29020190095E-02  0.16101439814E-02  0.33767743206E-02  0.00000000000E+00 0.  1.
     999901    1    1    0    0    0 -0.12960416234E-03  0.12810807059E-01 -0.53301157053E-02  0.90010696237E+00  0.90000000000E+00 0.  1.
     999903    1    1    0    0    0  0.49257505691E-02 -0.13284341263E-01  0.33845499986E-03  0.24512268219E-01  0.20000000000E-01 0.  0.
</event>
<event>
 7    1  0.4717691E-066  0.9118800E+02  0.7957747E-01            NaN
     999900   -1    0    0    0    0  0.00000000000E+00  0.00000000000E+00  0.99999998245E-14  0.93827000000E+00  0.93827000000E+00 0.  1.
        -11    1    1    0    0    0 -0.20903250438E-02 -0.84379805714E-03  0.67900972140E-03  0.24090722596E-02  0.51100000000E-03 0. -1.
        -14    1    1    0    0    0 -0.33284523966E-02  0.13320711949E-02  0.29693149421E-04  0.35852323088E-02  0.00000000000E+00 0. -1.
         12    1    1    0    0    0 -0.14901669891E-02 -0.27044780010E-03  0.13171675166E-02  0.20071546863E-02  0.00000000000E+00 0.  1.
         14    1    1    0    0    0 -0.53715696148E-02  0.33820273147E-02 -0.24229624586E-02  0.67943076144E-02  0.00000000000E+00 0.  1.
     999901    1    1    0    0    0  0.23600520050E-01 -0.59195841468E-02  0.18454808416E-02  0.90033073469E+00  0.90000000000E+00 0. -1.
     999903    1    1    0    0    0 -0.11320006006E-01  0.23197314945E-02 -0.14483887705E-02  0.23143498444E-01  0.20000000000E-01 0.  0.
</event>
<event>
 7    1  0.4717691E-066  0.9118800E+02  0.7957747E-01            NaN
     999900   -1    0    0    0    0  0.00000000000E+00  0.00000000000E+00  0.99999998245E-14  0.93827000000E+00  0.93827000000E+00 0. -1.
        -11    1    1    0    0    0  0.76819491798E-03 -0.31258967700E-02  0.16221917373E-03  0.32632483983E-02  0.51100000000E-03 0. -1.
        -14    1    1    0    0    0  0.12148762822E-02  0.23009064999E-02  0.38531768558E-03  0.26303164869E-02  0.00000000000E+00 0. -1.
         12    1    1    0    0    0  0.42923006728E-02 -0.21310356620E-02  0.15882876436E-02  0.50485458993E-02  0.00000000000E+00 0.  1.
         14    1    1    0    0    0  0.11219046541E-02  0.80929151746E-03 -0.38482607091E-02  0.40893438714E-02  0.00000000000E+00 0.  1.
     999901    1    1    0    0    0  0.22677583067E-02 -0.44818275512E-02  0.28910870124E-03  0.90001406272E+00  0.90000000000E+00 0.  1.
     999903    1    1    0    0    0 -0.96650348338E-02  0.66285619658E-02  0.14233275050E-02  0.23224482626E-01  0.20000000000E-01 0.  0.
</event>
<event>
 7    1  0.4717691E-066  0.9118800E+02  0.7957747E-01            NaN
     999900   -1    0    0    0    0  0.00000000000E+00  0.00000000000E+00  0.99999998245E-14  0.93827000000E+00  0.93827000000E+00 0. -1.
        -11    1    1    0    0    0 -0.35929747355E-02  0.16613765994E-02 -0.14008214424E-02  0.42300190743E-02  0.51100000000E-03 0. -1.
        -14    1    1    0    0    0  0.39520086902E-02  0.11959847538E-02  0.41371060587E-02  0.58450319725E-02  0.00000000000E+00 0. -1.
         12    1    1    0    0    0  0.14175126301E-02 -0.28044623693E-02  0.22467571763E-02  0.38629352889E-02  0.00000000000E+00 0.  1.
         14    1    1    0    0    0  0.20801835942E-02 -0.21187880522E-02  0.81404051264E-03  0.30788128478E-02  0.00000000000E+00 0.  1.
     999901    1    1    0    0    0 -0.10436920022E-01  0.41002914617E-02 -0.63794834473E-02  0.90009246164E+00  0.90000000000E+00 0.  1.
     999903    1    1    0    0    0  0.65801898427E-02 -0.20344023935E-02  0.58240114206E-03  0.21160739178E-01  0.20000000000E-01 0.  0.
</event>
<event>
 7    1  0.4717691E-066  0.9118800E+02  0.7957747E-01            NaN
     999900   -1    0    0    0    0  0.00000000000E+00  0.00000000000E+00  0.99999998245E-14  0.93827000000E+00  0.93827000000E+00 0. -1.
        -11    1    1    0    0    0  0.14590304368E-02  0.28752740008E-02  0.27607455749E-03  0.32761728520E-02  0.51100000000E-03 0. -1.
        -14    1    1    0    0    0 -0.20448875460E-03  0.24414346563E-03 -0.11904767982E-02  0.12323378959E-02  0.00000000000E+00 0. -1.
         12    1    1    0    0    0  0.27991766473E-02 -0.21242076385E-02 -0.28029879387E-02  0.44949292963E-02  0.00000000000E+00 0.  1.
         14    1    1    0    0    0  0.13812389515E-02 -0.97503962736E-03  0.21771757410E-02  0.27565590005E-02  0.00000000000E+00 0.  1.
     999901    1    1    0    0    0  0.15752427063E-02  0.12078484994E-01 -0.84985822515E-02  0.90012254560E+00  0.90000000000E+00 0.  1.
     999903    1    1    0    0    0 -0.70101999873E-02 -0.12098655194E-01  0.10038796690E-01  0.26387455360E-01  0.20000000000E-01 0.  0.
</event>
<event>
 7    1  0.4717691E-066  0.9118800E+02  0.7957747E-01            NaN
     999900   -1    0    0    0    0  0.00000000000E+00  0.00000000000E+00  0.99999998245E-14  0.93827000000E+00  0.93827000000E+00 0.  1.
        -11    1    1    0    0    0  0.27478733512E-02 -0.30957233494E-02  0.21675713413E-02  0.47004039752E-02  0.51100000000E-03 0. -1.
        -14    1    1    0    0    0 -0.11590295036E-02  0.16135962569E-02 -0.20323761835E-02  0.28421110502E-02  0.00000000000E+00 0. -1.
         12    1    1    0    0    0 -0.12022805052E-02  0.30542952065E-03 -0.20515195214E-02  0.23973939918E-02  0.00000000000E+00 0.  1.
         14    1    1    0    0    0  0.18045031817E-02  0.11243185308E-02  0.63095840995E-03  0.22177539103E-02  0.00000000000E+00 0.  1.
     999901    1    1    0    0    0 -0.85768485444E-03 -0.45811363447E-02 -0.14583576037E-01  0.90013021454E+00  0.90000000000E+00 0. -1.
     999903    1    1    0    0    0 -0.13333816697E-02  0.46335153858E-02  0.15868941991E-01  0.25982122535E-01  0.20000000000E-01 0.  0.
</event>
<event>
 7    1  0.4717691E-066  0.9118800E+02  0.7957747E-01            NaN
     999900   -1    0    0    0    0  0.00000000000E+00  0.00000000000E+00  0.99999998245E-14  0.93827000000E+00  0.93827000000E+00 0. -1.
        -11    1    1    0    0    0  0.14669772548E-03 -0.36366772677E-02  0.71901227886E-03  0.37450021935E-02  0.51100000000E-03 0. -1.
        -14    1    1    0    0    0 -0.30075966702E-02  0.12213301742E-02 -0.73342612409E-03  0.33279421576E-02  0.00000000000E+00 0. -1.
         12    1    1    0    0    0 -0.63744154852E-03 -0.85261433948E-03 -0.17610748560E-04  0.10647032817E-02  0.00000000000E+00 0.  1.
         14    1    1    0    0    0  0.10525798427E-02 -0.26207687721E-03  0.46347276502E-02  0.47599694333E-02  0.00000000000E+00 0.  1.
     999901    1    1    0    0    0  0.13798603053E-01  0.22049990742E-02 -0.14681742562E-01  0.90022820275E+00  0.90000000000E+00 0.  1.
     999903    1    1    0    0    0 -0.11352842403E-01  0.13250392361E-02  0.10079039506E-01  0.25144180181E-01  0.20000000000E-01 0.  0.
</event>
<event>
 7    1  0.4717691E-066  0.9118800E+02  0.7957747E-01            NaN
     999900   -1    0    0    0    0  0.00000000000E+00  0.00000000000E+00  0.99999998245E-14  0.93827000000E+00  0.93827000000E+00 0. -1.
        -11    1    1    0    0    0 -0.94340219723E-03  0.94611334261E-03 -0.14187630981E-02  0.20147327097E-02  0.51100000000E-03 0. -1.
        -14    1    1    0    0    0  0.52938617702E-02 -0.10998752074E-02  0.43435651440E-03  0.54243306956E-02  0.00000000000E+00 0. -1.
         12    1    1    0    0    0  0.92098267759E-03  0.15412874499E-02  0.27301624314E-03  0.18161260872E-02  0.00000000000E+00 0.  1.
         14    1    1    0    0    0 -0.25341486589E-02 -0.24160367727E-02  0.68226702817E-03  0.35671601324E-02  0.00000000000E+00 0.  1.
     999901    1    1    0    0    0 -0.15208293490E-01  0.10110605523E-01  0.44404400733E-03  0.90018537741E+00  0.90000000000E+00 0.  1.
     999903    1    1    0    0    0  0.12470999898E-01 -0.90820943357E-02 -0.41492069493E-03  0.25262272961E-01  0.20000000000E-01 0.  0.
</event>
<event>
 7    1  0.4717691E-066  0.9118800E+02  0.7957747E-01            NaN
     999900   -1    0    0    0    0  0.00000000000E+00  0.00000000000E+00  0.99999998245E-14  0.93827000000E+00  0.93827000000E+00 0.  1.
        -11    1    1    0    0    0  0.15529883629E-03 -0.11374893947E-02 -0.40249544296E-03  0.13195163634E-02  0.51100000000E-03 0. -1.
        -14    1    1    0    0    0  0.18423611353E-02  0.55669866940E-02  0.51028181122E-03  0.58860872344E-02  0.00000000000E+00 0. -1.
         12    1    1    0    0    0 -0.95416150332E-03  0.83661929597E-03 -0.12619261197E-02  0.17896406210E-02  0.00000000000E+00 0.  1.
         14    1    1    0    0    0  0.39352646368E-02  0.43566768210E-02 -0.57847911809E-02  0.82420112649E-02  0.00000000000E+00 0.  1.
     999901    1    1    0    0    0 -0.24814311703E-02 -0.60091068406E-02  0.22511319623E-02  0.90002629654E+00  0.90000000000E+00 0.  1.
     999903    1    1    0    0    0 -0.24973319347E-02 -0.36136865756E-02  0.46877989701E-02  0.21006447978E-01  0.20000000000E-01 0.  0.
</event>
<event>
 7    1  0.4717691E-066  0.9118800E+02  0.7957747E-01            NaN
     999900   -1    0    0    0    0  0.00000000000E+00  0.00000000000E+00  0.99999998245E-14  0.93827000000E+00  0.93827000000E+00 0.  1.
        -11    1    1    0    0    0 -0.13353812273E-02 -0.82271595921E-03 -0.57187814500E-03  0.17459296047E-02  0.51100000000E-03 0. -1.
        -14    1    1    0    0    0 -0.19327737595E-02  0.21523231403E-02 -0.65440143211E-03  0.29658642147E-02  0.00000000000E+00 0. -1.
         12    1    1    0    0    0  0.18223583274E-04  0.53533500920E-02  0.26918890936E-02  0.59920744487E-02  0.00000000000E+00 0.  1.
         14    1    1    0    0    0  0.15012916650E-02 -0.43065226496E-02 -0.17806327407E-02  0.48959847786E-02  0.00000000000E+00 0.  1.
     999901    1    1    0    0    0 -0.33887993085E-02 -0.11106328216E-01  0.30900840798E-02  0.90008020926E+00  0.90000000000E+00 0.  1.
     999903    1    1    0    0    0  0.51374390471E-02  0.87298935926E-02 -0.27750608557E-02  0.22589937690E-01  0.20000000000E-01 0.  0.
</event>
<event>
 7    1  0.4717691E-066  0.9118800E+02  0.7957747E-01            NaN
     999900   -1    0    0    0    0  0.00000000000E+00  0.00000000000E+00  0.99999998245E-14  0.93827000000E+00  0.93827000000E+00 0.  1.
        -11    1    1    0    0    0  0.96804966495E-03  0.14233474744E-02  0.13939658936E-02  0.22731696152E-02  0.51100000000E-03 0. -1.
        -14    1    1    0    0    0 -0.22784632643E-02 -0.21863154765E-03 -0.15061607384E-02  0.27400209434E-02  0.00000000000E+00 0. -1.
         12    1    1    0    0    0  0.26976824274E-02 -0.88749274252E-03 -0.59673793428E-02  0.66086874694E-02  0.00000000000E+00 0.  1.
         14    1    1    0    0    0  0.25242791767E-02 -0.17041501249E-02 -0.25426805599E-04  0.30457773281E-02  0.00000000000E+00 0.  1.
     999901    1    1    0    0    0 -0.60410903745E-02  0.92466493490E-02 -0.32380059964E-02  0.90007359698E+00  0.90000000000E+00 0. -1.
     999903    1    1    0    0    0  0.21295423697E-02 -0.78597224083E-02  0.93430069896E-02  0.23528747664E-01  0.20000000000E-01 0.  0.
</event>
<event>
 7    1  0.4717691E-066  0.9118800E+02  0.7957747E-01            NaN
     999900   -1    0    0    0    0  0.00000000000E+00  0.00000000000E+00  0.99999998245E-14  0.93827000000E+00  0.93827000000E+00 0.  1.
        -11    1    1    0    0    0  0.53712654687E-02  0.23698388419E-02  0.23674004888E-02  0.63507743580E-02  0.51100000000E-03 0. -1.
        -14    1    1    0    0    0  0.30039432949E-03 -0.16097497865E-03 -0.19879062449E-02  0.20169087574E-02  0.00000000000E+00 0. -1.
         12    1    1    0    0    0 -0.22889588597E-02 -0.16404687482E-02 -0.20218450025E-03  0.28233577435E-02  0.00000000000E+00 0.  1.
         14    1    1    0    0    0  0.11208512213E-02  0.16329609041E-02 -0.17379289580E-02  0.26350077491E-02  0.00000000000E+00 0.  1.
     999901    1    1    0    0    0 -0.13846739739E-01  0.18319546833E-02 -0.77682142613E-02  0.90014189627E+00  0.90000000000E+00 0. -1.
     999903    1    1    0    0    0  0.93431875793E-02 -0.40333107025E-02  0.93288334758E-02  0.24302055127E-01  0.20000000000E-01 0.  0.
</event>
<event>
 7    1  0.4717691E-066  0.9118800E+02  0.7957747E-01            NaN
     999900   -1    0    0    0    0  0.00000000000E+00  0.00000000000E+00  0.99999998245E-14  0.93827000000E+00  0.93827000000E+00 0.  1.
        -11    1    1    0    0    0 -0.14133773863E-02 -0.95118190009E-03 -0.14597883335E-02  0.23009749285E-02  0.51100000000E-03 0. -1.
        -14    1    1    0    0    0  0.13344827223E-02  0.14393259318E-02  0.28635272505E-02  0.34716410512E-02  0.00000000000E+00 0. -1.
         12    1    1    0    0    0 -0.46452495844E-02  0.19377842983E-02 -0.20226529717E-02  0.54244333097E-02  0.00000000000E+00 0.  1.
         14    1    1    0    0    0  0.29601569390E-02  0.40211283393E-03 -0.85337043122E-03  0.31068416322E-02  0.00000000000E+00 0.  1.
     999901    1    1    0    0    0  0.19511538681E-02 -0.35206687592E-02 -0.11561361258E-01  0.90008325570E+00  0.90000000000E+00 0. -1.
     999903    1    1    0    0    0 -0.18716655881E-03  0.69262759524E-03  0.13033645744E-01  0.23882853382E-01  0.20000000000E-01 0.  0.
</event>
<event>
 7    1  0.4717691E-066  0.9118800E+02  0.7957747E-01            NaN
     999900   -1    0    0    0    0  0.00000000000E+00  0.00000000000E+00  0.99999998245E-14  0.93827000000E+00  0.93827000000E+00 0. -1.
        -11    1    1    0    0    0 -0.67315180799E-02 -0.16392229405E-03  0.12732376187E-02  0.68718600984E-02  0.51100000000E-03 0. -1.
        -14    1    1    0    0    0  0.91311108765E-03 -0.18761767122E-02 -0.69576294506E-03  0.21995219911E-02  0.00000000000E+00 0. -1.
         12    1    1    0    0    0  0.24726084273E-02 -0.19832714730E-02  0.55344984543E-02  0.63779174745E-02  0.00000000000E+00 0.  1.
         14    1    1    0    0    0 -0.17917471516E-02  0.37749977580E-03  0.65539051565E-03  0.19448394957E-02  0.00000000000E+00 0.  1.
     999901    1    1    0    0    0  0.11252586957E-02  0.23350065751E-03 -0.40002083619E-02  0.90000962350E+00  0.90000000000E+00 0.  1.
     999903    1    1    0    0    0  0.40122870208E-02  0.34123700459E-02 -0.27671552817E-02  0.20866237438E-01  0.20000000000E-01 0.  0.
</event>
<event>
 7    1  0.4717691E-066  0.9118800E+02  0.7957747E-01            NaN
     999900   -1    0    0    0    0  0.00000000000E+00  0.00000000000E+00  0.99999998245E-14  0.93827000000E+00  0.93827000000E+00 0. -1.
        -11    1    1    0    0    0 -0.21053180016E-03 -0.21100637179E-02 -0.35747730774E-02  0.41876981848E-02  0.51100000000E-03 0. -1.
        -14    1    1    0    0    0  0.71967492180E-04  0.28693003488E-02 -0.14968822029E-02  0.32370851303E-02  0.00000000000E+00 0. -1.
         12    1    1    0    0    0 -0.46408313138E-03  0.48555008391E-02 -0.33812692638E-02  0.59350015489E-02  0.00000000000E+00 0.  1.
         14    1    1    0    0    0 -0.26928827224E-02 -0.10745861188E-02 -0.46011421242E-03  0.29356528697E-02  0.00000000000E+00 0.  1.
     999901    1    1    0    0    0  0.56270759148E-02 -0.93422379237E-02  0.15660973324E-01  0.90020231475E+00  0.90000000000E+00 0. -1.
     999903    1    1    0    0    0 -0.23315457531E-02  0.48020865725E-02 -0.67479345679E-02  0.21772247518E-01  0.20000000000E-01 0.  0.
</event>
<event>
 7    1  0.4717691E-066  0.9118800E+02  0.7957747E-01            NaN
     999900   -1    0    0    0    0  0.00000000000E+00  0.00000000000E+00  0.99999998245E-14  0.93827000000E+00  0.93827000000E+00 0. -1.
        -11    1    1    0    0    0  0.10813459628E-02 -0.28168455047E-02 -0.33182301015E-02  0.45139450257E-02  0.51100000000E-03 0. -1.
        -14    1    1    0    0    0 -0.94386311916E-04  0.49292203496E-02  0.38800100978E-02  0.62738027057E-02  0.00000000000E+00 0. -1.
         12    1    1    0    0    0  0.51360439969E-03 -0.19421760439E-03  0.15140953179E-02  0.16105882742E-02  0.00000000000E+00 0.  1.
         14    1    1    0    0    0  0.13547214459E-03 -0.11363038109E-02  0.20540543216E-02  0.23513141451E-02  0.00000000000E+00 0.  1.
     999901    1    1    0    0    0  0.10180647986E-01  0.12221688703E-02 -0.65185459846E-02  0.90008201334E+00  0.90000000000E+00 0.  1.
     999903    1    1    0    0    0 -0.11816684182E-01 -0.20040222998E-02  0.23886163489E-02  0.23438336513E-01  0.20000000000E-01 0.  0.
</event>
<event>
 7    1  0.4717691E-066  0.9118800E+02  0.7957747E-01            NaN
     999900   -1    0    0    0    0  0.00000000000E+00  0.00000000000E+00  0.99999998245E-14  0.93827000000E+00  0.93827000000E+00 0.  1.
        -11    1    1    0    0    0  0.18871948401E-02 -0.17267591828E-02 -0.95369416493E-03  0.27773827968E-02  0.51100000000E-03 0. -1.
        -14    1    1    0    0    0  0.19280561558E-02  0.21951642609E-02  0.43686847049E-02  0.52556210597E-02  0.00000000000E+00 0. -1.
         12    1    1    0    0    0  0.58554022051E-03  0.27591902984E-02  0.40200536354E-02  0.49108878713E-02  0.00000000000E+00 0.  1.
         14    1    1    0    0    0 -0.21140130849E-02 -0.21825837727E-02  0.54615739930E-03  0.30872335760E-02  0.00000000000E+00 0.  1.
     999901    1    1    0    0    0 -0.34020105894E-02 -0.61485431192E-02 -0.15725547857E-01  0.90016480220E+00  0.90000000000E+00 0. -1.
     999903    1    1    0    0    0  0.11152324579E-02  0.51035315154E-02  0.77443462826E-02  0.22074072499E-01  0.20000000000E-01 0.  0.
</event>
<event>
 7    1  0.4717691E-066  0.9118800E+02  0.7957747E-01            NaN
     999900   -1    0    0    0    0  0.00000000000E+00  0.00000000000E+00  0.99999998245E-14  0.93827000000E+00  0.93827000000E+00 0.  1.
        -11    1    1    0    0    0 -0.76695001176E-03 -0.23216616490E-02 -0.33463517841E-02  0.41758252353E-02  0.51100000000E-03 0. -1.
        -14    1    1    0    0    0 -0.24735991862E-03  0.48698671794E-03  0.20621283474E-02  0.21332408007E-02  0.00000000000E+00 0. -1.
         12    1    1    0    0    0  0.22418391514E-02 -0.47309838615E-02  0.24066471386E-02  0.57619442490E-02  0.00000000000E+00 0.  1.
         14    1    1    0    0    0 -0.28255117932E-02  0.37048420502E-02  0.13081965610E-02  0.48394989155E-02  0.00000000000E+00 0.  1.
     999901    1    1    0    0    0 -0.56411977669E-02  0.36748374555E-02 -0.99503054580E-03  0.90002573165E+00  0.90000000000E+00 0.  1.
     999903    1    1    0    0    0  0.72391803391E-02 -0.81402071320E-03 -0.14355897170E-02  0.21333759152E-01  0.20000000000E-01 0.  0.
</event>
<event>
 7    1  0.4717691E-066  0.9118800E+02  0.7957747E-01            NaN
     999900   -1    0    0    0    0  0.00000000000E+00  0.00000000000E+00  0.99999998245E-14  0.93827000000E+00  0.93827000000E+00 0. -1.
        -11    1    1    0    0    0  0.12443649596E-02  0.57654162984E-03 -0.43157507614E-04  0.14641816739E-02  0.51100000000E-03 0. -1.
        -14    1    1    0    0    0 -0.42047848762E-02  0.11235576244E-03 -0.12054718584E-03  0.42080127491E-02  0.00000000000E+00 0. -1.
         12    1    1    0    0    0 -0.13501606953E-03 -0.19461400615E-02  0.67042957926E-03  0.20628054438E-02  0.00000000000E+00 0.  1.
         14    1    1    0    0    0  0.28555707251E-02  0.11519429164E-03 -0.65653138375E-02  0.71603700795E-02  0.00000000000E+00 0.  1.
     999901    1    1    0    0    0  0.47441509637E-02 -0.97972044123E-03  0.16723430151E-01  0.90016839532E+00  0.90000000000E+00 0. -1.
     999903    1    1    0    0    0 -0.45042857028E-02  0.21217688188E-02 -0.10664841200E-01  0.23206234732E-01  0.20000000000E-01 0.  0.
</event>
<event>
 7    1  0.4717691E-066  0.9118800E+02  0.7957747E-01            NaN
     999900   -1    0    0    0    0  0.00000000000E+00  0.00000000000E+00  0.99999998245E-14  0.93827000000E+00  0.93827000000E+00 0. -1.
        -11    1    1    0    0    0  0.15172015566E-02 -0.48765963543E-03  0.59395680745E-03  0.17758429470E-02  0.51100000000E-03 0. -1.
        -14    1    1    0    0    0 -0.39228032740E-02  0.35499027467E-03 -0.89259472240E-03  0.40387038713E-02  0.00000000000E+00 0. -1.
         12    1    1    0    0    0 -0.21578991250E-02  0.51171387369E-02  0.43661365505E-02  0.70643319474E-02  0.00000000000E+00 0.  1.
         14    1    1    0    0    0  0.12980537942E-02 -0.43635542641E-03  0.27907441774E-02  0.31086335864E-02  0.00000000000E+00 0.  1.
     999901    1    1    0    0    0  0.98440326653E-02  0.20680189691E-02 -0.43091309101E-02  0.90006652548E+00  0.90000000000E+00 0.  1.
     999903    1    1    0    0    0 -0.65785856171E-02 -0.66161329187E-02 -0.25491119028E-02  0.22215962167E-01  0.20000000000E-01 0.  0.
</event>
<event>
 7    1  0.4717691E-066  0.9118800E+02  0.7957747E-01            NaN
     999900   -1    0    0    0    0  0.00000000000E+00  0.00000000000E+00  0.99999998245E-14  0.93827000000E+00  0.93827000000E+00 0. -1.
        -11    1    1    0    0    0  0.19598796786E-03  0.32606053880E-02  0.11804296850E-02  0.35106258732E-02  0.51100000000E-03 0. -1.
        -14    1    1    0    0    0 -0.11628902970E-02 -0.23641293295E-02 -0.63055042071E-03  0.27090616757E-02  0.00000000000E+00 0. -1.
         12    1    1    0    0    0 -0.93219683953E-05  0.22663223082E-02 -0.16920380801E-03  0.22726490341E-02  0.00000000000E+00 0.  1.
         14    1    1    0    0    0 -0.13041097469E-03 -0.80931089988E-02 -0.26804063024E-02  0.85264293954E-02  0.00000000000E+00 0.  1.
     999901    1    1    0    0    0 -0.37077712346E-02  0.86919014435E-02  0.56792896075E-02  0.90006752583E+00  0.90000000000E+00 0. -1.
     999903    1    1    0    0    0  0.48144065069E-02 -0.37615908115E-02 -0.33795587613E-02  0.21183708194E-01  0.20000000000E-01 0.  0.
</event>
<event>
 7    1  0.4717691E-066  0.9118800E+02  0.7957747E-01            NaN
     999900   -1    0    0    0    0  0.00000000000E+00  0.00000000000E+00  0.99999998245E-14  0.93827000000E+00  0.93827000000E+00 0.  1.
        -11    1    1    0    0    0 -0.76017374885E-03  0.25917967586E-02 -0.10763738000E-02  0.29521138399E-02  0.51100000000E-03 0. -1.
        -14    1    1    0    0    0 -0.41020148729E-02  0.94251080945E-03  0.36809726604E-02  0.55914588767E-02  0.00000000000E+00 0. -1.
         12    1    1    0    0    0  0.20300489599E-03 -0.51977589620E-03  0.53444015448E-02  0.53734538094E-02  0.00000000000E+00 0.  1.
         14    1    1    0    0    0  0.21211825839E-02 -0.84703029615E-03 -0.50067452864E-03  0.23382794658E-02  0.00000000000E+00 0.  1.
     999901    1    1    0    0    0 -0.40291603468E-02  0.21429630915E-02 -0.27316171476E-02  0.90001571551E+00  0.90000000000E+00 0.  1.
     999903    1    1    0    0    0  0.65671614887E-02 -0.43104644672E-02 -0.47167087290E-02  0.21998978503E-01  0.20000000000E-01 0.  0.
</event>
<event>
 7    1  0.4717691E-066  0.9118800E+02  0.7957747E-01            NaN
     999900   -1    0    0    0    0  0.00000000000E+00  0.00000000000E+00  0.99999998245E-14  0.93827000000E+00  0.93827000000E+00 0. -1.
        -11    1    1    0    0    0 -0.43952357856E-02 -0.10783876686E-03  0.17428882986E-02  0.47569430764E-02  0.51100000000E-03 0. -1.
        -14    1    1    0    0    0 -0.29478205977E-04 -0.14838733527E-02  0.11214371795E-02  0.18602070958E-02  0.00000000000E+00 0. -1.
         12    1    1    0    0    0  0.16061549607E-02  0.94876735911E-03  0.31569339298E-03  0.18919713470E-02  0.00000000000E+00 0.  1.
         14    1    1    0    0    0 -0.75654599978E-03 -0.77512510226E-03  0.40795467777E-02  0.42208864810E-02  0.00000000000E+00 0.  1.
     999901    1    1    0    0    0  0.17547587070E-02  0.62445604027E-02  0.76677032713E-02  0.90005603569E+00  0.90000000000E+00 0.  1.
     999903    1    1    0    0    0  0.18203463236E-02 -0.48264905399E-02 -0.14927268920E-01  0.25483956308E-01  0.20000000000E-01 0.  0.
</event>
<event>
 7    1  0.4717691E-066  0.9118800E+02  0.7957747E-01            NaN
     999900   -1    0    0    0    0  0.00000000000E+00  0.00000000000E+00  0.99999998245E-14  0.93827000000E+00  0.93827000000E+00 0. -1.
        -11    1    1    0    0    0 -0.69461255238E-03 -0.20929568417E-02 -0.32590682236E-02  0.39680727847E-02  0.51100000000E-03 0. -1.
        -14    1    1    0    0    0  0.18875525401E-02  0.93420043416E-03 -0.79343485610E-03  0.22505830164E-02  0.00000000000E+00 0. -1.
         12    1    1    0    0    0 -0.15692592804E-02 -0.17943679972E-02 -0.50293651664E-03  0.24362422577E-02  0.00000000000E+00 0.  1.
         14    1    1    0    0    0  0.37858487160E-02 -0.49514298817E-02 -0.41470213407E-02  0.74864607375E-02  0.00000000000E+00 0.  1.
     999901    1    1    0    0    0 -0.26611134284E-02  0.82022011294E-02 -0.63518488861E-03  0.90004153298E+00  0.90000000000E+00 0.  1.
     999903    1    1    0    0    0 -0.74841599490E-03 -0.29764684294E-03  0.93376458256E-02  0.22087108224E-01  0.20000000000E-01 0.  0.
</event>
<event>
 7    1  0.4717691E-066  0.9118800E+02  0.7957747E-01            NaN
     999900   -1    0    0    0    0  0.00000000000E+00  0.00000000000E+00  0.99999998245E-14  0.93827000000E+00  0.93827000000E+00 0. -1.
        -11    1    1    0    0    0  0.35529193117E-03 -0.11905046970E-02  0.21267479745E-04  0.13435427405E-02  0.51100000000E-03 0. -1.
        -14    1    1    0    0    0  0.23092096848E-02  0.13079114124E-03 -0.31960717515E-03  0.23348885279E-02  0.00000000000E+00 0. -1.
         12    1    1    0    0    0  0.13193185490E-02  0.16623570546E-02  0.63274835489E-02  0.66739104333E-02  0.00000000000E+00 0.  1.
         14    1    1    0    0    0  0.42797759665E-02  0.24576373683E-03 -0.11776769285E-02  0.44456501308E-02  0.00000000000E+00 0.  1.
     999901    1    1    0    0    0 -0.17034477765E-01 -0.25264139819E-02  0.31006307819E-02  0.90017007844E+00  0.90000000000E+00 0. -1.
     999903    1    1    0    0    0  0.87708816335E-02  0.16780067462E-02 -0.79520977068E-02  0.23301929731E-01  0.20000000000E-01 0.  0.
</event>
<event>
 7    1  0.4717691E-066  0.9118800E+02  0.7957747E-01            NaN
     999900   -1    0    0    0    0  0.00000000000E+00  0.00000000000E+00  0.99999998245E-14  0.93827000000E+00  0.93827000000E+00 0.  1.
        -11    1    1    0    0    0  0.30689910817E-02  0.22676931070E-02 -0.20896468371E-02  0.43805117498E-02  0.51100000000E-03 0. -1.
        -14    1    1    0    0    0  0.89880926432E-03 -0.17390575149E-02  0.33804332448E-02  0.39063420301E-02  0.00000000000E+00 0. -1.
         12    1    1    0    0    0 -0.62254197307E-03  0.26985249200E-02 -0.19035456105E-02  0.33605179874E-02  0.00000000000E+00 0.  1.
         14    1    1    0    0    0  0.14327714077E-02 -0.38223467035E-02 -0.38782422423E-03  0.41004360570E-02  0.00000000000E+00 0.  1.
     999901    1    1    0    0    0 -0.12957689780E-01  0.99425056405E-03 -0.49455407268E-02  0.90010740950E+00  0.90000000000E+00 0.  1.
     999903    1    1    0    0    0  0.81796599989E-02 -0.39906437261E-03  0.59461241539E-02  0.22414782679E-01  0.20000000000E-01 0.  0.
</event>
<event>
 7    1  0.4717691E-066  0.9118800E+02  0.7957747E-01            NaN
     999900   -1    0    0    0    0  0.00000000000E+00  0.00000000000E+00  0.99999998245E-14  0.93827000000E+00  0.93827000000E+00 0. -1.
        -11    1    1    0    0    0  0.64285209388E-03 -0.17822168623E-02 -0.12803882582E-02  0.23430900219E-02  0.51100000000E-03 0. -1.
        -14    1    1    0    0    0 -0.41661957953E-02  0.92281467285E-03  0.70786428362E-02  0.82653468607E-02  0.00000000000E+00 0. -1.
         12    1    1    0    0    0  0.14443271386E-02 -0.38958336968E-04 -0.18736345203E-02  0.23660314772E-02  0.00000000000E+00 0.  1.
         14    1    1    0    0    0 -0.20300647233E-02 -0.21625213162E-02  0.18921508293E-02  0.35182234131E-02  0.00000000000E+00 0.  1.
     999901    1    1    0    0    0 -0.36619265601E-02  0.64481537740E-02 -0.51743643499E-02  0.90004542243E+00  0.90000000000E+00 0.  1.
     999903    1    1    0    0    0  0.77710078462E-02 -0.33872719315E-02 -0.64240653715E-03  0.21731885796E-01  0.20000000000E-01 0.  0.
</event>
<event>
 7    1  0.4717691E-066  0.9118800E+02  0.7957747E-01            NaN
     999900   -1    0    0    0    0  0.00000000000E+00  0.00000000000E+00  0.99999998245E-14  0.93827000000E+00  0.93827000000E+00 0.  1.
        -11    1    1    0    0    0  0.23429440840E-03 -0.10314794638E-02 -0.93149507219E-03  0.14992157362E-02  0.51100000000E-03 0. -1.
        -14    1    1    0    0    0 -0.23623625459E-02  0.53455777555E-02  0.39673051384E-02  0.70636724442E-02  0.00000000000E+00 0. -1.
         12    1    1    0    0    0  0.26768177514E-02 -0.76083875516E-03 -0.13145787651E-02  0.30777176959E-02  0.00000000000E+00 0.  1.
         14    1    1    0    0    0 -0.24724978930E-02 -0.16209294708E-02 -0.20580427250E-02  0.36022490250E-02  0.00000000000E+00 0. -1.
     999901    1    1    0    0    0  0.96905044388E-02  0.36388766957E-02  0.62655127565E-02  0.90008133185E+00  0.90000000000E+00 0.  1.
     999903    1    1    0    0    0 -0.77667561598E-02 -0.55712067614E-02 -0.59287013326E-02  0.22945813246E-01  0.20000000000E-01 0.  0.
</event>
<event>
 7    1  0.4717691E-066  0.9118800E+02  0.7957747E-01            NaN
     999900   -1    0    0    0    0  0.00000000000E+00  0.00000000000E+00  0.99999998245E-14  0.93827000000E+00  0.93827000000E+00 0.  1.
        -11    1    1    0    0    0  0.10488683493E-02  0.15762054328E-02 -0.14351065119E-03  0.19662819450E-02  0.51100000000E-03 0. -1.
        -14    1    1    0    0    0 -0.66009746549E-02 -0.38033189734E-02  0.19439873330E-02  0.78623907534E-02  0.00000000000E+00 0. -1.
         12    1    1    0    0    0  0.14308322042E-02  0.17834667211E-03 -0.26944357736E-03  0.14668633793E-02  0.00000000000E+00 0.  1.
         14    1    1    0    0    0  0.46048085082E-03 -0.13762759272E-02 -0.20788956976E-02  0.25353471879E-02  0.00000000000E+00 0. -1.
     999901    1    1    0    0    0  0.10917735141E-01 -0.45578025223E-02  0.91965562544E-02  0.90012473977E+00  0.90000000000E+00 0.  1.
     999903    1    1    0    0    0 -0.72569418906E-02  0.79828453181E-02 -0.86486936612E-02  0.24314376961E-01  0.20000000000E-01 0.  0.
</event>
<event>
 7    1  0.4771796E-066  0.9118800E+02  0.7957747E-01            NaN
     999900   -1    0    0    0    0  0.00000000000E+00  0.00000000000E+00  0.99999998245E-14  0.93827000000E+00  0.93827000000E+00 0. -1.
        -11    1    1    0    0    0 -0.67859439236E-03  0.33956261696E-02 -0.11973565168E-02  0.36993987432E-02  0.51100000000E-03 0. -1.
        -14    1    1    0    0    0  0.21269389453E-02  0.79757213459E-03  0.36134245494E-02  0.42681175665E-02  0.00000000000E+00 0. -1.
         12    1    1    0    0    0  0.25979776108E-03 -0.43041537453E-03  0.65689166132E-02  0.65881270284E-02  0.00000000000E+00 0.  1.
         14    1    1    0    0    0  0.91987530015E-03 -0.10878225137E-03 -0.17161769887E-02  0.19501968113E-02  0.00000000000E+00 0.  1.
     999901    1    1    0    0    0 -0.44813518629E-02  0.45146284104E-02 -0.82216236450E-02  0.90006003104E+00  0.90000000000E+00 0.  1.
     999903    1    1    0    0    0  0.18533342487E-02 -0.81686290888E-02  0.95281598796E-03  0.21704128808E-01  0.20000000000E-01 0.  0.
</event>
<event>
 7    1  0.4717691E-066  0.9118800E+02  0.7957747E-01            NaN
     999900   -1    0    0    0    0  0.00000000000E+00  0.00000000000E+00  0.99999998245E-14  0.93827000000E+00  0.93827000000E+00 0. -1.
        -11    1    1    0    0    0 -0.22813241558E-02 -0.30820332864E-02 -0.28135552457E-03  0.38786145740E-02  0.51100000000E-03 0. -1.
        -14    1    1    0    0    0 -0.19330490516E-02  0.69692453489E-03  0.27487679560E-02  0.34319247834E-02  0.00000000000E+00 0. -1.
         12    1    1    0    0    0  0.39121078359E-02 -0.23251258361E-02  0.34104438653E-02  0.56869961519E-02  0.00000000000E+00 0.  1.
         14    1    1    0    0    0 -0.20363377966E-02  0.39681385355E-03 -0.27754288775E-03  0.20931227653E-02  0.00000000000E+00 0.  1.
     999901    1    1    0    0    0  0.48076613618E-02  0.11065792475E-01  0.34300204184E-02  0.90008740154E+00  0.90000000000E+00 0. -1.
     999903    1    1    0    0    0 -0.24690581936E-02 -0.67523717411E-02 -0.90303338273E-02  0.23091940185E-01  0.20000000000E-01 0.  0.
</event>
<event>
 7    1  0.4717691E-066  0.9118800E+02  0.7957747E-01            NaN
     999900   -1    0    0    0    0  0.00000000000E+00  0.00000000000E+00  0.99999998245E-14  0.93827000000E+00  0.93827000000E+00 0.  1.
        -11    1    1    0    0    0  0.61849184249E-02 -0.16017051008E-02 -0.18864273805E-02  0.66811978278E-02  0.51100000000E-03 0. -1.
        -14    1    1    0    0    0 -0.29939400437E-02  0.31101392839E-03  0.15251164748E-02  0.33743720765E-02  0.00000000000E+00 0. -1.
         12    1    1    0    0    0 -0.11905244573E-02 -0.59951618976E-03 -0.90942445823E-03  0.16136359535E-02  0.00000000000E+00 0.  1.
         14    1    1    0    0    0  0.43688663845E-03  0.15299555236E-02  0.27983185474E-02  0.32190403123E-02  0.00000000000E+00 0.  1.
     999901    1    1    0    0    0  0.10008395538E-02 -0.48232668506E-02 -0.11717161649E-01  0.90008974967E+00  0.90000000000E+00 0. -1.
     999903    1    1    0    0    0 -0.34381801161E-02  0.51835186891E-02  0.10189578465E-01  0.23292004160E-01  0.20000000000E-01 0.  0.
</event>
<event>
 7    1  0.4717691E-066  0.9118800E+02  0.7957747E-01            NaN
     999900   -1    0    0    0    0  0.00000000000E+00  0.00000000000E+00  0.99999998245E-14  0.93827000000E+00  0.93827000000E+00 0.  1.
        -11    1    1    0    0    0 -0.26754127339E-02  0.12430652712E-02  0.22662000662E-02  0.37549738089E-02  0.51100000000E-03 0. -1.
        -14    1    1    0    0    0  0.10806434901E-02 -0.79069340291E-03 -0.42399751357E-03  0.14045498573E-02  0.00000000000E+00 0. -1.
         12    1    1    0    0    0  0.78029226122E-03  0.45379920493E-03 -0.63013487676E-03  0.11008449910E-02  0.00000000000E+00 0.  1.
         14    1    1    0    0    0  0.46720136674E-02 -0.65384463756E-02  0.62827712298E-05  0.80361080249E-02  0.00000000000E+00 0.  1.
     999901    1    1    0    0    0 -0.16890613261E-02  0.68263933011E-02  0.11577148862E-01  0.90010192920E+00  0.90000000000E+00 0.  1.
     999903    1    1    0    0    0 -0.21684753587E-02 -0.11941179987E-02 -0.12795499309E-01  0.23871594118E-01  0.20000000000E-01 0.  0.
</event>
<event>
 7    1  0.4717691E-066  0.9118800E+02  0.7957747E-01            NaN
     999900   -1    0    0    0    0  0.00000000000E+00  0.00000000000E+00  0.99999998245E-14  0.93827000000E+00  0.93827000000E+00 0.  1.
        -11    1    1    0    0    0 -0.22075667084E-02  0.27913087325E-02 -0.30535441714E-02  0.47169914372E-02  0.51100000000E-03 0. -1.
        -14    1    1    0    0    0  0.81649977304E-03 -0.17861549385E-02  0.44084106955E-02  0.48260860129E-02  0.00000000000E+00 0. -1.
         12    1    1    0    0    0 -0.88635480461E-03 -0.25971778115E-02  0.21868287368E-02  0.35090137288E-02  0.00000000000E+00 0.  1.
         14    1    1    0    0    0  0.15118129468E-02  0.13068463167E-02  0.12405198139E-02  0.23520873900E-02  0.00000000000E+00 0.  1.
     999901    1    1    0    0    0  0.33037618826E-02  0.86204041763E-02  0.19015638451E-02  0.90004935540E+00  0.90000000000E+00 0.  1.
     999903    1    1    0    0    0 -0.25381530893E-02 -0.83352264755E-02 -0.66837789200E-02  0.22816466031E-01  0.20000000000E-01 0.  0.
</event>
<event>
 7    1  0.4717691E-066  0.9118800E+02  0.7957747E-01            NaN
     999900   -1    0    0    0    0  0.00000000000E+00  0.00000000000E+00  0.99999998245E-14  0.93827000000E+00  0.93827000000E+00 0.  1.
        -11    1    1    0    0    0  0.65562933817E-03  0.17096794331E-02 -0.20747372478E-02  0.28139845843E-02  0.51100000000E-03 0. -1.
        -14    1    1    0    0    0  0.22756920092E-02  0.54363205365E-02 -0.17712560282E-02  0.61538364468E-02  0.00000000000E+00 0. -1.
         12    1    1    0    0    0  0.80962038784E-03 -0.50248677339E-03  0.12965398246E-03  0.96165913140E-03  0.00000000000E+00 0.  1.
         14    1    1    0    0    0 -0.45746106494E-02 -0.22718444787E-02  0.31425988741E-02  0.59970215618E-02  0.00000000000E+00 0.  1.
     999901    1    1    0    0    0 -0.79218790275E-02 -0.81883629108E-02  0.27196445925E-02  0.90007622006E+00  0.90000000000E+00 0.  1.
     999903    1    1    0    0    0  0.87555479417E-02  0.38166941932E-02 -0.21459041731E-02  0.22267278214E-01  0.20000000000E-01 0.  0.
</event>
<event>
 7    1  0.4717691E-066  0.9118800E+02  0.7957747E-01            NaN
     999900   -1    0    0    0    0  0.00000000000E+00  0.00000000000E+00  0.99999998245E-14  0.93827000000E+00  0.93827000000E+00 0.  1.
        -11    1    1    0    0    0  0.22719060649E-03 -0.41287839576E-03  0.13516616230E-03  0.70814901877E-03  0.51100000000E-03 0. -1.
        -14    1    1    0    0    0 -0.44360529748E-02 -0.76381855178E-03 -0.37264283384E-02  0.58436506515E-02  0.00000000000E+00 0. -1.
         12    1    1    0    0    0 -0.32301629132E-02 -0.10121635805E-02 -0.46396871904E-02  0.57432677793E-02  0.00000000000E+00 0.  1.
         14    1    1    0    0    0  0.31321231182E-02 -0.20830859024E-04  0.13900551783E-02  0.34267889562E-02  0.00000000000E+00 0.  1.
     999901    1    1    0    0    0  0.21114252696E-02 -0.15248285520E-03  0.16390729124E-01  0.90015173019E+00  0.90000000000E+00 0.  1.
     999903    1    1    0    0    0  0.21954768938E-02  0.23621742422E-02 -0.95498349362E-02  0.22396413401E-01  0.20000000000E-01 0.  0.
</event>
<event>
 7    1  0.4717691E-066  0.9118800E+02  0.7957747E-01            NaN
     999900   -1    0    0    0    0  0.00000000000E+00  0.00000000000E+00  0.99999998245E-14  0.93827000000E+00  0.93827000000E+00 0.  1.
        -11    1    1    0    0    0  0.22891421566E-02 -0.40765097666E-02 -0.12986773129E-02  0.48791174872E-02  0.51100000000E-03 0. -1.
        -14    1    1    0    0    0 -0.18915899177E-03  0.21478357955E-03  0.13777173915E-02  0.14071312380E-02  0.00000000000E+00 0. -1.
         12    1    1    0    0    0  0.22345107095E-02 -0.41512050967E-02 -0.15927958711E-02  0.49761973989E-02  0.00000000000E+00 0.  1.
         14    1    1    0    0    0 -0.68448171869E-03 -0.37015954437E-02 -0.25053564905E-02  0.45218508596E-02  0.00000000000E+00 0.  1.
     999901    1    1    0    0    0 -0.12089389933E-01  0.67144239073E-02  0.59519838061E-02  0.90012591505E+00  0.90000000000E+00 0. -1.
     999903    1    1    0    0    0  0.84393777772E-02  0.50001028201E-02 -0.19328715231E-02  0.22359787964E-01  0.20000000000E-01 0.  0.
</event>
<event>
 7    1  0.4717691E-066  0.9118800E+02  0.7957747E-01            NaN
     999900   -1    0    0    0    0  0.00000000000E+00  0.00000000000E+00  0.99999998245E-14  0.93827000000E+00  0.93827000000E+00 0. -1.
        -11    1    1    0    0    0 -0.11150997574E-02 -0.44225047744E-02  0.10047915927E-02  0.46981616717E-02  0.51100000000E-03 0. -1.
        -14    1    1    0    0    0 -0.14634253366E-02  0.19545517084E-02 -0.15050399902E-03  0.24463314473E-02  0.00000000000E+00 0. -1.
         12    1    1    0    0    0  0.13697622828E-02 -0.29302728685E-02  0.20698699559E-02  0.38401965352E-02  0.00000000000E+00 0.  1.
         14    1    1    0    0    0 -0.23447561563E-03  0.11051631690E-02 -0.74025235802E-03  0.13506805684E-02  0.00000000000E+00 0.  1.
     999901    1    1    0    0    0 -0.97843804574E-02 -0.43971969936E-02  0.59821894022E-02  0.90008380501E+00  0.90000000000E+00 0. -1.
     999903    1    1    0    0    0  0.11227618884E-01  0.86902597592E-02 -0.81660945937E-02  0.25850824772E-01  0.20000000000E-01 0.  0.
</event>
<event>
 7    1  0.4717691E-066  0.9118800E+02  0.7957747E-01            NaN
     999900   -1    0    0    0    0  0.00000000000E+00  0.00000000000E+00  0.99999998245E-14  0.93827000000E+00  0.93827000000E+00 0.  1.
        -11    1    1    0    0    0  0.21730877605E-02  0.13004348524E-02 -0.82134808752E-03  0.27109361669E-02  0.51100000000E-03 0. -1.
        -14    1    1    0    0    0  0.36856605257E-02  0.19788836639E-02  0.65378299728E-03  0.42340886001E-02  0.00000000000E+00 0. -1.
         12    1    1    0    0    0  0.13560021351E-02 -0.43327022399E-02  0.51387482840E-03  0.45689296153E-02  0.00000000000E+00 0.  1.
         14    1    1    0    0    0 -0.64489737317E-03  0.66472079205E-04 -0.54860176270E-03  0.84927913743E-03  0.00000000000E+00 0.  1.
     999901    1    1    0    0    0 -0.85541978230E-02  0.37829018896E-02 -0.15606283137E-01  0.90018389272E+00  0.90000000000E+00 0. -1.
     999903    1    1    0    0    0  0.19843447749E-02 -0.27959902452E-02  0.15808575161E-01  0.25722873756E-01  0.20000000000E-01 0.  0.
</event>
<event>
 7    1  0.4717691E-066  0.9118800E+02  0.7957747E-01            NaN
     999900   -1    0    0    0    0  0.00000000000E+00  0.00000000000E+00  0.99999998245E-14  0.93827000000E+00  0.93827000000E+00 0.  1.
        -11    1    1    0    0    0  0.42964052644E-03 -0.11604951805E-02  0.47035536389E-03  0.14190472911E-02  0.51100000000E-03 0. -1.
        -14    1    1    0    0    0 -0.26333414720E-02  0.31057702388E-02 -0.24219750002E-03  0.40790876079E-02  0.00000000000E+00 0. -1.
         12    1    1    0    0    0  0.14132662332E-02 -0.12035283493E-02  0.15653527857E-02  0.24281950657E-02  0.00000000000E+00 0.  1.
         14    1    1    0    0    0 -0.28881590236E-02 -0.22015869718E-02 -0.18314950209E-02  0.40672867801E-02  0.00000000000E+00 0.  1.
     999901    1    1    0    0    0  0.62563664609E-02  0.10079254326E-01  0.14165227071E-01  0.90018963955E+00  0.90000000000E+00 0. -1.
     999903    1    1    0    0    0 -0.25777727249E-02 -0.86194140631E-02 -0.14127242700E-01  0.26086743709E-01  0.20000000000E-01 0.  0.
</event>
<event>
 7    1  0.4717691E-066  0.9118800E+02  0.7957747E-01            NaN
     999900   -1    0    0    0    0  0.00000000000E+00  0.00000000000E+00  0.99999998245E-14  0.93827000000E+00  0.93827000000E+00 0. -1.
        -11    1    1    0    0    0 -0.19077819854E-02 -0.42978681330E-03  0.93349981922E-03  0.22264078066E-02  0.51100000000E-03 0. -1.
        -14    1    1    0    0    0  0.90918756951E-03 -0.58431986070E-02 -0.39487347342E-02  0.71107030594E-02  0.00000000000E+00 0. -1.
         12    1    1    0    0    0 -0.98426700039E-03 -0.30250482467E-02  0.87974081359E-03  0.33005518209E-02  0.00000000000E+00 0.  1.
         14    1    1    0    0    0  0.48465712990E-02  0.12595298133E-02  0.82087293954E-03  0.50743966232E-02  0.00000000000E+00 0.  1.
     999901    1    1    0    0    0 -0.35508889201E-02  0.33996895120E-02  0.10693128920E-02  0.90001406107E+00  0.90000000000E+00 0. -1.
     999903    1    1    0    0    0  0.68717903739E-03  0.46388143417E-02  0.24530826984E-03  0.20543879616E-01  0.20000000000E-01 0.  0.
</event>
<event>
 7    1  0.4717691E-066  0.9118800E+02  0.7957747E-01            NaN
     999900   -1    0    0    0    0  0.00000000000E+00  0.00000000000E+00  0.99999998245E-14  0.93827000000E+00  0.93827000000E+00 0.  1.
        -11    1    1    0    0    0 -0.32631308489E-03 -0.24110394150E-02 -0.15733043871E-02  0.29421079152E-02  0.51100000000E-03 0. -1.
        -14    1    1    0    0    0  0.50469981045E-02 -0.29091198106E-02  0.39578183194E-02  0.70426908060E-02  0.00000000000E+00 0. -1.
         12    1    1    0    0    0  0.15769351666E-02  0.22452292662E-02 -0.24336348487E-02  0.36674729112E-02  0.00000000000E+00 0.  1.
         14    1    1    0    0    0 -0.65931158150E-03 -0.23830510360E-02 -0.10557656565E-02  0.26885433088E-02  0.00000000000E+00 0.  1.
     999901    1    1    0    0    0  0.10113092257E-02  0.85881958602E-02 -0.38640340248E-02  0.90004983785E+00  0.90000000000E+00 0. -1.
     999903    1    1    0    0    0 -0.66496178304E-02 -0.31302148648E-02  0.49689205978E-02  0.21879347209E-01  0.20000000000E-01 0.  0.
</event>
<event>
 7    1  0.4717691E-066  0.9118800E+02  0.7957747E-01            NaN
     999900   -1    0    0    0    0  0.00000000000E+00  0.00000000000E+00  0.99999998245E-14  0.93827000000E+00  0.93827000000E+00 0. -1.
        -11    1    1    0    0    0 -0.14509988719E-02 -0.25500433398E-02  0.16593997848E-02  0.34092297381E-02  0.51100000000E-03 0. -1.
        -14    1    1    0    0    0  0.13027666391E-02  0.10170356203E-02  0.83814979407E-03  0.18531210015E-02  0.00000000000E+00 0. -1.
         12    1    1    0    0    0  0.10377602695E-02 -0.10982875727E-02  0.24028993514E-02  0.28385044059E-02  0.00000000000E+00 0.  1.
         14    1    1    0    0    0 -0.59442028870E-02  0.28370849481E-02 -0.18600274172E-02  0.68441435518E-02  0.00000000000E+00 0.  1.
     999901    1    1    0    0    0 -0.65882508532E-02  0.22334237772E-02 -0.39809499179E-02  0.90003568884E+00  0.90000000000E+00 0.  1.
     999903    1    1    0    0    0  0.11642925703E-01 -0.24392134331E-02  0.94052840481E-03  0.23289312458E-01  0.20000000000E-01 0.  0.
</event>
<event>
 7    1  0.4717691E-066  0.9118800E+02  0.7957747E-01            NaN
     999900   -1    0    0    0    0  0.00000000000E+00  0.00000000000E+00  0.99999998245E-14  0.93827000000E+00  0.93827000000E+00 0.  1.
        -11    1    1    0    0    0  0.73526447845E-03  0.13049921427E-02  0.15359941338E-02  0.22054517281E-02  0.51100000000E-03 0. -1.
        -14    1    1    0    0    0 -0.79891676403E-03  0.22094351228E-02 -0.45961190012E-02  0.51618002123E-02  0.00000000000E+00 0. -1.
         12    1    1    0    0    0 -0.24530192717E-02 -0.16681651040E-02  0.48570836160E-03  0.30059925106E-02  0.00000000000E+00 0.  1.
         14    1    1    0    0    0  0.18124702639E-02  0.27320930930E-02 -0.74966877588E-03  0.33632401638E-02  0.00000000000E+00 0.  1.
     999901    1    1    0    0    0 -0.11489174279E-01 -0.10318337255E-01 -0.38818845007E-03  0.90013255685E+00  0.90000000000E+00 0.  1.
     999903    1    1    0    0    0  0.12193375573E-01  0.57399820008E-02  0.37122737318E-02  0.24400958536E-01  0.20000000000E-01 0.  0.
</event>
<event>
 7    1  0.4717691E-066  0.9118800E+02  0.7957747E-01            NaN
     999900   -1    0    0    0    0  0.00000000000E+00  0.00000000000E+00  0.99999998245E-14  0.93827000000E+00  0.93827000000E+00 0.  1.
        -11    1    1    0    0    0  0.19892316890E-02 -0.65112010300E-02  0.10756829154E-02  0.69116565525E-02  0.51100000000E-03 0. -1.
        -14    1    1    0    0    0  0.19761113281E-02  0.35667619237E-02 -0.76303631088E-03  0.41483769131E-02  0.00000000000E+00 0. -1.
         12    1    1    0    0    0  0.22256897842E-02  0.92986289352E-03 -0.24237128846E-02  0.34194625547E-02  0.00000000000E+00 0.  1.
         14    1    1    0    0    0 -0.95423686846E-05 -0.12819966417E-02 -0.26944413897E-02  0.29838935719E-02  0.00000000000E+00 0.  1.
     999901    1    1    0    0    0 -0.30701247165E-02  0.78828513846E-02  0.48595774404E-02  0.90005287650E+00  0.90000000000E+00 0.  1.
     999903    1    1    0    0    0 -0.31113657161E-02 -0.45862785302E-02 -0.54069770686E-04  0.20753733903E-01  0.20000000000E-01 0.  0.
</event>
<event>
 7    1  0.4717691E-066  0.9118800E+02  0.7957747E-01            NaN
     999900   -1    0    0    0    0  0.00000000000E+00  0.00000000000E+00  0.99999998245E-14  0.93827000000E+00  0.93827000000E+00 0.  1.
        -11    1    1    0    0    0 -0.61221718388E-03  0.88382947108E-03 -0.30373494270E-03  0.12285521273E-02  0.51100000000E-03 0. -1.
        -14    1    1    0    0    0 -0.21900931123E-03 -0.78849546769E-03 -0.17311509418E-02  0.19148299570E-02  0.00000000000E+00 0. -1.
         12    1    1    0    0    0 -0.17725731985E-02  0.16968890490E-02  0.52041967540E-02  0.57537042019E-02  0.00000000000E+00 0.  1.
         14    1    1    0    0    0 -0.36088353680E-02 -0.58161323191E-03 -0.10589050587E-02  0.38056860864E-02  0.00000000000E+00 0.  1.
     999901    1    1    0    0    0  0.48585525056E-02 -0.16791274902E-01 -0.14948535688E-02  0.90017097656E+00  0.90000000000E+00 0. -1.
     999903    1    1    0    0    0  0.13540825560E-02  0.15580665082E-01 -0.61555224202E-03  0.25396251072E-01  0.20000000000E-01 0.  0.
</event>
<event>
 7    1  0.4717691E-066  0.9118800E+02  0.7957747E-01            NaN
     999900   -1    0    0    0    0  0.00000000000E+00  0.00000000000E+00  0.99999998245E-14  0.93827000000E+00  0.93827000000E+00 0.  1.
        -11    1    1    0    0    0 -0.13612446485E-02 -0.21837440656E-02  0.90397713886E-03  0.27748911339E-02  0.51100000000E-03 0. -1.
        -14    1    1    0    0    0 -0.33208550303E-02 -0.17389674926E-02  0.20147340767E-03  0.37540215245E-02  0.00000000000E+00 0. -1.
         12    1    1    0    0    0  0.80795477060E-03  0.99527148028E-03 -0.17228533434E-02  0.21474589341E-02  0.00000000000E+00 0.  1.
         14    1    1    0    0    0  0.13816007758E-02  0.24576258261E-03  0.42066300021E-03  0.14649837236E-02  0.00000000000E+00 0.  1.
     999901    1    1    0    0    0  0.19505466821E-01  0.76491485997E-02 -0.76539596657E-02  0.90027637746E+00  0.90000000000E+00 0. -1.
     999903    1    1    0    0    0 -0.17012922689E-01 -0.49674711043E-02  0.78506994623E-02  0.27852267226E-01  0.20000000000E-01 0.  0.
</event>
<event>
 7    1  0.4717691E-066  0.9118800E+02  0.7957747E-01            NaN
     999900   -1    0    0    0    0  0.00000000000E+00  0.00000000000E+00  0.99999998245E-14  0.93827000000E+00  0.93827000000E+00 0. -1.
        -11    1    1    0    0    0  0.13045817583E-03 -0.10568774298E-02 -0.11629337709E-02  0.16575720778E-02  0.51100000000E-03 0. -1.
        -14    1    1    0    0    0  0.45291383570E-02  0.14264301442E-02 -0.48498664109E-03  0.47731550630E-02  0.00000000000E+00 0. -1.
         12    1    1    0    0    0  0.39108599173E-02  0.14265775387E-02  0.41514254410E-02  0.58791395594E-02  0.00000000000E+00 0.  1.
         14    1    1    0    0    0 -0.19238737758E-03 -0.11598508327E-02 -0.21493618392E-02  0.24499026864E-02  0.00000000000E+00 0.  1.
     999901    1    1    0    0    0 -0.20209890976E-01 -0.17850849050E-02 -0.11812143909E-02  0.90022942714E+00  0.90000000000E+00 0.  1.
     999903    1    1    0    0    0  0.11831821903E-01  0.11488054846E-02  0.82707120117E-03  0.23280803473E-01  0.20000000000E-01 0.  0.
</event>
<event>
 7    1  0.4717691E-066  0.9118800E+02  0.7957747E-01            NaN
     999900   -1    0    0    0    0  0.00000000000E+00  0.00000000000E+00  0.99999998245E-14  0.93827000000E+00  0.93827000000E+00 0.  1.
        -11    1    1    0    0    0 -0.14979452697E-02 -0.12764958092E-02  0.21859399852E-02  0.29854206070E-02  0.51100000000E-03 0. -1.
        -14    1    1    0    0    0  0.13950830689E-02  0.27534592847E-02  0.35361867173E-02  0.46938695446E-02  0.00000000000E+00 0. -1.
         12    1    1    0    0    0 -0.88606581322E-03  0.35251288074E-03  0.16378732205E-02  0.18952589910E-02  0.00000000000E+00 0.  1.
         14    1    1    0    0    0  0.20749484397E-02  0.44765200950E-02  0.21031265202E-02  0.53635607900E-02  0.00000000000E+00 0.  1.
     999901    1    1    0    0    0 -0.35338043955E-02  0.50946421632E-02 -0.69826682813E-02  0.90004844359E+00  0.90000000000E+00 0.  1.
     999903    1    1    0    0    0  0.24477839697E-02 -0.11400638614E-01 -0.24804581618E-02  0.23283446478E-01  0.20000000000E-01 0.  0.
</event>
<event>
 7    1  0.4717691E-066  0.9118800E+02  0.7957747E-01            NaN
     999900   -1    0    0    0    0  0.00000000000E+00  0.00000000000E+00  0.99999998245E-14  0.93827000000E+00  0.93827000000E+00 0.  1.
        -11    1    1    0    0    0  0.20426341488E-03  0.16360599310E-02  0.88132938887E-03  0.19381120020E-02  0.51100000000E-03 0. -1.
        -14    1    1    0    0    0  0.55029610871E-02  0.30529638855E-02 -0.21225655190E-02  0.66414195466E-02  0.00000000000E+00 0. -1.
         12    1    1    0    0    0 -0.15604468365E-03  0.20870156900E-02  0.15984832675E-02  0.26334641046E-02  0.00000000000E+00 0.  1.
         14    1    1    0    0    0 -0.86193331725E-03 -0.18127406142E-02 -0.17024965419E-02  0.26320053292E-02  0.00000000000E+00 0.  1.
     999901    1    1    0    0    0  0.29298418712E-02 -0.76446032311E-02  0.12537727682E-01  0.90012455724E+00  0.90000000000E+00 0.  1.
     999903    1    1    0    0    0 -0.76190883722E-02  0.26813043389E-02 -0.11192478277E-01  0.24300441777E-01  0.20000000000E-01 0.  0.
</event>
<event>
 7    1  0.4717691E-066  0.9118800E+02  0.7957747E-01            NaN
     999900   -1    0    0    0    0  0.00000000000E+00  0.00000000000E+00  0.99999998245E-14  0.93827000000E+00  0.93827000000E+00 0. -1.
        -11    1    1    0    0    0  0.13473929254E-02  0.29639185523E-03 -0.60640237168E-02  0.62399375369E-02  0.51100000000E-03 0. -1.
        -14    1    1    0    0    0  0.35840180103E-03  0.48457883279E-02  0.19704748023E-02  0.52433660292E-02  0.00000000000E+00 0. -1.
         12    1    1    0    0    0 -0.35147421045E-03  0.12013463006E-02 -0.27184484706E-02  0.29927795011E-02  0.00000000000E+00 0.  1.
         14    1    1    0    0    0 -0.69169699971E-03 -0.51057295505E-03  0.61893995280E-03  0.10593470380E-02  0.00000000000E+00 0.  1.
     999901    1    1    0    0    0  0.88533744405E-02 -0.83785911267E-02  0.21982788563E-02  0.90008522677E+00  0.90000000000E+00 0.  1.
     999903    1    1    0    0    0 -0.95159979568E-02  0.25456375980E-02  0.39947785760E-02  0.22649343120E-01  0.20000000000E-01 0.  0.
</event>
<event>
 7    1  0.4717691E-066  0.9118800E+02  0.7957747E-01            NaN
     999900   -1    0    0    0    0  0.00000000000E+00  0.00000000000E+00  0.99999998245E-14  0.93827000000E+00  0.93827000000E+00 0.  1.
        -11    1    1    0    0    0  0.31069032865E-03  0.62355700758E-03 -0.28143790953E-02  0.29440112965E-02  0.51100000000E-03 0. -1.
        -14    1    1    0    0    0 -0.21577292482E-02 -0.22741994854E-03  0.73421395803E-03  0.22905426164E-02  0.00000000000E+00 0. -1.
         12    1    1    0    0    0  0.17783986833E-02 -0.13730825435E-02  0.18520383148E-02  0.29117183015E-02  0.00000000000E+00 0.  1.
         14    1    1    0    0    0 -0.55581822955E-02  0.36921389077E-04 -0.46139406331E-02  0.72237941405E-02  0.00000000000E+00 0.  1.
     999901    1    1    0    0    0  0.15073133851E-01  0.10044545650E-02 -0.57747488932E-03  0.90012695870E+00  0.90000000000E+00 0.  1.
     999903    1    1    0    0    0 -0.94463113193E-02 -0.64430469665E-04  0.54195423448E-02  0.22772974950E-01  0.20000000000E-01 0.  0.
</event>
<event>
 7    1  0.4717691E-066  0.9118800E+02  0.7957747E-01            NaN
     999900   -1    0    0    0    0  0.00000000000E+00  0.00000000000E+00  0.99999998245E-14  0.93827000000E+00  0.93827000000E+00 0. -1.
        -11    1    1    0    0    0  0.74802614279E-04 -0.12060361241E-03  0.49581175832E-03  0.72601030442E-03  0.51100000000E-03 0. -1.
        -14    1    1    0    0    0 -0.17112324259E-02  0.53627197393E-02 -0.75203010000E-03  0.56791397843E-02  0.00000000000E+00 0. -1.
         12    1    1    0    0    0  0.18044278415E-02  0.52780478438E-03  0.70626311364E-03  0.20083190263E-02  0.00000000000E+00 0.  1.
         14    1    1    0    0    0 -0.59325420478E-02  0.18462210131E-02  0.15266426012E-02  0.63979859964E-02  0.00000000000E+00 0.  1.
     999901    1    1    0    0    0 -0.21663333692E-02  0.41179064817E-03  0.27802693892E-02  0.90000699579E+00  0.90000000000E+00 0. -1.
     999903    1    1    0    0    0  0.79308773871E-02 -0.80279325725E-02 -0.47569567624E-02  0.23451549099E-01  0.20000000000E-01 0.  0.
</event>
<event>
 7    1  0.4717691E-066  0.9118800E+02  0.7957747E-01            NaN
     999900   -1    0    0    0    0  0.00000000000E+00  0.00000000000E+00  0.99999998245E-14  0.93827000000E+00  0.93827000000E+00 0.  1.
        -11    1    1    0    0    0 -0.13671527951E-02 -0.16537124458E-02 -0.43607630031E-02  0.48868442361E-02  0.51100000000E-03 0. -1.
        -14    1    1    0    0    0 -0.54118496366E-03  0.15019153091E-02  0.28629382997E-02  0.32779637686E-02  0.00000000000E+00 0. -1.
         12    1    1    0    0    0 -0.84664814151E-03  0.23327434809E-03  0.30861780204E-03  0.93084635936E-03  0.00000000000E+00 0.  1.
         14    1    1    0    0    0  0.18819615989E-02 -0.21233915427E-02 -0.24373566491E-02  0.37404917509E-02  0.00000000000E+00 0.  1.
     999901    1    1    0    0    0 -0.92615164317E-02  0.13987541397E-02 -0.81800318775E-02  0.90008590986E+00  0.90000000000E+00 0. -1.
     999903    1    1    0    0    0  0.10134540733E-01  0.64316019165E-03  0.11806595428E-01  0.25347944029E-01  0.20000000000E-01 0.  0.
</event>
<event>
 7    1  0.4717691E-066  0.9118800E+02  0.7957747E-01            NaN
     999900   -1    0    0    0    0  0.00000000000E+00  0.00000000000E+00  0.99999998245E-14  0.93827000000E+00  0.93827000000E+00 0. -1.
        -11    1    1    0    0    0 -0.50225509774E-03  0.29409997015E-02  0.38934679189E-03  0.30519586091E-02  0.51100000000E-03 0. -1.
        -14    1    1    0    0    0  0.75802971105E-03 -0.59871158378E-02  0.27427513987E-02  0.66289403627E-02  0.00000000000E+00 0. -1.
         12    1    1    0    0    0  0.10370612725E-02 -0.17473786251E-02  0.18772629280E-02  0.27663955327E-02  0.00000000000E+00 0.  1.
         14    1    1    0    0    0 -0.13077558051E-02 -0.18522865714E-02 -0.67334781625E-05  0.22674294097E-02  0.00000000000E+00 0.  1.
     999901    1    1    0    0    0 -0.40956606478E-02  0.13290397298E-01  0.43915620539E-02  0.90011815608E+00  0.90000000000E+00 0.  1.
     999903    1    1    0    0    0  0.41105805671E-02 -0.66446159647E-02 -0.93941896943E-02  0.23437120001E-01  0.20000000000E-01 0.  0.
</event>
<event>
 7    1  0.4717691E-066  0.9118800E+02  0.7957747E-01            NaN
     999900   -1    0    0    0    0  0.00000000000E+00  0.00000000000E+00  0.99999998245E-14  0.93827000000E+00  0.93827000000E+00 0.  1.
        -11    1    1    0    0    0 -0.23843805686E-02 -0.97543327049E-03 -0.11186952151E-02  0.28547050190E-02  0.51100000000E-03 0. -1.
        -14    1    1    0    0    0  0.42087611000E-02  0.13663577987E-02  0.98910774030E-03  0.45341964837E-02  0.00000000000E+00 0. -1.
         12    1    1    0    0    0  0.16478278569E-02 -0.31271950992E-02 -0.13026384179E-02  0.37671677269E-02  0.00000000000E+00 0.  1.
         14    1    1    0    0    0  0.14221141290E-02  0.28963017066E-02 -0.54460840617E-02  0.63301503757E-02  0.00000000000E+00 0.  1.
     999901    1    1    0    0    0 -0.61452764694E-02  0.41855918012E-02  0.97183055295E-02  0.90008317897E+00  0.90000000000E+00 0.  1.
     999903    1    1    0    0    0  0.12509539520E-02 -0.43456229367E-02 -0.28399955751E-02  0.20700601425E-01  0.20000000000E-01 0.  0.
</event>
<event>
 7    1  0.4717691E-066  0.9118800E+02  0.7957747E-01            NaN
     999900   -1    0    0    0    0  0.00000000000E+00  0.00000000000E+00  0.99999998245E-14  0.93827000000E+00  0.93827000000E+00 0. -1.
        -11    1    1    0    0    0 -0.24238217361E-03  0.10468987231E-03 -0.11921535219E-02  0.13236540738E-02  0.51100000000E-03 0. -1.
        -14    1    1    0    0    0 -0.37972291434E-03  0.51281344469E-02  0.18211721627E-02  0.54551462349E-02  0.00000000000E+00 0. -1.
         12    1    1    0    0    0  0.70310087928E-03 -0.20314903444E-02  0.23745928061E-02  0.32031226734E-02  0.00000000000E+00 0.  1.
         14    1    1    0    0    0 -0.31292727487E-02  0.11665851244E-02 -0.20307270861E-02  0.39085958203E-02  0.00000000000E+00 0.  1.
     999901    1    1    0    0    0  0.32449573989E-02 -0.88683021003E-03  0.12360013220E-01  0.90009115435E+00  0.90000000000E+00 0. -1.
     999903    1    1    0    0    0 -0.19668044149E-03 -0.34810888892E-02 -0.13332897581E-01  0.24288326845E-01  0.20000000000E-01 0.  0.
</event>
<event>
 7    1  0.4717691E-066  0.9118800E+02  0.7957747E-01            NaN
     999900   -1    0    0    0    0  0.00000000000E+00  0.00000000000E+00  0.99999998245E-14  0.93827000000E+00  0.93827000000E+00 0. -1.
        -11    1    1    0    0    0  0.84344798608E-03 -0.22414418907E-02  0.71738884504E-03  0.25517119762E-02  0.51100000000E-03 0. -1.
        -14    1    1    0    0    0  0.28204416936E-02  0.71496252688E-02 -0.12211988351E-03  0.76868033731E-02  0.00000000000E+00 0. -1.
         12    1    1    0    0    0 -0.25348886315E-02  0.12931276803E-02 -0.18254465865E-02  0.33808423228E-02  0.00000000000E+00 0.  1.
         14    1    1    0    0    0  0.72234599283E-04  0.62134507114E-05 -0.61206124463E-04  0.94882211057E-04  0.00000000000E+00 0.  1.
     999901    1    1    0    0    0  0.32364463065E-02 -0.19352003589E-01  0.11391375471E-02  0.90021457012E+00  0.90000000000E+00 0. -1.
     999903    1    1    0    0    0 -0.44376819539E-02  0.13144479080E-01  0.15224620241E-03  0.24341189994E-01  0.20000000000E-01 0.  0.
</event>
<event>
 7    1  0.4717691E-066  0.9118800E+02  0.7957747E-01            NaN
     999900   -1    0    0    0    0  0.00000000000E+00  0.00000000000E+00  0.99999998245E-14  0.93827000000E+00  0.93827000000E+00 0.  1.
        -11    1    1    0    0    0 -0.59463395500E-02 -0.70728596816E-03 -0.36629448156E-02  0.70382876616E-02  0.51100000000E-03 0. -1.
        -14    1    1    0    0    0  0.13996564349E-02 -0.49859703465E-03  0.15470548864E-03  0.14938443450E-02  0.00000000000E+00 0. -1.
         12    1    1    0    0    0 -0.84999315719E-03 -0.13256679585E-02  0.40906783730E-02  0.43833244752E-02  0.00000000000E+00 0.  1.
         14    1    1    0    0    0 -0.24398979556E-02  0.11161204059E-02 -0.26313807204E-02  0.37580568503E-02  0.00000000000E+00 0.  1.
     999901    1    1    0    0    0  0.11739698622E-01  0.32957191123E-03  0.87469718262E-02  0.90011912470E+00  0.90000000000E+00 0.  1.
     999903    1    1    0    0    0 -0.39031243939E-02  0.10858586442E-02 -0.66980301518E-02  0.21477361964E-01  0.20000000000E-01 0.  0.
</event>
<event>
 7    1  0.4717691E-066  0.9118800E+02  0.7957747E-01            NaN
     999900   -1    0    0    0    0  0.00000000000E+00  0.00000000000E+00  0.99999998245E-14  0.93827000000E+00  0.93827000000E+00 0.  1.
        -11    1    1    0    0    0  0.53243961482E-03  0.17859053508E-05  0.21801912722E-02  0.23017059143E-02  0.51100000000E-03 0. -1.
        -14    1    1    0    0    0 -0.71292892068E-03 -0.16319534587E-03 -0.64142895940E-02  0.64558509402E-02  0.00000000000E+00 0. -1.
         12    1    1    0    0    0 -0.31811896921E-04  0.45756716210E-02  0.14105218641E-02  0.47882517383E-02  0.00000000000E+00 0.  1.
         14    1    1    0    0    0  0.23774624353E-02 -0.70687107920E-03  0.87415907766E-03  0.26298571153E-02  0.00000000000E+00 0.  1.
     999901    1    1    0    0    0  0.30859054347E-02 -0.94140574758E-02 -0.30884321483E-02  0.90005982340E+00  0.90000000000E+00 0. -1.
     999903    1    1    0    0    0 -0.52510666673E-02  0.57066663745E-02  0.50378495284E-02  0.22034510889E-01  0.20000000000E-01 0.  0.
</event>
<event>
 7    1  0.4717691E-066  0.9118800E+02  0.7957747E-01            NaN
     999900   -1    0    0    0    0  0.00000000000E+00  0.00000000000E+00  0.99999998245E-14  0.93827000000E+00  0.93827000000E+00 0. -1.
        -11    1    1    0    0    0  0.53411909457E-03  0.57940578135E-03 -0.59378967443E-02  0.60117163117E-02  0.51100000000E-03 0. -1.
        -14    1    1    0    0    0  0.41741594433E-03  0.32697413472E-02  0.38274297033E-02  0.50512040823E-02  0.00000000000E+00 0. -1.
         12    1    1    0    0    0  0.14804023181E-03  0.29106918664E-03  0.13290974382E-04  0.32682385415E-03  0.00000000000E+00 0.  1.
         14    1    1    0    0    0 -0.32760319314E-03  0.24754214053E-02 -0.10035607772E-02  0.26911278713E-02  0.00000000000E+00 0.  1.
     999901    1    1    0    0    0  0.11735282939E-02  0.16121446974E-02  0.13522914534E-01  0.90010379701E+00  0.90000000000E+00 0. -1.
     999903    1    1    0    0    0 -0.19455003715E-02 -0.82277824179E-02 -0.10422177690E-01  0.24085330868E-01  0.20000000000E-01 0.  0.
</event>
<event>
 7    1  0.4717691E-066  0.9118800E+02  0.7957747E-01            NaN
     999900   -1    0    0    0    0  0.00000000000E+00  0.00000000000E+00  0.99999998245E-14  0.93827000000E+00  0.93827000000E+00 0.  1.
        -11    1    1    0    0    0  0.18230604571E-02  0.16991968597E-02 -0.11508668595E-02  0.27922096853E-02  0.51100000000E-03 0. -1.
        -14    1    1    0    0    0  0.87259404027E-03 -0.75717880985E-02 -0.82142593147E-03  0.76660378246E-02  0.00000000000E+00 0. -1.
         12    1    1    0    0    0 -0.20886494555E-02  0.22829925141E-03  0.28337751052E-02  0.35277270931E-02  0.00000000000E+00 0.  1.
         14    1    1    0    0    0  0.92509848401E-03  0.17672453431E-02  0.35971565158E-03  0.20269086456E-02  0.00000000000E+00 0.  1.
     999901    1    1    0    0    0 -0.20832008619E-02 -0.56240150545E-02 -0.31377128723E-02  0.90002545215E+00  0.90000000000E+00 0.  1.
     999903    1    1    0    0    0  0.55109733605E-03  0.95010616987E-02  0.19165149065E-02  0.22231664604E-01  0.20000000000E-01 0.  0.
</event>
<event>
 7    1  0.4717691E-066  0.9118800E+02  0.7957747E-01            NaN
     999900   -1    0    0    0    0  0.00000000000E+00  0.00000000000E+00  0.99999998245E-14  0.93827000000E+00  0.93827000000E+00 0. -1.
        -11    1    1    0    0    0  0.68992023962E-02 -0.38025251922E-03  0.47774425429E-02  0.84159767070E-02  0.51100000000E-03 0. -1.
        -14    1    1    0    0    0  0.21311335929E-02  0.17160601370E-02 -0.39965646575E-02  0.48434617626E-02  0.00000000000E+00 0. -1.
         12    1    1    0    0    0 -0.87064974849E-03 -0.91301226854E-04  0.52907771241E-03  0.10228832408E-02  0.00000000000E+00 0.  1.
         14    1    1    0    0    0  0.20717263675E-02  0.66223786106E-03 -0.16498587335E-02  0.27299529239E-02  0.00000000000E+00 0.  1.
     999901    1    1    0    0    0 -0.16387588326E-01  0.59949474259E-03 -0.82896502317E-03  0.90014976511E+00  0.90000000000E+00 0. -1.
     999903    1    1    0    0    0  0.61561757180E-02 -0.25062389946E-02  0.11688681588E-02  0.21107960255E-01  0.20000000000E-01 0.  0.
</event>
<event>
 7    1  0.4717691E-066  0.9118800E+02  0.7957747E-01            NaN
     999900   -1    0    0    0    0  0.00000000000E+00  0.00000000000E+00  0.99999998245E-14  0.93827000000E+00  0.93827000000E+00 0.  1.
        -11    1    1    0    0    0 -0.82496684498E-03 -0.27717940452E-02 -0.18345137055E-02  0.34626541929E-02  0.51100000000E-03 0. -1.
        -14    1    1    0    0    0 -0.87600195889E-03  0.17691773089E-02 -0.27303656331E-02  0.33693121364E-02  0.00000000000E+00 0. -1.
         12    1    1    0    0    0  0.20253950962E-02 -0.14418851278E-02 -0.48616747952E-02  0.54605072870E-02  0.00000000000E+00 0.  1.
         14    1    1    0    0    0 -0.21947979591E-02  0.61027188592E-03 -0.71368776106E-03  0.23872411015E-02  0.00000000000E+00 0.  1.
     999901    1    1    0    0    0 -0.95382875615E-03  0.50034316060E-02 -0.15958173483E-02  0.90001582806E+00  0.90000000000E+00 0. -1.
     999903    1    1    0    0    0  0.28242004230E-02 -0.31692016278E-02  0.11736059243E-01  0.23574457227E-01  0.20000000000E-01 0.  0.
</event>
<event>
 7    1  0.4717691E-066  0.9118800E+02  0.7957747E-01            NaN
     999900   -1    0    0    0    0  0.00000000000E+00  0.00000000000E+00  0.99999998245E-14  0.93827000000E+00  0.93827000000E+00 0.  1.
        -11    1    1    0    0    0 -0.26846820119E-02 -0.57011766917E-03  0.67198268589E-02  0.72766575896E-02  0.51100000000E-03 0. -1.
        -14    1    1    0    0    0  0.16309974956E-02 -0.29864191656E-02 -0.18423834408E-02  0.38695256823E-02  0.00000000000E+00 0. -1.
         12    1    1    0    0    0 -0.26170565145E-02 -0.57960581387E-03 -0.11925108102E-02  0.29337705656E-02  0.00000000000E+00 0.  1.
         14    1    1    0    0    0  0.18363105454E-02 -0.15247291498E-02  0.65586672461E-03  0.24752770673E-02  0.00000000000E+00 0.  1.
     999901    1    1    0    0    0 -0.23063391483E-02  0.77980021180E-02 -0.11069628039E-01  0.90010480762E+00  0.90000000000E+00 0. -1.
     999903    1    1    0    0    0  0.41407696337E-02 -0.21371303196E-02  0.67288287064E-02  0.21609961474E-01  0.20000000000E-01 0.  0.
</event>
<event>
 7    1  0.4717691E-066  0.9118800E+02  0.7957747E-01            NaN
     999900   -1    0    0    0    0  0.00000000000E+00  0.00000000000E+00  0.99999998245E-14  0.93827000000E+00  0.93827000000E+00 0. -1.
        -11    1    1    0    0    0 -0.19938607989E-02  0.10956538256E-02  0.28225501618E-02  0.36611266854E-02  0.51100000000E-03 0. -1.
        -14    1    1    0    0    0  0.37808739972E-02 -0.29474763650E-02 -0.10043891159E-02  0.48981039802E-02  0.00000000000E+00 0. -1.
         12    1    1    0    0    0  0.15750984051E-02 -0.14943776981E-03  0.24630355383E-03  0.16012283015E-02  0.00000000000E+00 0.  1.
         14    1    1    0    0    0 -0.11038125398E-02  0.37263311846E-02 -0.52749485723E-02  0.65520247756E-02  0.00000000000E+00 0.  1.
     999901    1    1    0    0    0  0.43213664501E-02  0.30292180958E-03 -0.89478102892E-03  0.90001087027E+00  0.90000000000E+00 0.  1.
     999903    1    1    0    0    0 -0.65796655138E-02 -0.20279926849E-02  0.41052650015E-02  0.21546645988E-01  0.20000000000E-01 0.  0.
</event>
<event>
 7    1  0.4717691E-066  0.9118800E+02  0.7957747E-01            NaN
     999900   -1    0    0    0    0  0.00000000000E+00  0.00000000000E+00  0.99999998245E-14  0.93827000000E+00  0.93827000000E+00 0.  1.
        -11    1    1    0    0    0  0.36847402161E-03 -0.34608441631E-03  0.25022585988E-02  0.26034528272E-02  0.51100000000E-03 0. -1.
        -14    1    1    0    0    0  0.24623338563E-04  0.11586255710E-02 -0.34003100885E-03  0.12077419466E-02  0.00000000000E+00 0. -1.
         12    1    1    0    0    0  0.20664191082E-02 -0.15265340292E-02  0.26284468373E-02  0.36754764112E-02  0.00000000000E+00 0.  1.
         14    1    1    0    0    0 -0.10567394447E-02  0.37619786861E-02  0.47446531048E-03  0.39362798706E-02  0.00000000000E+00 0.  1.
     999901    1    1    0    0    0 -0.12964387100E-01 -0.13547453034E-01  0.28688338965E-02  0.90019988837E+00  0.90000000000E+00 0. -1.
     999903    1    1    0    0    0  0.11561610076E-01  0.10499467222E-01 -0.81339736343E-02  0.26647160573E-01  0.20000000000E-01 0.  0.
</event>
<event>
 7    1  0.4717691E-066  0.9118800E+02  0.7957747E-01            NaN
     999900   -1    0    0    0    0  0.00000000000E+00  0.00000000000E+00  0.99999998245E-14  0.93827000000E+00  0.93827000000E+00 0.  1.
        -11    1    1    0    0    0  0.33161530073E-02  0.15507518824E-02 -0.95539221006E-03  0.38178000791E-02  0.51100000000E-03 0. -1.
        -14    1    1    0    0    0 -0.19901649584E-02 -0.20557163185E-02  0.21256785593E-02  0.35644404163E-02  0.00000000000E+00 0. -1.
         12    1    1    0    0    0 -0.20730211940E-02  0.38537180395E-03 -0.49820985967E-02  0.54099200295E-02  0.00000000000E+00 0.  1.
         14    1    1    0    0    0  0.38406301247E-02  0.11016086708E-02  0.19559591337E-03  0.40002798876E-02  0.00000000000E+00 0.  1.
     999901    1    1    0    0    0 -0.58062221675E-02  0.97039561450E-04 -0.35708918936E-02  0.90002581791E+00  0.90000000000E+00 0. -1.
     999903    1    1    0    0    0  0.27126251879E-02 -0.10790556000E-02  0.71871082277E-02  0.21451741679E-01  0.20000000000E-01 0.  0.
</event>
<event>
 7    1  0.4717691E-066  0.9118800E+02  0.7957747E-01            NaN
     999900   -1    0    0    0    0  0.00000000000E+00  0.00000000000E+00  0.99999998245E-14  0.93827000000E+00  0.93827000000E+00 0. -1.
        -11    1    1    0    0    0  0.43519910711E-02 -0.95386075872E-03  0.32574275282E-02  0.55427097823E-02  0.51100000000E-03 0. -1.
        -14    1    1    0    0    0 -0.70802843494E-03 -0.77227299779E-04 -0.27012196323E-02  0.27935382264E-02  0.00000000000E+00 0. -1.
         12    1    1    0    0    0 -0.66518541748E-03 -0.47949760620E-02  0.12394603530E-02  0.49970520351E-02  0.00000000000E+00 0.  1.
         14    1    1    0    0    0 -0.84390575040E-03  0.23923056281E-02 -0.12327849026E-02  0.28204719020E-02  0.00000000000E+00 0.  1.
     999901    1    1    0    0    0 -0.38415411105E-02  0.16887259381E-02  0.84365836289E-02  0.90004932375E+00  0.90000000000E+00 0. -1.
     999903    1    1    0    0    0  0.17066696422E-02  0.17450325542E-02 -0.89994669753E-02  0.22066904308E-01  0.20000000000E-01 0.  0.
</event>
<event>
 7    1  0.4717691E-066  0.9118800E+02  0.7957747E-01            NaN
     999900   -1    0    0    0    0  0.00000000000E+00  0.00000000000E+00  0.99999998245E-14  0.93827000000E+00  0.93827000000E+00 0. -1.
        -11    1    1    0    0    0 -0.13121670065E-02  0.63501175691E-03 -0.19049117943E-02  0.24525154696E-02  0.51100000000E-03 0. -1.
        -14    1    1    0    0    0 -0.33960005625E-03  0.25962983871E-02  0.37754884349E-02  0.45946062329E-02  0.00000000000E+00 0. -1.
         12    1    1    0    0    0 -0.23160422090E-03 -0.29536247398E-02 -0.94117755919E-03  0.31085937040E-02  0.00000000000E+00 0.  1.
         14    1    1    0    0    0  0.42598987994E-02 -0.22168233497E-02  0.18860993645E-02  0.51593036699E-02  0.00000000000E+00 0.  1.
     999901    1    1    0    0    0 -0.18928526521E-02 -0.17405350598E-02 -0.13233387913E-01  0.90010095818E+00  0.90000000000E+00 0.  1.
     999903    1    1    0    0    0 -0.48367486370E-03  0.36796730054E-02  0.10417889467E-01  0.22854022748E-01  0.20000000000E-01 0.  0.
</event>
<event>
 7    1  0.4717691E-066  0.9118800E+02  0.7957747E-01            NaN
     999900   -1    0    0    0    0  0.00000000000E+00  0.00000000000E+00  0.99999998245E-14  0.93827000000E+00  0.93827000000E+00 0. -1.
        -11    1    1    0    0    0 -0.64018497274E-03 -0.96279547882E-03 -0.52183663086E-02  0.53692904433E-02  0.51100000000E-03 0. -1.
        -14    1    1    0    0    0  0.76700173856E-03 -0.22343965809E-02  0.57189744718E-04  0.23630680089E-02  0.00000000000E+00 0. -1.
         12    1    1    0    0    0  0.48425705151E-03  0.38731120678E-04 -0.12264789814E-02  0.13191875088E-02  0.00000000000E+00 0.  1.
         14    1    1    0    0    0  0.17625744015E-03  0.39413578260E-02  0.24195080185E-02  0.46281083878E-02  0.00000000000E+00 0.  1.
     999901    1    1    0    0    0 -0.90397736205E-02 -0.11510207260E-01  0.77166569267E-02  0.90015207003E+00  0.90000000000E+00 0. -1.
     999903    1    1    0    0    0  0.82524423630E-02  0.10727310373E-01 -0.37485094000E-02  0.24438275625E-01  0.20000000000E-01 0.  0.
</event>
<event>
 7    1  0.4717691E-066  0.9118800E+02  0.7957747E-01            NaN
     999900   -1    0    0    0    0  0.00000000000E+00  0.00000000000E+00  0.99999998245E-14  0.93827000000E+00  0.93827000000E+00 0.  1.
        -11    1    1    0    0    0 -0.24464747628E-02  0.28502777361E-02  0.26949024467E-02  0.46511226748E-02  0.51100000000E-03 0. -1.
        -14    1    1    0    0    0  0.59101118494E-02  0.45318922090E-03  0.76303795477E-04  0.59279528348E-02  0.00000000000E+00 0. -1.
         12    1    1    0    0    0 -0.14809908019E-02  0.11930185654E-03  0.10753598440E-02  0.18341116330E-02  0.00000000000E+00 0.  1.
         14    1    1    0    0    0 -0.33487378650E-02 -0.80939333202E-03 -0.10812687549E-02  0.36108593125E-02  0.00000000000E+00 0.  1.
     999901    1    1    0    0    0 -0.35679065471E-02 -0.40218327504E-02  0.54269542627E-02  0.90003241993E+00  0.90000000000E+00 0. -1.
     999903    1    1    0    0    0  0.49339981274E-02  0.14084572689E-02 -0.81922515940E-02  0.22213533613E-01  0.20000000000E-01 0.  0.
</event>
<event>
 7    1  0.4717691E-066  0.9118800E+02  0.7957747E-01            NaN
     999900   -1    0    0    0    0  0.00000000000E+00  0.00000000000E+00  0.99999998245E-14  0.93827000000E+00  0.93827000000E+00 0.  1.
        -11    1    1    0    0    0 -0.44040373314E-03  0.10432710177E-02 -0.11731126176E-02  0.17087083069E-02  0.51100000000E-03 0. -1.
        -14    1    1    0    0    0  0.31561462718E-02 -0.30891108899E-02  0.26617780718E-02  0.51564452758E-02  0.00000000000E+00 0. -1.
         12    1    1    0    0    0  0.63308539883E-03 -0.13249124218E-02 -0.25448157263E-03  0.14902855158E-02  0.00000000000E+00 0.  1.
         14    1    1    0    0    0 -0.95386845883E-03  0.22131853418E-02  0.27161641991E-02  0.36311984729E-02  0.00000000000E+00 0.  1.
     999901    1    1    0    0    0  0.65238673327E-02  0.10535218701E-01 -0.14565969954E-01  0.90020315438E+00  0.90000000000E+00 0. -1.
     999903    1    1    0    0    0 -0.89188268114E-02 -0.93776517489E-02  0.10615621873E-01  0.26080208047E-01  0.20000000000E-01 0.  0.
</event>
<event>
 7    1  0.4717691E-066  0.9118800E+02  0.7957747E-01            NaN
     999900   -1    0    0    0    0  0.00000000000E+00  0.00000000000E+00  0.99999998245E-14  0.93827000000E+00  0.93827000000E+00 0.  1.
        -11    1    1    0    0    0 -0.54478692660E-03  0.10563130312E-02 -0.18220362964E-02  0.22346201647E-02  0.51100000000E-03 0. -1.
        -14    1    1    0    0    0  0.63177243722E-03 -0.61754559714E-03  0.11898114722E-02  0.14819414011E-02  0.00000000000E+00 0. -1.
         12    1    1    0    0    0 -0.57258507944E-02 -0.29597282606E-02 -0.11410576058E-02  0.65457903385E-02  0.00000000000E+00 0.  1.
         14    1    1    0    0    0 -0.24597191469E-02  0.32245437303E-02 -0.19904324858E-02  0.45177120349E-02  0.00000000000E+00 0.  1.
     999901    1    1    0    0    0  0.10264923105E-01  0.47392673585E-02  0.14199012014E-01  0.90018300431E+00  0.90000000000E+00 0.  1.
     999903    1    1    0    0    0 -0.21663386745E-02 -0.54428502623E-02 -0.10435297098E-01  0.23306931753E-01  0.20000000000E-01 0.  0.
</event>
<event>
 7    1  0.4717691E-066  0.9118800E+02  0.7957747E-01            NaN
     999900   -1    0    0    0    0  0.00000000000E+00  0.00000000000E+00  0.99999998245E-14  0.93827000000E+00  0.93827000000E+00 0.  1.
        -11    1    1    0    0    0  0.20983940057E-02 -0.61766980307E-03 -0.93828111930E-04  0.22482655767E-02  0.51100000000E-03 0. -1.
        -14    1    1    0    0    0  0.11013464198E-03 -0.86171344426E-03  0.14162334160E-02  0.16614441874E-02  0.00000000000E+00 0. -1.
         12    1    1    0    0    0  0.14702214080E-02  0.32886463557E-02  0.83241577154E-02  0.90701900483E-02  0.00000000000E+00 0.  1.
         14    1    1    0    0    0  0.83427636787E-03 -0.48733548534E-03 -0.31926875694E-02  0.33356808674E-02  0.00000000000E+00 0.  1.
     999901    1    1    0    0    0 -0.68217655137E-02 -0.17552119441E-02  0.22150011304E-02  0.90003029031E+00  0.90000000000E+00 0.  1.
     999903    1    1    0    0    0  0.23087390901E-02  0.43328432109E-03 -0.86688765804E-02  0.21924129006E-01  0.20000000000E-01 0.  0.
</event>
<event>
 7    1  0.4717691E-066  0.9118800E+02  0.7957747E-01            NaN
     999900   -1    0    0    0    0  0.00000000000E+00  0.00000000000E+00  0.99999998245E-14  0.93827000000E+00  0.93827000000E+00 0.  1.
        -11    1    1    0    0    0 -0.16453182832E-02  0.13116193290E-02 -0.13898538503E-03  0.21697593080E-02  0.51100000000E-03 0. -1.
        -14    1    1    0    0    0  0.14370773037E-02  0.15118470874E-02 -0.20672953827E-02  0.29367640340E-02  0.00000000000E+00 0. -1.
         12    1    1    0    0    0  0.25827781620E-02 -0.15297802841E-02  0.28205949595E-02  0.41190686663E-02  0.00000000000E+00 0.  1.
         14    1    1    0    0    0 -0.18856712049E-02  0.52782995217E-02  0.28075793314E-03  0.56120430104E-02  0.00000000000E+00 0.  1.
     999901    1    1    0    0    0  0.20464240086E-02 -0.66050742009E-03 -0.11111372464E-01  0.90007115648E+00  0.90000000000E+00 0. -1.
     999903    1    1    0    0    0 -0.25352899862E-02 -0.59114782340E-02  0.10216300339E-01  0.23361208506E-01  0.20000000000E-01 0.  0.
</event>
<event>
 7    1  0.4717691E-066  0.9118800E+02  0.7957747E-01            NaN
     999900   -1    0    0    0    0  0.00000000000E+00  0.00000000000E+00  0.99999998245E-14  0.93827000000E+00  0.93827000000E+00 0. -1.
        -11    1    1    0    0    0  0.12393934481E-02 -0.25600809587E-02  0.13001960016E-03  0.28927731903E-02  0.51100000000E-03 0. -1.
        -14    1    1    0    0    0 -0.52326946883E-04 -0.25848651708E-02 -0.37040089994E-02  0.45170730266E-02  0.00000000000E+00 0. -1.
         12    1    1    0    0    0 -0.38798027680E-02  0.20823549310E-02  0.91644377825E-03  0.44976594775E-02  0.00000000000E+00 0.  1.
         14    1    1    0    0    0  0.74916831088E-03 -0.48584452047E-03  0.21107231204E-03  0.91752361114E-03  0.00000000000E+00 0.  1.
     999901    1    1    0    0    0  0.10702587919E-01  0.11461066615E-01 -0.75329530726E-02  0.90016812142E+00  0.90000000000E+00 0.  1.
     999903    1    1    0    0    0 -0.87590199634E-02 -0.79126308958E-02  0.99794263815E-02  0.25276849276E-01  0.20000000000E-01 0.  0.
</event>
<event>
 7    1  0.4717691E-066  0.9118800E+02  0.7957747E-01            NaN
     999900   -1    0    0    0    0  0.00000000000E+00  0.00000000000E+00  0.99999998245E-14  0.93827000000E+00  0.93827000000E+00 0. -1.
        -11    1    1    0    0    0  0.26700863040E-04  0.57021087688E-03  0.20574016381E-02  0.21954215725E-02  0.51100000000E-03 0. -1.
        -14    1    1    0    0    0  0.62422639502E-03 -0.18864377948E-02  0.18613364138E-02  0.27226603518E-02  0.00000000000E+00 0. -1.
         12    1    1    0    0    0  0.41541736759E-02  0.19837476981E-02 -0.40674412011E-02  0.61430034823E-02  0.00000000000E+00 0.  1.
         14    1    1    0    0    0 -0.45309206420E-02  0.36725421648E-02 -0.19717262921E-02  0.61566640632E-02  0.00000000000E+00 0.  1.
     999901    1    1    0    0    0 -0.21492535761E-02 -0.84083147136E-02  0.66309557752E-02  0.90006626902E+00  0.90000000000E+00 0.  1.
     999903    1    1    0    0    0  0.18750732841E-02  0.40682517685E-02 -0.45105263339E-02  0.20985981513E-01  0.20000000000E-01 0.  0.
</event>
<event>
 7    1  0.4717691E-066  0.9118800E+02  0.7957747E-01            NaN
     999900   -1    0    0    0    0  0.00000000000E+00  0.00000000000E+00  0.99999998245E-14  0.93827000000E+00  0.93827000000E+00 0. -1.
        -11    1    1    0    0    0  0.29580554395E-02 -0.25638161598E-02  0.26080963884E-02  0.47314409068E-02  0.51100000000E-03 0. -1.
        -14    1    1    0    0    0 -0.12084343167E-02 -0.22667381294E-02  0.45156968429E-03  0.26081277624E-02  0.00000000000E+00 0. -1.
         12    1    1    0    0    0  0.74490069201E-03  0.12107132672E-02 -0.17975676567E-02  0.22917140173E-02  0.00000000000E+00 0.  1.
         14    1    1    0    0    0 -0.15562106764E-02 -0.10887094178E-02 -0.20722949250E-02  0.28109582213E-02  0.00000000000E+00 0.  1.
     999901    1    1    0    0    0 -0.86443050088E-03  0.18530883433E-01  0.88080011876E-02  0.90023425938E+00  0.90000000000E+00 0. -1.
     999903    1    1    0    0    0 -0.73880637490E-04 -0.13822332993E-01 -0.79978046784E-02  0.25593499710E-01  0.20000000000E-01 0.  0.
</event>
<event>
 7    1  0.4717691E-066  0.9118800E+02  0.7957747E-01            NaN
     999900   -1    0    0    0    0  0.00000000000E+00  0.00000000000E+00  0.99999998245E-14  0.93827000000E+00  0.93827000000E+00 0. -1.
        -11    1    1    0    0    0  0.21069854441E-02  0.31109653944E-02  0.33206535422E-02  0.50403724360E-02  0.51100000000E-03 0. -1.
        -14    1    1    0    0    0 -0.15019096909E-02  0.10766747696E-03  0.16397563501E-02  0.22262358126E-02  0.00000000000E+00 0. -1.
         12    1    1    0    0    0  0.44421824470E-03 -0.11953256907E-02 -0.47529230290E-02  0.49210172399E-02  0.00000000000E+00 0.  1.
         14    1    1    0    0    0 -0.10254627081E-03 -0.19036498239E-02  0.20918109551E-02  0.28302069644E-02  0.00000000000E+00 0.  1.
     999901    1    1    0    0    0  0.85156510023E-02 -0.66549828559E-02  0.25004923130E-04  0.90006488974E+00  0.90000000000E+00 0.  1.
     999903    1    1    0    0    0 -0.94623987293E-02  0.65353254992E-02 -0.23243027415E-02  0.23187277812E-01  0.20000000000E-01 0.  0.
</event>
<event>
 7    1  0.4717691E-066  0.9118800E+02  0.7957747E-01            NaN
     999900   -1    0    0    0    0  0.00000000000E+00  0.00000000000E+00  0.99999998245E-14  0.93827000000E+00  0.93827000000E+00 0. -1.
        -11    1    1    0    0    0  0.70404522931E-03 -0.61421843908E-03 -0.30169403183E-02  0.31993739794E-02  0.51100000000E-03 0. -1.
        -14    1    1    0    0    0 -0.22637180448E-02  0.11771218060E-02  0.18186027517E-02  0.31332652459E-02  0.00000000000E+00 0. -1.
         12    1    1    0    0    0 -0.61896611461E-02 -0.17130712597E-02  0.67475797018E-03  0.64576943690E-02  0.00000000000E+00 0.  1.
         14    1    1    0    0    0  0.68857718611E-03  0.10840445415E-04 -0.23333399712E-03  0.72711815457E-03  0.00000000000E+00 0.  1.
     999901    1    1    0    0    0 -0.57860332878E-02  0.14007677749E-02 -0.59971969614E-02  0.90003966952E+00  0.90000000000E+00 0.  1.
     999903    1    1    0    0    0  0.12846790063E-01 -0.26144032751E-03  0.67541105549E-02  0.24712878735E-01  0.20000000000E-01 0.  0.
</event>
<event>
 7    1  0.4717691E-066  0.9118800E+02  0.7957747E-01            NaN
     999900   -1    0    0    0    0  0.00000000000E+00  0.00000000000E+00  0.99999998245E-14  0.93827000000E+00  0.93827000000E+00 0. -1.
        -11    1    1    0    0    0  0.62374121374E-03 -0.18750891443E-03  0.12903168695E-03  0.83784418059E-03  0.51100000000E-03 0. -1.
        -14    1    1    0    0    0 -0.31259904480E-02  0.43560258127E-02 -0.28211365616E-02  0.60585137337E-02  0.00000000000E+00 0. -1.
         12    1    1    0    0    0 -0.21587355166E-02 -0.25388919343E-02 -0.15580924301E-02  0.36788263490E-02  0.00000000000E+00 0.  1.
         14    1    1    0    0    0 -0.12658634218E-02  0.48472791953E-02  0.23407504845E-02  0.55297051124E-02  0.00000000000E+00 0.  1.
     999901    1    1    0    0    0  0.13683333687E-01 -0.11079182297E-01  0.33483355174E-02  0.90017842301E+00  0.90000000000E+00 0. -1.
     999903    1    1    0    0    0 -0.77564855144E-02  0.46022781375E-02 -0.14388886971E-02  0.21986687615E-01  0.20000000000E-01 0.  0.
</event>
<event>
 7    1  0.4717691E-066  0.9118800E+02  0.7957747E-01            NaN
     999900   -1    0    0    0    0  0.00000000000E+00  0.00000000000E+00  0.99999998245E-14  0.93827000000E+00  0.93827000000E+00 0. -1.
        -11    1    1    0    0    0 -0.27544120413E-03 -0.82570810392E-03  0.40135602288E-02  0.41385321601E-02  0.51100000000E-03 0. -1.
        -14    1    1    0    0    0 -0.58147876526E-03 -0.56912336918E-03 -0.40860718609E-02  0.41662935825E-02  0.00000000000E+00 0. -1.
         12    1    1    0    0    0 -0.30346157349E-02 -0.25030703792E-02  0.18450140915E-02  0.43449201350E-02  0.00000000000E+00 0.  1.
         14    1    1    0    0    0  0.18960797690E-02  0.77834659291E-03  0.99493824081E-03  0.22783423825E-02  0.00000000000E+00 0.  1.
     999901    1    1    0    0    0  0.12178416465E-01  0.90242039506E-02 -0.23119404894E-02  0.90013059894E+00  0.90000000000E+00 0. -1.
     999903    1    1    0    0    0 -0.10182960530E-01 -0.59046486913E-02 -0.45550021087E-03  0.23211312797E-01  0.20000000000E-01 0.  0.
</event>
<event>
 7    1  0.4717691E-066  0.9118800E+02  0.7957747E-01            NaN
     999900   -1    0    0    0    0  0.00000000000E+00  0.00000000000E+00  0.99999998245E-14  0.93827000000E+00  0.93827000000E+00 0. -1.
        -11    1    1    0    0    0  0.39057714327E-03 -0.52725588844E-03  0.59826225277E-02  0.60401525300E-02  0.51100000000E-03 0. -1.
        -14    1    1    0    0    0  0.88663726848E-03  0.25083342162E-03 -0.65281570895E-03  0.11292525852E-02  0.00000000000E+00 0. -1.
         12    1    1    0    0    0  0.40224604329E-02 -0.17579580959E-02 -0.10710447150E-03  0.43911360682E-02  0.00000000000E+00 0.  1.
         14    1    1    0    0    0  0.86260819772E-03  0.50126839068E-02 -0.19397383007E-02  0.54436823500E-02  0.00000000000E+00 0.  1.
     999901    1    1    0    0    0 -0.36280047864E-03 -0.64882228184E-02 -0.98963488285E-03  0.90002400414E+00  0.90000000000E+00 0.  1.
     999903    1    1    0    0    0 -0.57994825638E-02  0.35099194744E-02 -0.22933291637E-02  0.21241772322E-01  0.20000000000E-01 0.  0.
</event>
<event>
 7    1  0.4717691E-066  0.9118800E+02  0.7957747E-01            NaN
     999900   -1    0    0    0    0  0.00000000000E+00  0.00000000000E+00  0.99999998245E-14  0.93827000000E+00  0.93827000000E+00 0.  1.
        -11    1    1    0    0    0  0.18221594387E-02 -0.48124460905E-02  0.97910314172E-03  0.52630472500E-02  0.51100000000E-03 0. -1.
        -14    1    1    0    0    0 -0.47736010600E-02  0.25577296435E-02 -0.40450677413E-02  0.67595725486E-02  0.00000000000E+00 0. -1.
         12    1    1    0    0    0 -0.12105928944E-02  0.97299111044E-03 -0.13037757662E-02  0.20278259555E-02  0.00000000000E+00 0.  1.
         14    1    1    0    0    0  0.88619689208E-03 -0.18364864582E-02 -0.52880026108E-03  0.21065747456E-02  0.00000000000E+00 0.  1.
     999901    1    1    0    0    0 -0.37572140514E-02  0.21447257751E-02  0.10834384700E-01  0.90007560816E+00  0.90000000000E+00 0.  1.
     999903    1    1    0    0    0  0.70330516751E-02  0.97348601968E-03 -0.59358440729E-02  0.22037371344E-01  0.20000000000E-01 0.  0.
</event>
<event>
 7    1  0.4717691E-066  0.9118800E+02  0.7957747E-01            NaN
     999900   -1    0    0    0    0  0.00000000000E+00  0.00000000000E+00  0.99999998245E-14  0.93827000000E+00  0.93827000000E+00 0. -1.
        -11    1    1    0    0    0  0.10067605232E-02 -0.42343118042E-03 -0.19261860388E-04  0.12059654784E-02  0.51100000000E-03 0.  1.
        -14    1    1    0    0    0  0.86879016675E-03 -0.15236101788E-02 -0.54950742309E-02  0.57681908025E-02  0.00000000000E+00 0. -1.
         12    1    1    0    0    0  0.30988078284E-02  0.88058553503E-03 -0.12960746509E-03  0.32241028112E-02  0.00000000000E+00 0.  1.
         14    1    1    0    0    0 -0.21081113868E-02 -0.22490157440E-02 -0.43737512879E-02  0.53508789712E-02  0.00000000000E+00 0.  1.
     999901    1    1    0    0    0 -0.10294994116E-01  0.51062948657E-02  0.16899248660E-01  0.90023199552E+00  0.90000000000E+00 0. -1.
     999903    1    1    0    0    0  0.74287469842E-02 -0.17908232975E-02 -0.68815538153E-02  0.22488866418E-01  0.20000000000E-01 0.  0.
</event>
<event>
 7    1  0.4717691E-066  0.9118800E+02  0.7957747E-01            NaN
     999900   -1    0    0    0    0  0.00000000000E+00  0.00000000000E+00  0.99999998245E-14  0.93827000000E+00  0.93827000000E+00 0.  1.
        -11    1    1    0    0    0  0.29250893936E-02 -0.53397763507E-04  0.17422201407E-02  0.34431745963E-02  0.51100000000E-03 0. -1.
        -14    1    1    0    0    0  0.17176795538E-02  0.70501972082E-03 -0.39090814627E-02  0.43276314236E-02  0.00000000000E+00 0. -1.
         12    1    1    0    0    0 -0.32504094305E-02 -0.19916228622E-02 -0.41619298139E-03  0.38347020339E-02  0.00000000000E+00 0.  1.
         14    1    1    0    0    0  0.30517080438E-02  0.91133088492E-03 -0.12428024397E-02  0.34187722753E-02  0.00000000000E+00 0.  1.
     999901    1    1    0    0    0 -0.10576937554E-01  0.85365972209E-02 -0.18455133795E-02  0.90010452227E+00  0.90000000000E+00 0. -1.
     999903    1    1    0    0    0  0.61328699936E-02 -0.81079272009E-02  0.56713701226E-02  0.23141197396E-01  0.20000000000E-01 0.  0.
</event>
<event>
 7    1  0.4717691E-066  0.9118800E+02  0.7957747E-01            NaN
     999900   -1    0    0    0    0  0.00000000000E+00  0.00000000000E+00  0.99999998245E-14  0.93827000000E+00  0.93827000000E+00 0.  1.
        -11    1    1    0    0    0  0.24985321058E-03 -0.30435803329E-02  0.88532616150E-03  0.32203619799E-02  0.51100000000E-03 0. -1.
        -14    1    1    0    0    0  0.11294434402E-02  0.96304030420E-03 -0.52569972032E-02  0.54625185315E-02  0.00000000000E+00 0. -1.
         12    1    1    0    0    0 -0.20852376325E-02  0.10112642915E-02 -0.49823459930E-03  0.23704660232E-02  0.00000000000E+00 0.  1.
         14    1    1    0    0    0 -0.74857894504E-03 -0.24215011653E-02  0.91975847256E-03  0.26962926359E-02  0.00000000000E+00 0.  1.
     999901    1    1    0    0    0  0.92329026576E-02 -0.74463913949E-02 -0.20858833492E-03  0.90007818480E+00  0.90000000000E+00 0.  1.
     999903    1    1    0    0    0 -0.77783827307E-02  0.10937168297E-01  0.41587355034E-02  0.24442176034E-01  0.20000000000E-01 0.  0.
</event>
<event>
 7    1  0.4717691E-066  0.9118800E+02  0.7957747E-01            NaN
     999900   -1    0    0    0    0  0.00000000000E+00  0.00000000000E+00  0.99999998245E-14  0.93827000000E+00  0.93827000000E+00 0.  1.
        -11    1    1    0    0    0 -0.11648108711E-02 -0.21009788014E-02 -0.49563040658E-03  0.25055272477E-02  0.51100000000E-03 0. -1.
        -14    1    1    0    0    0  0.65742791134E-02  0.61541221179E-02  0.12049686317E-02  0.90855002232E-02  0.00000000000E+00 0. -1.
         12    1    1    0    0    0 -0.46461223774E-03  0.17013396862E-03  0.70575673209E-03  0.86191801445E-03  0.00000000000E+00 0.  1.
         14    1    1    0    0    0  0.37419153692E-02  0.34046522985E-02 -0.54118100946E-03  0.50878742898E-02  0.00000000000E+00 0.  1.
     999901    1    1    0    0    0 -0.63245003963E-02 -0.10335446551E-01 -0.44731138424E-02  0.90009267829E+00  0.90000000000E+00 0.  1.
     999903    1    1    0    0    0 -0.23622709774E-02  0.27075169674E-02  0.35991998946E-02  0.20636501937E-01  0.20000000000E-01 0.  0.
</event>
<event>
 7    1  0.4717691E-066  0.9118800E+02  0.7957747E-01            NaN
     999900   -1    0    0    0    0  0.00000000000E+00  0.00000000000E+00  0.99999998245E-14  0.93827000000E+00  0.93827000000E+00 0.  1.
        -11    1    1    0    0    0  0.75073460886E-02  0.16988210607E-03  0.21333754004E-02  0.78231398315E-02  0.51100000000E-03 0. -1.
        -14    1    1    0    0    0 -0.53788887114E-03  0.61268195858E-03 -0.20190000416E-02  0.21773986286E-02  0.00000000000E+00 0. -1.
         12    1    1    0    0    0 -0.13571834527E-02  0.21382647631E-03 -0.21773481316E-03  0.13910704997E-02  0.00000000000E+00 0.  1.
         14    1    1    0    0    0  0.21772126104E-02 -0.81225235950E-03  0.69428525431E-03  0.24252918712E-02  0.00000000000E+00 0.  1.
     999901    1    1    0    0    0 -0.12729772131E-01 -0.11700506102E-01 -0.62283535794E-02  0.90018761452E+00  0.90000000000E+00 0. -1.
     999903    1    1    0    0    0  0.49402857558E-02  0.11516367920E-01  0.56374277794E-02  0.24265484652E-01  0.20000000000E-01 0.  0.
</event>
<event>
 7    1  0.4717691E-066  0.9118800E+02  0.7957747E-01            NaN
     999900   -1    0    0    0    0  0.00000000000E+00  0.00000000000E+00  0.99999998245E-14  0.93827000000E+00  0.93827000000E+00 0. -1.
        -11    1    1    0    0    0 -0.94398158821E-03 -0.43414388417E-02  0.45358739091E-02  0.63698089119E-02  0.51100000000E-03 0. -1.
        -14    1    1    0    0    0  0.28980988712E-03 -0.37345314809E-02 -0.23928557473E-02  0.44448255061E-02  0.00000000000E+00 0. -1.
         12    1    1    0    0    0  0.21272254394E-02  0.17115389647E-02  0.55051576871E-03  0.27852327209E-02  0.00000000000E+00 0.  1.
         14    1    1    0    0    0 -0.24627385998E-02 -0.14762164876E-03 -0.16116111279E-02  0.29468905629E-02  0.00000000000E+00 0.  1.
     999901    1    1    0    0    0  0.82404534648E-02  0.33063524868E-02 -0.36933709906E-02  0.90005137522E+00  0.90000000000E+00 0.  1.
     999903    1    1    0    0    0 -0.72507686034E-02  0.32057005198E-02  0.26114481880E-02  0.21671867082E-01  0.20000000000E-01 0.  0.
</event>
<event>
 7    1  0.4717691E-066  0.9118800E+02  0.7957747E-01            NaN
     999900   -1    0    0    0    0  0.00000000000E+00  0.00000000000E+00  0.99999998245E-14  0.93827000000E+00  0.93827000000E+00 0.  1.
        -11    1    1    0    0    0  0.51450952922E-03 -0.21144556111E-03 -0.12968929213E-02  0.15008269488E-02  0.51100000000E-03 0. -1.
        -14    1    1    0    0    0  0.33103009171E-02 -0.48959452607E-02  0.48506824249E-02  0.76457499399E-02  0.00000000000E+00 0. -1.
         12    1    1    0    0    0  0.14036331953E-02 -0.33708199925E-02 -0.29000936550E-02  0.46629557983E-02  0.00000000000E+00 0.  1.
         14    1    1    0    0    0 -0.91788772316E-03 -0.13645291578E-02  0.10538779263E-02  0.19532322899E-02  0.00000000000E+00 0.  1.
     999901    1    1    0    0    0 -0.12113626155E-01  0.15094640136E-01 -0.45819472868E-02  0.90021974114E+00  0.90000000000E+00 0.  1.
     999903    1    1    0    0    0  0.78030702368E-02 -0.52519001635E-02  0.28743735121E-02  0.22287493882E-01  0.20000000000E-01 0.  0.
</event>
<event>
 7    1  0.4717691E-066  0.9118800E+02  0.7957747E-01            NaN
     999900   -1    0    0    0    0  0.00000000000E+00  0.00000000000E+00  0.99999998245E-14  0.93827000000E+00  0.93827000000E+00 0. -1.
        -11    1    1    0    0    0 -0.11365497483E-02  0.10030063547E-02  0.21199650438E-04  0.15997929563E-02  0.51100000000E-03 0. -1.
        -14    1    1    0    0    0  0.20089499366E-02 -0.10644602369E-02  0.21292982100E-02  0.31149424249E-02  0.00000000000E+00 0. -1.
         12    1    1    0    0    0 -0.45811537316E-02 -0.68905303985E-03  0.11752445469E-02  0.47794312789E-02  0.00000000000E+00 0.  1.
         14    1    1    0    0    0  0.83963784359E-03  0.43697429860E-02 -0.66042073406E-02  0.79633661268E-02  0.00000000000E+00 0.  1.
     999901    1    1    0    0    0  0.64171449987E-02 -0.73109106049E-02  0.11040137912E-02  0.90005324732E+00  0.90000000000E+00 0.  1.
     999903    1    1    0    0    0 -0.35480292990E-02  0.36916745409E-02  0.21744511421E-02  0.20759219894E-01  0.20000000000E-01 0.  0.
</event>
<event>
 7    1  0.4717691E-066  0.9118800E+02  0.7957747E-01            NaN
     999900   -1    0    0    0    0  0.00000000000E+00  0.00000000000E+00  0.99999998245E-14  0.93827000000E+00  0.93827000000E+00 0. -1.
        -11    1    1    0    0    0  0.17047819248E-03  0.10184788854E-02  0.10192848844E-02  0.15383187998E-02  0.51100000000E-03 0. -1.
        -14    1    1    0    0    0  0.12029777018E-02  0.31521082923E-02 -0.93135269771E-03  0.35000514117E-02  0.00000000000E+00 0. -1.
         12    1    1    0    0    0 -0.14742468812E-02  0.52088033710E-02 -0.33309655965E-02  0.63561283994E-02  0.00000000000E+00 0.  1.
         14    1    1    0    0    0  0.18148119276E-04 -0.27530759915E-02  0.94109422311E-03  0.29095386414E-02  0.00000000000E+00 0.  1.
     999901    1    1    0    0    0  0.11346910370E-01 -0.11060764169E-01 -0.22822834709E-02  0.90014237857E+00  0.90000000000E+00 0. -1.
     999903    1    1    0    0    0 -0.11264267502E-01  0.44344496122E-02  0.45842226575E-02  0.23823584178E-01  0.20000000000E-01 0.  0.
</event>
<event>
 7    1  0.4717691E-066  0.9118800E+02  0.7957747E-01            NaN
     999900   -1    0    0    0    0  0.00000000000E+00  0.00000000000E+00  0.99999998245E-14  0.93827000000E+00  0.93827000000E+00 0.  1.
        -11    1    1    0    0    0 -0.11458252826E-02 -0.12882297796E-03 -0.13571772620E-02  0.18527174794E-02  0.51100000000E-03 0. -1.
        -14    1    1    0    0    0 -0.13652953794E-02  0.25582903959E-02  0.64093478299E-04  0.29005153329E-02  0.00000000000E+00 0. -1.
         12    1    1    0    0    0  0.27229915989E-02 -0.75129176817E-02 -0.45309375255E-02  0.91862946936E-02  0.00000000000E+00 0.  1.
         14    1    1    0    0    0  0.10393849641E-02  0.87518455810E-03  0.17575360638E-02  0.22215314830E-02  0.00000000000E+00 0.  1.
     999901    1    1    0    0    0 -0.21447212369E-03  0.71484263277E-02 -0.47245753537E-02  0.90004081441E+00  0.90000000000E+00 0. -1.
     999903    1    1    0    0    0 -0.10367837773E-02 -0.29401606220E-02  0.87910605991E-02  0.22068126598E-01  0.20000000000E-01 0.  0.
</event>
<event>
 7    1  0.4717691E-066  0.9118800E+02  0.7957747E-01            NaN
     999900   -1    0    0    0    0  0.00000000000E+00  0.00000000000E+00  0.99999998245E-14  0.93827000000E+00  0.93827000000E+00 0.  1.
        -11    1    1    0    0    0 -0.48299193165E-04  0.37140529112E-02 -0.50353184210E-02  0.62779036660E-02  0.51100000000E-03 0. -1.
        -14    1    1    0    0    0  0.12003273674E-02 -0.27012638696E-02  0.11963858708E-03  0.29583653719E-02  0.00000000000E+00 0. -1.
         12    1    1    0    0    0 -0.21269017375E-02 -0.24337844332E-03  0.29921696450E-02  0.36791334920E-02  0.00000000000E+00 0.  1.
         14    1    1    0    0    0 -0.16003754624E-02 -0.38405477166E-02  0.49457008044E-03  0.41899412822E-02  0.00000000000E+00 0.  1.
     999901    1    1    0    0    0  0.49238487913E-02  0.93625182000E-02  0.18049158146E-02  0.90006397481E+00  0.90000000000E+00 0. -1.
     999903    1    1    0    0    0 -0.23485997656E-02 -0.62913810817E-02 -0.37597570612E-03  0.21100681375E-01  0.20000000000E-01 0.  0.
</event>
<event>
 7    1  0.4717691E-066  0.9118800E+02  0.7957747E-01            NaN
     999900   -1    0    0    0    0  0.00000000000E+00  0.00000000000E+00  0.99999998245E-14  0.93827000000E+00  0.93827000000E+00 0. -1.
        -11    1    1    0    0    0  0.13168925665E-02 -0.10755345968E-02  0.93699816404E-03  0.20075027422E-02  0.51100000000E-03 0. -1.
        -14    1    1    0    0    0 -0.47290541687E-02  0.46131125503E-03 -0.11351031509E-02  0.48852042503E-02  0.00000000000E+00 0. -1.
         12    1    1    0    0    0 -0.14482769718E-02  0.13910669191E-02 -0.38534188106E-02  0.43452744321E-02  0.00000000000E+00 0.  1.
         14    1    1    0    0    0 -0.25918674726E-02  0.12077996175E-02  0.28780732270E-02  0.40570755984E-02  0.00000000000E+00 0.  1.
     999901    1    1    0    0    0  0.16259619691E-01 -0.61566381834E-04 -0.50873787238E-02  0.90016124136E+00  0.90000000000E+00 0. -1.
     999903    1    1    0    0    0 -0.88073136441E-02 -0.19230768131E-02  0.62608292943E-02  0.22813701618E-01  0.20000000000E-01 0.  0.
</event>
<event>
 7    1  0.4717691E-066  0.9118800E+02  0.7957747E-01            NaN
     999900   -1    0    0    0    0  0.00000000000E+00  0.00000000000E+00  0.99999998245E-14  0.93827000000E+00  0.93827000000E+00 0.  1.
        -11    1    1    0    0    0 -0.13237777565E-02  0.10784145418E-02 -0.44480034299E-02  0.47917868259E-02  0.51100000000E-03 0. -1.
        -14    1    1    0    0    0  0.11762981478E-03 -0.10757268629E-03  0.30872494270E-02  0.30913617842E-02  0.00000000000E+00 0. -1.
         12    1    1    0    0    0  0.20529393304E-02  0.43793997949E-02 -0.44918769796E-02  0.66008076216E-02  0.00000000000E+00 0.  1.
         14    1    1    0    0    0  0.17872723371E-02  0.64130481393E-04  0.17895305293E-02  0.25299949883E-02  0.00000000000E+00 0.  1.
     999901    1    1    0    0    0  0.59712432385E-03 -0.81243348138E-02  0.95688419355E-02  0.90008773134E+00  0.90000000000E+00 0. -1.
     999903    1    1    0    0    0 -0.32311880496E-02  0.27099626821E-02 -0.55057414823E-02  0.21168317440E-01  0.20000000000E-01 0.  0.
</event>
<event>
 7    1  0.4717691E-066  0.9118800E+02  0.7957747E-01            NaN
     999900   -1    0    0    0    0  0.00000000000E+00  0.00000000000E+00  0.99999998245E-14  0.93827000000E+00  0.93827000000E+00 0.  1.
        -11    1    1    0    0    0 -0.14654379833E-02  0.12491533158E-02 -0.53163743630E-02  0.56773981591E-02  0.51100000000E-03 0. -1.
        -14    1    1    0    0    0  0.64094661754E-03  0.19645615406E-03  0.79148639008E-03  0.10372358906E-02  0.00000000000E+00 0. -1.
         12    1    1    0    0    0 -0.17742018223E-02  0.11138877313E-02  0.34959175249E-03  0.21238531911E-02  0.00000000000E+00 0.  1.
         14    1    1    0    0    0 -0.74946462491E-03 -0.29895707291E-02 -0.21292599212E-02  0.37460616893E-02  0.00000000000E+00 0.  1.
     999901    1    1    0    0    0  0.37972253951E-02  0.15871058866E-01  0.96093840892E-02  0.90019922778E+00  0.90000000000E+00 0.  1.
     999903    1    1    0    0    0 -0.44906758219E-03 -0.15440985338E-01 -0.33048279477E-02  0.25486223292E-01  0.20000000000E-01 0.  0.
</event>
<event>
 7    1  0.4717691E-066  0.9118800E+02  0.7957747E-01            NaN
     999900   -1    0    0    0    0  0.00000000000E+00  0.00000000000E+00  0.99999998245E-14  0.93827000000E+00  0.93827000000E+00 0.  1.
        -11    1    1    0    0    0  0.21293186685E-02 -0.64043013716E-03 -0.35552829118E-03  0.23090409521E-02  0.51100000000E-03 0. -1.
        -14    1    1    0    0    0 -0.12739241846E-02 -0.20164645636E-02 -0.70967202336E-03  0.24885028722E-02  0.00000000000E+00 0. -1.
         12    1    1    0    0    0  0.93962061207E-03  0.32292771406E-02  0.11912415631E-02  0.35679369680E-02  0.00000000000E+00 0.  1.
         14    1    1    0    0    0  0.21658875234E-02  0.43154597360E-02 -0.27899575294E-02  0.55765692422E-02  0.00000000000E+00 0.  1.
     999901    1    1    0    0    0 -0.10276829502E-01 -0.10796543485E-01 -0.77965805102E-02  0.90015718919E+00  0.90000000000E+00 0.  1.
     999903    1    1    0    0    0  0.63159268824E-02  0.59087013089E-02  0.10460496791E-01  0.24170760779E-01  0.20000000000E-01 0.  0.
</event>
<event>
 7    1  0.4717691E-066  0.9118800E+02  0.7957747E-01            NaN
     999900   -1    0    0    0    0  0.00000000000E+00  0.00000000000E+00  0.99999998245E-14  0.93827000000E+00  0.93827000000E+00 0.  1.
        -11    1    1    0    0    0  0.11026444455E-02  0.99599358677E-04  0.17353945753E-02  0.21209573634E-02  0.51100000000E-03 0. -1.
        -14    1    1    0    0    0  0.29121097556E-03  0.24354522319E-02 -0.68554627723E-02  0.72810439656E-02  0.00000000000E+00 0. -1.
         12    1    1    0    0    0 -0.21804028545E-03 -0.99929440059E-03 -0.10862763928E-02  0.14920212018E-02  0.00000000000E+00 0.  1.
         14    1    1    0    0    0 -0.20354353576E-03  0.13672028586E-04  0.82712257654E-03  0.85190882842E-03  0.00000000000E+00 0.  1.
     999901    1    1    0    0    0  0.67171854409E-03 -0.16920740432E-02  0.22294781391E-01  0.90027794130E+00  0.90000000000E+00 0.  1.
     999903    1    1    0    0    0 -0.16439901440E-02  0.14264482463E-03 -0.16915559378E-01  0.26246127337E-01  0.20000000000E-01 0.  0.
</event>
<event>
 7    1  0.5483206E-066  0.9118800E+02  0.7957747E-01            NaN
     999900   -1    0    0    0    0  0.00000000000E+00  0.00000000000E+00  0.99999998245E-14  0.93827000000E+00  0.93827000000E+00 0. -1.
        -11    1    1    0    0    0 -0.21961053347E-02  0.24505616307E-02  0.63321802965E-03  0.33897222629E-02  0.51100000000E-03 0. -1.
        -14    1    1    0    0    0  0.51748922031E-02 -0.93577292526E-03 -0.15861816098E-02  0.54928273576E-02  0.00000000000E+00 0. -1.
         12    1    1    0    0    0  0.37760314767E-02 -0.39703599117E-03  0.24830496199E-02  0.45366933670E-02  0.00000000000E+00 0.  1.
         14    1    1    0    0    0 -0.32182139261E-02 -0.13759435762E-02 -0.27075910558E-03  0.35104746250E-02  0.00000000000E+00 0.  1.
     999901    1    1    0    0    0 -0.10619803041E-01 -0.22414599156E-03 -0.27276867051E-02  0.90006681459E+00  0.90000000000E+00 0.  1.
     999903    1    1    0    0    0  0.70831986218E-02  0.48233685346E-03  0.14683597709E-02  0.21273467794E-01  0.20000000000E-01 0.  0.
</event>
<event>
 7    1  0.4717691E-066  0.9118800E+02  0.7957747E-01            NaN
     999900   -1    0    0    0    0  0.00000000000E+00  0.00000000000E+00  0.99999998245E-14  0.93827000000E+00  0.93827000000E+00 0. -1.
        -11    1    1    0    0    0 -0.44331649240E-03  0.37728170539E-02  0.83085203310E-03  0.39220038418E-02  0.51100000000E-03 0. -1.
        -14    1    1    0    0    0  0.10381545387E-02 -0.41408195015E-02  0.59958930802E-04  0.42693964519E-02  0.00000000000E+00 0. -1.
         12    1    1    0    0    0 -0.20018684531E-02  0.21240388948E-02 -0.52008806135E-02  0.59639062439E-02  0.00000000000E+00 0.  1.
         14    1    1    0    0    0  0.48062821798E-03  0.36112111549E-03  0.59671726420E-05  0.60120508241E-03  0.00000000000E+00 0.  1.
     999901    1    1    0    0    0  0.97903101635E-04 -0.85607879837E-03 -0.79007503252E-02  0.90003509060E+00  0.90000000000E+00 0.  1.
     999903    1    1    0    0    0  0.82849908713E-03 -0.12610787643E-02  0.12204852802E-01  0.23478397780E-01  0.20000000000E-01 0.  0.
</event>
<event>
 7    1  0.4717691E-066  0.9118800E+02  0.7957747E-01            NaN
     999900   -1    0    0    0    0  0.00000000000E+00  0.00000000000E+00  0.99999998245E-14  0.93827000000E+00  0.93827000000E+00 0. -1.
        -11    1    1    0    0    0  0.15494185805E-02 -0.72170157904E-03  0.51326889484E-03  0.18563720169E-02  0.51100000000E-03 0. -1.
        -14    1    1    0    0    0  0.63795357125E-03  0.11055047631E-02  0.10891553478E-02  0.16779108772E-02  0.00000000000E+00 0. -1.
         12    1    1    0    0    0 -0.46806863123E-02  0.35721348031E-02 -0.26596799075E-02  0.64608721250E-02  0.00000000000E+00 0.  1.
         14    1    1    0    0    0 -0.65136094107E-03 -0.11403657532E-02  0.25451596499E-02  0.28640081652E-02  0.00000000000E+00 0.  1.
     999901    1    1    0    0    0  0.12351658892E-01 -0.13505904748E-01  0.45662372731E-02  0.90019765800E+00  0.90000000000E+00 0. -1.
     999903    1    1    0    0    0 -0.92069837900E-02  0.10690332514E-01 -0.60541412581E-02  0.25213178819E-01  0.20000000000E-01 0.  0.
</event>
<event>
 7    1  0.4717691E-066  0.9118800E+02  0.7957747E-01            NaN
     999900   -1    0    0    0    0  0.00000000000E+00  0.00000000000E+00  0.99999998245E-14  0.93827000000E+00  0.93827000000E+00 0. -1.
        -11    1    1    0    0    0  0.95705826066E-03  0.84330669317E-03 -0.26228093947E-03  0.13989420947E-02  0.51100000000E-03 0.  1.
        -14    1    1    0    0    0  0.32663108321E-03  0.34899587092E-03  0.22132915287E-02  0.22643200686E-02  0.00000000000E+00 0. -1.
         12    1    1    0    0    0 -0.17931266304E-02 -0.13149812332E-02 -0.20419368913E-02  0.30189377311E-02  0.00000000000E+00 0.  1.
         14    1    1    0    0    0  0.53761462882E-02 -0.37432985142E-02 -0.14590080340E-02  0.67114780132E-02  0.00000000000E+00 0.  1.
     999901    1    1    0    0    0 -0.70734064062E-02 -0.90889985966E-02 -0.49156740044E-02  0.90008711069E+00  0.90000000000E+00 0.  1.
     999903    1    1    0    0    0  0.22066974046E-02  0.12954975780E-01  0.64656083405E-02  0.24789211406E-01  0.20000000000E-01 0.  0.
</event>
<event>
 7    1  0.4717691E-066  0.9118800E+02  0.7957747E-01            NaN
     999900   -1    0    0    0    0  0.00000000000E+00  0.00000000000E+00  0.99999998245E-14  0.93827000000E+00  0.93827000000E+00 0. -1.
        -11    1    1    0    0    0  0.24109681251E-02  0.14484006214E-02 -0.75096431164E-03  0.29556217718E-02  0.51100000000E-03 0. -1.
        -14    1    1    0    0    0 -0.33414066538E-02 -0.18783270635E-03  0.98662845998E-03  0.34890851623E-02  0.00000000000E+00 0. -1.
         12    1    1    0    0    0 -0.48543761145E-02  0.23974289606E-03 -0.27546521446E-02  0.55866405428E-02  0.00000000000E+00 0.  1.
         14    1    1    0    0    0 -0.24533536293E-03  0.57123166991E-03  0.44200857098E-02  0.44635919105E-02  0.00000000000E+00 0.  1.
     999901    1    1    0    0    0 -0.33701802260E-03  0.33589321565E-02  0.60180908322E-04  0.90000633310E+00  0.90000000000E+00 0.  1.
     999903    1    1    0    0    0  0.63671680286E-02 -0.54304746376E-02 -0.19612786219E-02  0.21768727508E-01  0.20000000000E-01 0.  0.
</event>
<event>
 7    1  0.4717691E-066  0.9118800E+02  0.7957747E-01            NaN
     999900   -1    0    0    0    0  0.00000000000E+00  0.00000000000E+00  0.99999998245E-14  0.93827000000E+00  0.93827000000E+00 0.  1.
        -11    1    1    0    0    0  0.19284174720E-02  0.23113556709E-02  0.21911205036E-02  0.37580964656E-02  0.51100000000E-03 0. -1.
        -14    1    1    0    0    0 -0.41201573928E-02 -0.10087186388E-02 -0.99764156074E-03  0.43575794792E-02  0.00000000000E+00 0. -1.
         12    1    1    0    0    0  0.22195383629E-02  0.19479053819E-02 -0.12296350349E-02  0.31988573335E-02  0.00000000000E+00 0.  1.
         14    1    1    0    0    0  0.61294223106E-04 -0.31470501610E-02  0.20889566928E-02  0.37777535338E-02  0.00000000000E+00 0.  1.
     999901    1    1    0    0    0 -0.10633044963E-01  0.45948213779E-02 -0.26276171412E-02  0.90007837348E+00  0.90000000000E+00 0.  1.
     999903    1    1    0    0    0  0.10543952298E-01 -0.46983136310E-02  0.57481654054E-03  0.23099339711E-01  0.20000000000E-01 0.  0.
</event>
<event>
 7    1  0.4717691E-066  0.9118800E+02  0.7957747E-01            NaN
     999900   -1    0    0    0    0  0.00000000000E+00  0.00000000000E+00  0.99999998245E-14  0.93827000000E+00  0.93827000000E+00 0. -1.
        -11    1    1    0    0    0  0.75764139681E-03 -0.13417788045E-02 -0.15966905066E-03  0.16312590389E-02  0.51100000000E-03 0. -1.
        -14    1    1    0    0    0 -0.38689253934E-02 -0.12271954020E-02  0.29958785439E-02  0.50447874587E-02  0.00000000000E+00 0. -1.
         12    1    1    0    0    0  0.26164382935E-02  0.19302020187E-02  0.27668877116E-02  0.42693204126E-02  0.00000000000E+00 0.  1.
         14    1    1    0    0    0 -0.51111531566E-03 -0.48988644196E-03 -0.99635253253E-03  0.12222708215E-02  0.00000000000E+00 0.  1.
     999901    1    1    0    0    0 -0.13670153019E-02  0.35858565098E-02 -0.20636341356E-01  0.90024473655E+00  0.90000000000E+00 0.  1.
     999903    1    1    0    0    0  0.23729763206E-02 -0.24571978800E-02  0.16029596684E-01  0.25857625720E-01  0.20000000000E-01 0.  0.
</event>
<event>
 7    1  0.4717691E-066  0.9118800E+02  0.7957747E-01            NaN
     999900   -1    0    0    0    0  0.00000000000E+00  0.00000000000E+00  0.99999998245E-14  0.93827000000E+00  0.93827000000E+00 0.  1.
        -11    1    1    0    0    0 -0.34094164112E-02 -0.11893923344E-02 -0.41775028419E-03  0.36707506984E-02  0.51100000000E-03 0. -1.
        -14    1    1    0    0    0 -0.13643331904E-02  0.12588004758E-02 -0.92148178880E-03  0.20724652903E-02  0.00000000000E+00 0. -1.
         12    1    1    0    0    0 -0.13840323277E-02 -0.70616334805E-03  0.11938641933E-02  0.19594703035E-02  0.00000000000E+00 0.  1.
         14    1    1    0    0    0  0.21221616687E-03  0.37459194654E-02 -0.91053715584E-03  0.38608323267E-02  0.00000000000E+00 0.  1.
     999901    1    1    0    0    0  0.81433379608E-02 -0.56002813653E-02 -0.16023979129E-01  0.90019689236E+00  0.90000000000E+00 0. -1.
     999903    1    1    0    0    0 -0.21977721984E-02  0.24911171065E-02  0.17079884165E-01  0.26509589023E-01  0.20000000000E-01 0.  0.
</event>
<event>
 7    1  0.4717691E-066  0.9118800E+02  0.7957747E-01            NaN
     999900   -1    0    0    0    0  0.00000000000E+00  0.00000000000E+00  0.99999998245E-14  0.93827000000E+00  0.93827000000E+00 0.  1.
        -11    1    1    0    0    0 -0.10102338270E-02  0.30303054197E-02 -0.59718569541E-02  0.67917243614E-02  0.51100000000E-03 0. -1.
        -14    1    1    0    0    0 -0.19996778482E-02  0.12083002867E-03 -0.76122815574E-04  0.20047708287E-02  0.00000000000E+00 0. -1.
         12    1    1    0    0    0 -0.32524669042E-02  0.96387950241E-03  0.20739374870E-02  0.39760308548E-02  0.00000000000E+00 0.  1.
         14    1    1    0    0    0  0.32590298206E-02 -0.22979904496E-02  0.65725296173E-04  0.39882772336E-02  0.00000000000E+00 0.  1.
     999901    1    1    0    0    0  0.95572417540E-03  0.56705115684E-02  0.49192492289E-02  0.90003181451E+00  0.90000000000E+00 0.  1.
     999903    1    1    0    0    0  0.20476245833E-02 -0.74875360696E-02 -0.10109322425E-02  0.21477382215E-01  0.20000000000E-01 0.  0.
</event>
<event>
 7    1  0.4717691E-066  0.9118800E+02  0.7957747E-01            NaN
     999900   -1    0    0    0    0  0.00000000000E+00  0.00000000000E+00  0.99999998245E-14  0.93827000000E+00  0.93827000000E+00 0. -1.
        -11    1    1    0    0    0 -0.11545771375E-02 -0.34014820175E-03  0.19448415418E-02  0.23435611339E-02  0.51100000000E-03 0. -1.
        -14    1    1    0    0    0 -0.24716305170E-02 -0.47230457971E-03 -0.19805917449E-02  0.32023074007E-02  0.00000000000E+00 0. -1.
         12    1    1    0    0    0 -0.11945833230E-02 -0.20339932410E-02 -0.55046791472E-03  0.24222247512E-02  0.00000000000E+00 0.  1.
         14    1    1    0    0    0 -0.34061665251E-02  0.24783695178E-02  0.50567895646E-02  0.65814441093E-02  0.00000000000E+00 0.  1.
     999901    1    1    0    0    0  0.17527447642E-01 -0.55882499180E-02  0.11654049613E-02  0.90018875694E+00  0.90000000000E+00 0. -1.
     999903    1    1    0    0    0 -0.93004901393E-02  0.59563264226E-02 -0.56359764081E-02  0.23531705662E-01  0.20000000000E-01 0.  0.
</event>
<event>
 7    1  0.4717691E-066  0.9118800E+02  0.7957747E-01            NaN
     999900   -1    0    0    0    0  0.00000000000E+00  0.00000000000E+00  0.99999998245E-14  0.93827000000E+00  0.93827000000E+00 0. -1.
        -11    1    1    0    0    0  0.22355192336E-02  0.32749144612E-02 -0.14654092028E-02  0.42580695278E-02  0.51100000000E-03 0. -1.
        -14    1    1    0    0    0 -0.23297465365E-02 -0.19615559969E-02 -0.30355763380E-03  0.30606483121E-02  0.00000000000E+00 0. -1.
         12    1    1    0    0    0  0.29453010673E-03  0.12650180728E-02 -0.28034456657E-02  0.30897129816E-02  0.00000000000E+00 0.  1.
         14    1    1    0    0    0 -0.40216672575E-02 -0.43206269327E-02  0.21638815621E-03  0.59066444328E-02  0.00000000000E+00 0.  1.
     999901    1    1    0    0    0 -0.51502270630E-02  0.11524476703E-02  0.44750015599E-02  0.90002659884E+00  0.90000000000E+00 0. -1.
     999903    1    1    0    0    0  0.89715915166E-02  0.58980272533E-03 -0.11897721382E-03  0.21928325909E-01  0.20000000000E-01 0.  0.
</event>
<event>
 7    1  0.4717691E-066  0.9118800E+02  0.7957747E-01            NaN
     999900   -1    0    0    0    0  0.00000000000E+00  0.00000000000E+00  0.99999998245E-14  0.93827000000E+00  0.93827000000E+00 0.  1.
        -11    1    1    0    0    0  0.22115536602E-02  0.10648721049E-02 -0.12690987840E-03  0.25104081957E-02  0.51100000000E-03 0. -1.
        -14    1    1    0    0    0 -0.27826417497E-02  0.10096136653E-03 -0.24755148343E-02  0.37257834074E-02  0.00000000000E+00 0. -1.
         12    1    1    0    0    0 -0.22936314664E-02  0.25445907456E-03  0.23185366970E-02  0.32712546736E-02  0.00000000000E+00 0.  1.
         14    1    1    0    0    0 -0.25500715230E-02  0.16959452853E-02 -0.40680525072E-02  0.50919688122E-02  0.00000000000E+00 0.  1.
     999901    1    1    0    0    0  0.38307332209E-02 -0.14787739384E-01  0.42273297796E-03  0.90012972979E+00  0.90000000000E+00 0.  1.
     999903    1    1    0    0    0  0.15840578580E-02  0.11671501552E-01  0.39292075449E-02  0.23540855119E-01  0.20000000000E-01 0.  0.
</event>
<event>
 7    1  0.4717691E-066  0.9118800E+02  0.7957747E-01            NaN
     999900   -1    0    0    0    0  0.00000000000E+00  0.00000000000E+00  0.99999998245E-14  0.93827000000E+00  0.93827000000E+00 0. -1.
        -11    1    1    0    0    0 -0.54394196673E-02  0.69905053411E-03  0.15240247727E-02  0.57148692439E-02  0.51100000000E-03 0. -1.
        -14    1    1    0    0    0  0.68396737652E-03 -0.91305279843E-04 -0.10791087972E-02  0.12808683861E-02  0.00000000000E+00 0. -1.
         12    1    1    0    0    0 -0.43822044389E-02 -0.40308537848E-03 -0.76612022918E-03  0.44668930782E-02  0.00000000000E+00 0.  1.
         14    1    1    0    0    0  0.15136919413E-02 -0.19736354407E-02 -0.65918149079E-03  0.25731343501E-02  0.00000000000E+00 0.  1.
     999901    1    1    0    0    0  0.19883459614E-01  0.25423087473E-02  0.59495573120E-02  0.90024286308E+00  0.90000000000E+00 0. -1.
     999903    1    1    0    0    0 -0.12259494825E-01 -0.77333318238E-03 -0.49691715676E-02  0.23991371859E-01  0.20000000000E-01 0.  0.
</event>
<event>
 7    1  0.4717691E-066  0.9118800E+02  0.7957747E-01            NaN
     999900   -1    0    0    0    0  0.00000000000E+00  0.00000000000E+00  0.99999998245E-14  0.93827000000E+00  0.93827000000E+00 0. -1.
        -11    1    1    0    0    0  0.53712863194E-02 -0.22535439857E-02 -0.12413033471E-02  0.59775523603E-02  0.51100000000E-03 0. -1.
        -14    1    1    0    0    0  0.85743068067E-05 -0.92551704656E-03  0.10892696691E-02  0.14293927851E-02  0.00000000000E+00 0. -1.
         12    1    1    0    0    0 -0.55365327411E-03 -0.99639965260E-03  0.16357773527E-02  0.19937682320E-02  0.00000000000E+00 0.  1.
         14    1    1    0    0    0  0.19238188739E-02 -0.64161222180E-03  0.17808012240E-02  0.26988883456E-02  0.00000000000E+00 0.  1.
     999901    1    1    0    0    0 -0.90671455570E-02  0.21064244976E-01 -0.33882121692E-02  0.90029850357E+00  0.90000000000E+00 0. -1.
     999903    1    1    0    0    0  0.23171193310E-02 -0.16247172069E-01  0.12366727052E-03  0.25871894709E-01  0.20000000000E-01 0.  0.
</event>
<event>
 7    1  0.4717691E-066  0.9118800E+02  0.7957747E-01            NaN
     999900   -1    0    0    0    0  0.00000000000E+00  0.00000000000E+00  0.99999998245E-14  0.93827000000E+00  0.93827000000E+00 0. -1.
        -11    1    1    0    0    0 -0.21665723236E-03 -0.10282645784E-02 -0.12324118777E-02  0.16983016327E-02  0.51100000000E-03 0. -1.
        -14    1    1    0    0    0  0.50615203074E-03  0.31728869650E-02 -0.16628233150E-02  0.36177870236E-02  0.00000000000E+00 0. -1.
         12    1    1    0    0    0 -0.41913553273E-03 -0.17619534192E-02  0.54329042633E-02  0.57268318624E-02  0.00000000000E+00 0.  1.
         14    1    1    0    0    0 -0.19662445349E-02  0.31377475580E-04 -0.37626747344E-02  0.42455651301E-02  0.00000000000E+00 0.  1.
     999901    1    1    0    0    0  0.78343544432E-02 -0.96208752788E-02 -0.13218574276E-02  0.90008648788E+00  0.90000000000E+00 0.  1.
     999903    1    1    0    0    0 -0.57384691740E-02  0.92068288359E-02  0.25468630914E-02  0.22895026475E-01  0.20000000000E-01 0.  0.
</event>
<event>
 7    1  0.4717691E-066  0.9118800E+02  0.7957747E-01            NaN
     999900   -1    0    0    0    0  0.00000000000E+00  0.00000000000E+00  0.99999998245E-14  0.93827000000E+00  0.93827000000E+00 0. -1.
        -11    1    1    0    0    0  0.38904167594E-03  0.57080605593E-03  0.16209059543E-03  0.87439541412E-03  0.51100000000E-03 0. -1.
        -14    1    1    0    0    0 -0.11347845394E-02 -0.65184089446E-02 -0.32592460216E-02  0.73756407009E-02  0.00000000000E+00 0. -1.
         12    1    1    0    0    0  0.10550186497E-03  0.96014248188E-03  0.73775757971E-03  0.12154383882E-02  0.00000000000E+00 0.  1.
         14    1    1    0    0    0 -0.99027411413E-03 -0.58103862824E-02  0.16936674780E-02  0.61326781342E-02  0.00000000000E+00 0.  1.
     999901    1    1    0    0    0 -0.34070402080E-02  0.12862872588E-01  0.94788010105E-02  0.90014827061E+00  0.90000000000E+00 0. -1.
     999903    1    1    0    0    0  0.50375553206E-02 -0.20650258993E-02 -0.88130706420E-02  0.22523576752E-01  0.20000000000E-01 0.  0.
</event>
<event>
 7    1  0.4717691E-066  0.9118800E+02  0.7957747E-01            NaN
     999900   -1    0    0    0    0  0.00000000000E+00  0.00000000000E+00  0.99999998245E-14  0.93827000000E+00  0.93827000000E+00 0. -1.
        -11    1    1    0    0    0  0.95198897449E-03  0.27382827268E-02 -0.16812194544E-03  0.29485354480E-02  0.51100000000E-03 0. -1.
        -14    1    1    0    0    0 -0.35844697717E-02  0.21427881358E-02 -0.43795462792E-02  0.60514783443E-02  0.00000000000E+00 0. -1.
         12    1    1    0    0    0 -0.19963891281E-02 -0.22597899828E-02  0.15268323324E-03  0.30191940128E-02  0.00000000000E+00 0.  1.
         14    1    1    0    0    0  0.58530828080E-03 -0.29549162876E-03 -0.12877573415E-02  0.14450674921E-02  0.00000000000E+00 0.  1.
     999901    1    1    0    0    0  0.61245853461E-02 -0.46701124964E-02 -0.85251725470E-02  0.90007332983E+00  0.90000000000E+00 0.  1.
     999903    1    1    0    0    0 -0.20810237016E-02  0.23443232453E-02  0.14207914880E-01  0.24732394877E-01  0.20000000000E-01 0.  0.
</event>
<event>
 7    1  0.4717691E-066  0.9118800E+02  0.7957747E-01            NaN
     999900   -1    0    0    0    0  0.00000000000E+00  0.00000000000E+00  0.99999998245E-14  0.93827000000E+00  0.93827000000E+00 0. -1.
        -11    1    1    0    0    0 -0.22121502404E-02  0.27822472517E-02  0.40958922578E-04  0.35912820954E-02  0.51100000000E-03 0. -1.
        -14    1    1    0    0    0 -0.16347039623E-02 -0.11421897490E-02 -0.24833732178E-02  0.31849642080E-02  0.00000000000E+00 0. -1.
         12    1    1    0    0    0  0.58512425097E-02  0.21223747304E-03  0.77213548928E-03  0.59057833406E-02  0.00000000000E+00 0.  1.
         14    1    1    0    0    0 -0.25966548097E-02 -0.14324391963E-03  0.11092691481E-02  0.28272978378E-02  0.00000000000E+00 0.  1.
     999901    1    1    0    0    0  0.94267352865E-02 -0.61015109496E-02 -0.35861258425E-02  0.90007719229E+00  0.90000000000E+00 0.  1.
     999903    1    1    0    0    0 -0.88344687838E-02  0.43924598934E-02  0.41471355004E-02  0.22683480233E-01  0.20000000000E-01 0.  0.
</event>
<event>
 7    1  0.4717691E-066  0.9118800E+02  0.7957747E-01            NaN
     999900   -1    0    0    0    0  0.00000000000E+00  0.00000000000E+00  0.99999998245E-14  0.93827000000E+00  0.93827000000E+00 0.  1.
        -11    1    1    0    0    0 -0.20734141115E-02 -0.85966560025E-03 -0.19112909997E-02  0.29920269564E-02  0.51100000000E-03 0. -1.
        -14    1    1    0    0    0 -0.11849330345E-03  0.12120937752E-02 -0.88150945040E-03  0.15034197331E-02  0.00000000000E+00 0. -1.
         12    1    1    0    0    0  0.14316113162E-03  0.14294875929E-02 -0.38540477585E-02  0.41131027233E-02  0.00000000000E+00 0.  1.
         14    1    1    0    0    0 -0.16382680936E-02 -0.26556160686E-02  0.92367989561E-03  0.32541363831E-02  0.00000000000E+00 0.  1.
     999901    1    1    0    0    0  0.19169989906E-01 -0.57620563758E-02  0.45960809190E-02  0.90023431048E+00  0.90000000000E+00 0. -1.
     999903    1    1    0    0    0 -0.15482975529E-01  0.66357566765E-02  0.11270873940E-02  0.26173003723E-01  0.20000000000E-01 0.  0.
</event>
<event>
 7    1  0.4717691E-066  0.9118800E+02  0.7957747E-01            NaN
     999900   -1    0    0    0    0  0.00000000000E+00  0.00000000000E+00  0.99999998245E-14  0.93827000000E+00  0.93827000000E+00 0.  1.
        -11    1    1    0    0    0  0.32109022377E-03  0.90678763180E-03 -0.18266430932E-02  0.21267601489E-02  0.51100000000E-03 0. -1.
        -14    1    1    0    0    0  0.17941882945E-04 -0.26770815543E-02  0.25153972890E-02  0.36734603688E-02  0.00000000000E+00 0. -1.
         12    1    1    0    0    0 -0.15875199935E-02  0.11962337364E-02 -0.32866085353E-02  0.38409621902E-02  0.00000000000E+00 0.  1.
         14    1    1    0    0    0 -0.23323074579E-02 -0.49251627942E-03  0.17083452428E-02  0.29326905449E-02  0.00000000000E+00 0.  1.
     999901    1    1    0    0    0  0.14471985894E-02 -0.14031948383E-01 -0.37688918167E-02  0.90011843360E+00  0.90000000000E+00 0.  1.
     999903    1    1    0    0    0  0.21335967554E-02  0.15098524849E-01  0.46584009134E-02  0.25577693148E-01  0.20000000000E-01 0.  0.
</event>
<event>
 7    1  0.4717691E-066  0.9118800E+02  0.7957747E-01            NaN
     999900   -1    0    0    0    0  0.00000000000E+00  0.00000000000E+00  0.99999998245E-14  0.93827000000E+00  0.93827000000E+00 0. -1.
        -11    1    1    0    0    0  0.48316419925E-03 -0.14684085335E-02 -0.53940334675E-04  0.16290186692E-02  0.51100000000E-03 0. -1.
        -14    1    1    0    0    0 -0.43439166516E-02  0.87913646779E-03 -0.93751303933E-03  0.45300577815E-02  0.00000000000E+00 0. -1.
         12    1    1    0    0    0 -0.50912243042E-03  0.12089870099E-02 -0.93016184915E-03  0.16081219808E-02  0.00000000000E+00 0.  1.
         14    1    1    0    0    0  0.26177138555E-02  0.91496505835E-03  0.96061736782E-03  0.29346844149E-02  0.00000000000E+00 0.  1.
     999901    1    1    0    0    0 -0.58798546237E-02 -0.13381508856E-01  0.13191277433E-01  0.90021533383E+00  0.90000000000E+00 0. -1.
     999903    1    1    0    0    0  0.76320156509E-02  0.11846828854E-01 -0.12230279578E-01  0.27352783320E-01  0.20000000000E-01 0.  0.
</event>
<event>
 7    1  0.4717691E-066  0.9118800E+02  0.7957747E-01            NaN
     999900   -1    0    0    0    0  0.00000000000E+00  0.00000000000E+00  0.99999998245E-14  0.93827000000E+00  0.93827000000E+00 0.  1.
        -11    1    1    0    0    0  0.18196201557E-02 -0.37634749719E-03  0.26691311330E-03  0.19455124157E-02  0.51100000000E-03 0. -1.
        -14    1    1    0    0    0 -0.19017009848E-02  0.22655603568E-02 -0.66268955183E-03  0.30312353601E-02  0.00000000000E+00 0. -1.
         12    1    1    0    0    0  0.19694839249E-02  0.18251335265E-02 -0.72148221700E-02  0.76982880087E-02  0.00000000000E+00 0.  1.
         14    1    1    0    0    0 -0.61025414359E-03 -0.78756883927E-03 -0.16768802982E-02  0.19505389847E-02  0.00000000000E+00 0.  1.
     999901    1    1    0    0    0 -0.55339863515E-02 -0.14406439338E-01  0.98908523236E-02  0.90018664701E+00  0.90000000000E+00 0.  1.
     999903    1    1    0    0    0  0.42568373993E-02  0.11479661791E-01 -0.60337341691E-03  0.23457778219E-01  0.20000000000E-01 0.  0.
</event>
<event>
 7    1  0.4717691E-066  0.9118800E+02  0.7957747E-01            NaN
     999900   -1    0    0    0    0  0.00000000000E+00  0.00000000000E+00  0.99999998245E-14  0.93827000000E+00  0.93827000000E+00 0. -1.
        -11    1    1    0    0    0 -0.15783338741E-02 -0.24917118086E-02 -0.20794256065E-03  0.30006876985E-02  0.51100000000E-03 0. -1.
        -14    1    1    0    0    0 -0.75885098425E-03 -0.10475181544E-02 -0.14256343089E-02  0.19249889046E-02  0.00000000000E+00 0. -1.
         12    1    1    0    0    0  0.14435556458E-02  0.14850303381E-02  0.44724945110E-02  0.49287295684E-02  0.00000000000E+00 0.  1.
         14    1    1    0    0    0 -0.59049063166E-02  0.26331169040E-02  0.36891239163E-03  0.64759029942E-02  0.00000000000E+00 0.  1.
     999901    1    1    0    0    0  0.12301966751E-01  0.91729551176E-04  0.36194866427E-02  0.90009135508E+00  0.90000000000E+00 0.  1.
     999903    1    1    0    0    0 -0.55034312218E-02 -0.67064683032E-03 -0.68273166758E-02  0.21848335758E-01  0.20000000000E-01 0.  0.
</event>
<event>
 7    1  0.4717691E-066  0.9118800E+02  0.7957747E-01            NaN
     999900   -1    0    0    0    0  0.00000000000E+00  0.00000000000E+00  0.99999998245E-14  0.93827000000E+00  0.93827000000E+00 0. -1.
        -11    1    1    0    0    0  0.16050557617E-02 -0.39181314460E-02 -0.17975987598E-02  0.46282221562E-02  0.51100000000E-03 0. -1.
        -14    1    1    0    0    0 -0.29422972055E-02  0.21144393733E-02  0.53363031904E-02  0.64501239096E-02  0.00000000000E+00 0. -1.
         12    1    1    0    0    0  0.19123977586E-02 -0.53121383194E-03  0.39788185536E-02  0.44463974637E-02  0.00000000000E+00 0.  1.
         14    1    1    0    0    0 -0.80752037967E-03 -0.13142116820E-03  0.40614513222E-03  0.91340820856E-03  0.00000000000E+00 0.  1.
     999901    1    1    0    0    0  0.33787056585E-02  0.42500119180E-02  0.31095393111E-05  0.90001637666E+00  0.90000000000E+00 0. -1.
     999903    1    1    0    0    0 -0.31463415937E-02 -0.17836848452E-02 -0.79267776557E-02  0.21815471598E-01  0.20000000000E-01 0.  0.
</event>
<event>
 7    1  0.4717691E-066  0.9118800E+02  0.7957747E-01            NaN
     999900   -1    0    0    0    0  0.00000000000E+00  0.00000000000E+00  0.99999998245E-14  0.93827000000E+00  0.93827000000E+00 0.  1.
        -11    1    1    0    0    0 -0.15381478652E-02 -0.54467164385E-02 -0.89535965435E-03  0.57528609168E-02  0.51100000000E-03 0. -1.
        -14    1    1    0    0    0 -0.13010819431E-02  0.30297688916E-03  0.30022285030E-02  0.32860287890E-02  0.00000000000E+00 0. -1.
         12    1    1    0    0    0 -0.58892894552E-03  0.10553960721E-02  0.21209288870E-02  0.24411139906E-02  0.00000000000E+00 0.  1.
         14    1    1    0    0    0  0.98447875618E-03 -0.36521799783E-02 -0.47208228083E-02  0.60492797094E-02  0.00000000000E+00 0.  1.
     999901    1    1    0    0    0  0.32864470989E-02  0.12657688828E-01 -0.66733075707E-03  0.90009525227E+00  0.90000000000E+00 0. -1.
     999903    1    1    0    0    0 -0.84276710124E-03 -0.49171653725E-02  0.11603558298E-02  0.20645464328E-01  0.20000000000E-01 0.  0.
</event>
<event>
 7    1  0.4717691E-066  0.9118800E+02  0.7957747E-01            NaN
     999900   -1    0    0    0    0  0.00000000000E+00  0.00000000000E+00  0.99999998245E-14  0.93827000000E+00  0.93827000000E+00 0.  1.
        -11    1    1    0    0    0 -0.12639424588E-02  0.81428369490E-03  0.31924871992E-02  0.35656281343E-02  0.51100000000E-03 0. -1.
        -14    1    1    0    0    0 -0.13671615607E-02 -0.31907372567E-02 -0.27506068785E-03  0.34821822693E-02  0.00000000000E+00 0. -1.
         12    1    1    0    0    0 -0.18025178380E-02 -0.20923364363E-02 -0.31255898507E-03  0.27793228381E-02  0.00000000000E+00 0.  1.
         14    1    1    0    0    0  0.53620215675E-02 -0.22370826728E-02  0.68806463772E-03  0.58505766486E-02  0.00000000000E+00 0.  1.
     999901    1    1    0    0    0  0.72871437111E-02  0.12769567673E-01 -0.38916738602E-02  0.90012849608E+00  0.90000000000E+00 0. -1.
     999903    1    1    0    0    0 -0.82155434211E-02 -0.60636950025E-02  0.59874169626E-03  0.22463794034E-01  0.20000000000E-01 0.  0.
</event>
<event>
 7    1  0.4717691E-066  0.9118800E+02  0.7957747E-01            NaN
     999900   -1    0    0    0    0  0.00000000000E+00  0.00000000000E+00  0.99999998245E-14  0.93827000000E+00  0.93827000000E+00 0. -1.
        -11    1    1    0    0    0 -0.59059717447E-02  0.40038557380E-03 -0.21252157014E-02  0.63101880823E-02  0.51100000000E-03 0. -1.
        -14    1    1    0    0    0 -0.59746806269E-03  0.83865184206E-03  0.16723720323E-02  0.19639585567E-02  0.00000000000E+00 0. -1.
         12    1    1    0    0    0 -0.77546127870E-03 -0.40322904780E-02  0.13702667054E-02  0.43287801443E-02  0.00000000000E+00 0.  1.
         14    1    1    0    0    0  0.60243387450E-03  0.30376098081E-03 -0.24651171630E-02  0.25557777552E-02  0.00000000000E+00 0.  1.
     999901    1    1    0    0    0  0.57955256051E-02  0.81270713170E-02 -0.83138014370E-02  0.90009374884E+00  0.90000000000E+00 0.  1.
     999903    1    1    0    0    0  0.88094160651E-03 -0.56375792357E-02  0.98614955638E-02  0.23017546622E-01  0.20000000000E-01 0.  0.
</event>
<event>
 7    1  0.4717691E-066  0.9118800E+02  0.7957747E-01            NaN
     999900   -1    0    0    0    0  0.00000000000E+00  0.00000000000E+00  0.99999998245E-14  0.93827000000E+00  0.93827000000E+00 0. -1.
        -11    1    1    0    0    0 -0.71592003665E-03  0.12580969480E-02 -0.97117554933E-03  0.18164945298E-02  0.51100000000E-03 0. -1.
        -14    1    1    0    0    0  0.14400925499E-02  0.11720118042E-03  0.27012604595E-02  0.30633985602E-02  0.00000000000E+00 0. -1.
         12    1    1    0    0    0 -0.47964146185E-02  0.24654668307E-02 -0.11282878213E-02  0.55097325973E-02  0.00000000000E+00 0.  1.
         14    1    1    0    0    0  0.56994965111E-02  0.53257838679E-03  0.22366046884E-02  0.61457546933E-02  0.00000000000E+00 0.  1.
     999901    1    1    0    0    0 -0.82788095172E-02 -0.42544628708E-02 -0.77965255336E-02  0.90008189902E+00  0.90000000000E+00 0.  1.
     999903    1    1    0    0    0  0.66515551114E-02 -0.11888047506E-03  0.49581237563E-02  0.21652720595E-01  0.20000000000E-01 0.  0.
</event>
<event>
 7    1  0.4717691E-066  0.9118800E+02  0.7957747E-01            NaN
     999900   -1    0    0    0    0  0.00000000000E+00  0.00000000000E+00  0.99999998245E-14  0.93827000000E+00  0.93827000000E+00 0. -1.
        -11    1    1    0    0    0 -0.22301302294E-02 -0.46392137984E-03 -0.26791608712E-02  0.35535514433E-02  0.51100000000E-03 0. -1.
        -14    1    1    0    0    0  0.14753338721E-03  0.28720022605E-03  0.12089452861E-02  0.12513188143E-02  0.00000000000E+00 0. -1.
         12    1    1    0    0    0  0.52350376395E-03  0.82228616410E-03  0.13459499545E-02  0.16618640156E-02  0.00000000000E+00 0.  1.
         14    1    1    0    0    0  0.49098285197E-02 -0.30257390925E-02 -0.39685874709E-02  0.70007999302E-02  0.00000000000E+00 0.  1.
     999901    1    1    0    0    0  0.42235594786E-02  0.13677413642E-01  0.88253677041E-02  0.90015709585E+00  0.90000000000E+00 0. -1.
     999903    1    1    0    0    0 -0.75742949200E-02 -0.11297239560E-01 -0.47325146026E-02  0.24645369944E-01  0.20000000000E-01 0.  0.
</event>
<event>
 7    1  0.4717691E-066  0.9118800E+02  0.7957747E-01            NaN
     999900   -1    0    0    0    0  0.00000000000E+00  0.00000000000E+00  0.99999998245E-14  0.93827000000E+00  0.93827000000E+00 0. -1.
        -11    1    1    0    0    0  0.16129598143E-02 -0.15079277557E-02  0.42410060425E-03  0.23057466906E-02  0.51100000000E-03 0. -1.
        -14    1    1    0    0    0 -0.46925285421E-02  0.22866593056E-02  0.31259786111E-02  0.60844372933E-02  0.00000000000E+00 0. -1.
         12    1    1    0    0    0 -0.82847885747E-05 -0.16307873185E-02 -0.50122315799E-03  0.17060951234E-02  0.00000000000E+00 0.  1.
         14    1    1    0    0    0  0.75718847507E-04  0.10126845572E-02 -0.22624655282E-02  0.24799221001E-02  0.00000000000E+00 0.  1.
     999901    1    1    0    0    0  0.18374320099E-01 -0.36809509235E-02  0.55045289674E-03  0.90019523884E+00  0.90000000000E+00 0.  1.
     999903    1    1    0    0    0 -0.15362185430E-01  0.35203221349E-02 -0.13368434259E-02  0.25498559949E-01  0.20000000000E-01 0.  0.
</event>
<event>
 7    1  0.4717691E-066  0.9118800E+02  0.7957747E-01            NaN
     999900   -1    0    0    0    0  0.00000000000E+00  0.00000000000E+00  0.99999998245E-14  0.93827000000E+00  0.93827000000E+00 0. -1.
        -11    1    1    0    0    0 -0.43608176053E-02 -0.82244622209E-04  0.19613762800E-02  0.48095334781E-02  0.51100000000E-03 0. -1.
        -14    1    1    0    0    0  0.29502329930E-02  0.98886253767E-03 -0.20449849969E-02  0.37233973021E-02  0.00000000000E+00 0. -1.
         12    1    1    0    0    0 -0.11013849011E-02  0.38855212152E-04 -0.23816000635E-03  0.11275099186E-02  0.00000000000E+00 0.  1.
         14    1    1    0    0    0  0.21984775595E-02  0.14708005151E-02  0.47308690453E-02  0.54201180484E-02  0.00000000000E+00 0.  1.
     999901    1    1    0    0    0  0.42121660345E-02 -0.11961233971E-01 -0.94128495757E-02  0.90013855333E+00  0.90000000000E+00 0. -1.
     999903    1    1    0    0    0 -0.38986740806E-02  0.95449603285E-02  0.50037492537E-02  0.23050887919E-01  0.20000000000E-01 0.  0.
</event>
<event>
 7    1  0.4717691E-066  0.9118800E+02  0.7957747E-01            NaN
     999900   -1    0    0    0    0  0.00000000000E+00  0.00000000000E+00  0.99999998245E-14  0.93827000000E+00  0.93827000000E+00 0. -1.
        -11    1    1    0    0    0  0.95589354807E-03 -0.14936699037E-02 -0.65206425507E-03  0.19573173093E-02  0.51100000000E-03 0. -1.
        -14    1    1    0    0    0 -0.24845219143E-02  0.37632965412E-03 -0.34806464240E-03  0.25368528034E-02  0.00000000000E+00 0. -1.
         12    1    1    0    0    0  0.14985334281E-02 -0.17559537900E-02  0.27200280948E-02  0.35675662551E-02  0.00000000000E+00 0.  1.
         14    1    1    0    0    0 -0.35893496594E-02  0.81893320146E-03  0.32004949634E-02  0.48782425705E-02  0.00000000000E+00 0.  1.
     999901    1    1    0    0    0  0.93458234728E-02  0.36079245869E-02 -0.18836571024E-01  0.90025284112E+00  0.90000000000E+00 0.  1.
     999903    1    1    0    0    0 -0.57263788754E-02 -0.15535637487E-02  0.13916176863E-01  0.25077179942E-01  0.20000000000E-01 0.  0.
</event>
<event>
 7    1  0.4717691E-066  0.9118800E+02  0.7957747E-01            NaN
     999900   -1    0    0    0    0  0.00000000000E+00  0.00000000000E+00  0.99999998245E-14  0.93827000000E+00  0.93827000000E+00 0.  1.
        -11    1    1    0    0    0  0.30086954640E-02  0.11182668919E-02 -0.37716130843E-03  0.32720239744E-02  0.51100000000E-03 0. -1.
        -14    1    1    0    0    0 -0.39592211148E-02 -0.55344579149E-02 -0.52833469962E-02  0.86150688755E-02  0.00000000000E+00 0. -1.
         12    1    1    0    0    0 -0.11513304345E-02  0.69933812453E-03  0.12700464034E-02  0.18513923000E-02  0.00000000000E+00 0.  1.
         14    1    1    0    0    0 -0.22375394041E-03 -0.23415805023E-02 -0.11375382022E-02  0.26128639912E-02  0.00000000000E+00 0.  1.
     999901    1    1    0    0    0 -0.55627628474E-02  0.32825285383E-02  0.83203219016E-02  0.90006163516E+00  0.90000000000E+00 0.  1.
     999903    1    1    0    0    0  0.78883728730E-02  0.27759048625E-02 -0.27923217981E-02  0.21857015702E-01  0.20000000000E-01 0.  0.
</event>
<event>
 7    1  0.4717691E-066  0.9118800E+02  0.7957747E-01            NaN
     999900   -1    0    0    0    0  0.00000000000E+00  0.00000000000E+00  0.99999998245E-14  0.93827000000E+00  0.93827000000E+00 0. -1.
        -11    1    1    0    0    0  0.16801045312E-02 -0.26905391377E-02 -0.45292489001E-02  0.55531044188E-02  0.51100000000E-03 0. -1.
        -14    1    1    0    0    0 -0.44484591427E-02 -0.12713459502E-02 -0.34841289904E-03  0.46396660243E-02  0.00000000000E+00 0. -1.
         12    1    1    0    0    0  0.14617652697E-02 -0.40871459151E-03  0.46998150949E-03  0.15889266629E-02  0.00000000000E+00 0.  1.
         14    1    1    0    0    0 -0.11060650543E-02 -0.13228598988E-02  0.25982331524E-02  0.31183575373E-02  0.00000000000E+00 0.  1.
     999901    1    1    0    0    0  0.12426896359E-02 -0.63195519610E-04 -0.86624028603E-02  0.90004254649E+00  0.90000000000E+00 0.  1.
     999903    1    1    0    0    0  0.11699647601E-02  0.57566550977E-02  0.10471849997E-01  0.23327398865E-01  0.20000000000E-01 0.  0.
</event>
<event>
 7    1  0.4717691E-066  0.9118800E+02  0.7957747E-01            NaN
     999900   -1    0    0    0    0  0.00000000000E+00  0.00000000000E+00  0.99999998245E-14  0.93827000000E+00  0.93827000000E+00 0. -1.
        -11    1    1    0    0    0 -0.32583141905E-02  0.59673792060E-03  0.46122578394E-02  0.57014691867E-02  0.51100000000E-03 0. -1.
        -14    1    1    0    0    0  0.18118379308E-02  0.12506962488E-02 -0.87374218071E-03  0.23686331908E-02  0.00000000000E+00 0. -1.
         12    1    1    0    0    0  0.94181266400E-03 -0.15039947223E-02  0.13166438154E-02  0.22096520439E-02  0.00000000000E+00 0.  1.
         14    1    1    0    0    0  0.43280793363E-02  0.32548013744E-02  0.36556834284E-03  0.54276738058E-02  0.00000000000E+00 0.  1.
     999901    1    1    0    0    0 -0.25099696202E-02 -0.11121120171E-01  0.14672201706E-02  0.90007340367E+00  0.90000000000E+00 0. -1.
     999903    1    1    0    0    0 -0.13134461205E-02  0.75228793495E-02 -0.68879479875E-02  0.22489168101E-01  0.20000000000E-01 0.  0.
</event>
<event>
 7    1  0.4717691E-066  0.9118800E+02  0.7957747E-01            NaN
     999900   -1    0    0    0    0  0.00000000000E+00  0.00000000000E+00  0.99999998245E-14  0.93827000000E+00  0.93827000000E+00 0.  1.
        -11    1    1    0    0    0 -0.12433386874E-02 -0.57977742396E-03  0.84442598697E-03  0.16900323075E-02  0.51100000000E-03 0. -1.
        -14    1    1    0    0    0  0.13335789512E-02  0.12405136398E-02  0.14129952367E-02  0.23051816519E-02  0.00000000000E+00 0. -1.
         12    1    1    0    0    0 -0.11754394893E-02 -0.56802546169E-02  0.58861090535E-02  0.82639718232E-02  0.00000000000E+00 0.  1.
         14    1    1    0    0    0  0.23149429029E-02 -0.52320504704E-03 -0.34494707712E-02  0.41870697111E-02  0.00000000000E+00 0.  1.
     999901    1    1    0    0    0  0.10503744843E-02 -0.20583112531E-02 -0.80974839169E-02  0.90003939313E+00  0.90000000000E+00 0. -1.
     999903    1    1    0    0    0 -0.22801181616E-02  0.76010347013E-02  0.34034244110E-02  0.21784351381E-01  0.20000000000E-01 0.  0.
</event>
<event>
 7    1  0.4717691E-066  0.9118800E+02  0.7957747E-01            NaN
     999900   -1    0    0    0    0  0.00000000000E+00  0.00000000000E+00  0.99999998245E-14  0.93827000000E+00  0.93827000000E+00 0. -1.
        -11    1    1    0    0    0  0.13753154450E-04  0.45031004236E-02 -0.19618654657E-03  0.45362663872E-02  0.51100000000E-03 0. -1.
        -14    1    1    0    0    0 -0.11639037206E-02 -0.25777474665E-02 -0.24059783796E-02  0.37132446506E-02  0.00000000000E+00 0. -1.
         12    1    1    0    0    0  0.11080752287E-02 -0.90670264783E-03  0.23947669106E-02  0.27901342191E-02  0.00000000000E+00 0.  1.
         14    1    1    0    0    0 -0.26842224221E-02  0.46469362991E-02 -0.11286587502E-02  0.54838797903E-02  0.00000000000E+00 0.  1.
     999901    1    1    0    0    0  0.70570946452E-02 -0.87140981896E-02 -0.50830345433E-02  0.90008420458E+00  0.90000000000E+00 0.  1.
     999903    1    1    0    0    0 -0.43307968858E-02  0.30485115812E-02  0.64190913090E-02  0.21662270374E-01  0.20000000000E-01 0.  0.
</event>
<event>
 7    1  0.4717691E-066  0.9118800E+02  0.7957747E-01            NaN
     999900   -1    0    0    0    0  0.00000000000E+00  0.00000000000E+00  0.99999998245E-14  0.93827000000E+00  0.93827000000E+00 0.  1.
        -11    1    1    0    0    0  0.53173177197E-02 -0.41503034480E-02  0.78148085316E-02  0.10335919883E-01  0.51100000000E-03 0. -1.
        -14    1    1    0    0    0 -0.23790405582E-02 -0.17965480418E-02  0.72041434485E-03  0.30669880457E-02  0.00000000000E+00 0. -1.
         12    1    1    0    0    0  0.17778697525E-02  0.17894942555E-02  0.31489672979E-03  0.25420996239E-02  0.00000000000E+00 0.  1.
         14    1    1    0    0    0 -0.15363398719E-03 -0.67151259060E-03 -0.20288814274E-02  0.21426367886E-02  0.00000000000E+00 0.  1.
     999901    1    1    0    0    0 -0.43481696064E-02  0.25353545298E-02 -0.60202035444E-02  0.90003420905E+00  0.90000000000E+00 0. -1.
     999903    1    1    0    0    0 -0.21434332039E-03  0.22935152950E-02 -0.80103463439E-03  0.20148146613E-01  0.20000000000E-01 0.  0.
</event>
<event>
 7    1  0.4717691E-066  0.9118800E+02  0.7957747E-01            NaN
     999900   -1    0    0    0    0  0.00000000000E+00  0.00000000000E+00  0.99999998245E-14  0.93827000000E+00  0.93827000000E+00 0. -1.
        -11    1    1    0    0    0 -0.34740288213E-02 -0.57839132348E-02  0.97511986475E-03  0.68362642071E-02  0.51100000000E-03 0. -1.
        -14    1    1    0    0    0 -0.23402473389E-03  0.43444554609E-03  0.85924671014E-03  0.99086599370E-03  0.00000000000E+00 0. -1.
         12    1    1    0    0    0 -0.28485090785E-02 -0.17999890539E-02  0.11857020097E-03  0.33716499607E-02  0.00000000000E+00 0.  1.
         14    1    1    0    0    0  0.85828601450E-03  0.23412453762E-02 -0.34479724170E-03  0.25173338936E-02  0.00000000000E+00 0.  1.
     999901    1    1    0    0    0  0.11123703987E-01 -0.45859365498E-02 -0.10456635800E-01  0.90014116051E+00  0.90000000000E+00 0. -1.
     999903    1    1    0    0    0 -0.54254273677E-02  0.93941479162E-02  0.88484962662E-02  0.24412725439E-01  0.20000000000E-01 0.  0.
</event>
<event>
 7    1  0.4717691E-066  0.9118800E+02  0.7957747E-01            NaN
     999900   -1    0    0    0    0  0.00000000000E+00  0.00000000000E+00  0.99999998245E-14  0.93827000000E+00  0.93827000000E+00 0. -1.
        -11    1    1    0    0    0  0.98699307570E-03 -0.16038927695E-03 -0.10041213267E-02  0.15064065488E-02  0.51100000000E-03 0. -1.
        -14    1    1    0    0    0 -0.32197532748E-02 -0.40740936580E-02  0.37440297145E-02  0.64017816885E-02  0.00000000000E+00 0. -1.
         12    1    1    0    0    0  0.63562857769E-03  0.19783666426E-02 -0.17448348889E-02  0.27133755824E-02  0.00000000000E+00 0.  1.
         14    1    1    0    0    0  0.44072002756E-02  0.29760339941E-02  0.15216164654E-02  0.55313207528E-02  0.00000000000E+00 0.  1.
     999901    1    1    0    0    0  0.62963729863E-02  0.15287442167E-02 -0.24433527803E-02  0.90002663924E+00  0.90000000000E+00 0. -1.
     999903    1    1    0    0    0 -0.91064416405E-02 -0.22486619184E-02 -0.73337183925E-04  0.22090476186E-01  0.20000000000E-01 0.  0.
</event>
<event>
 7    1  0.4717691E-066  0.9118800E+02  0.7957747E-01            NaN
     999900   -1    0    0    0    0  0.00000000000E+00  0.00000000000E+00  0.99999998245E-14  0.93827000000E+00  0.93827000000E+00 0. -1.
        -11    1    1    0    0    0 -0.65627173568E-03 -0.47259103462E-02 -0.16341964373E-02  0.50691853573E-02  0.51100000000E-03 0. -1.
        -14    1    1    0    0    0  0.12215572780E-02  0.91918403952E-03 -0.69484848150E-03  0.16792605200E-02  0.00000000000E+00 0. -1.
         12    1    1    0    0    0  0.22689508995E-03 -0.91211836864E-03  0.26283224088E-02  0.27913294297E-02  0.00000000000E+00 0.  1.
         14    1    1    0    0    0 -0.11034492505E-02  0.10402570328E-02 -0.99926611657E-03  0.18161133539E-02  0.00000000000E+00 0.  1.
     999901    1    1    0    0    0 -0.10619753438E-01  0.15835334094E-01 -0.60223939638E-02  0.90022208715E+00  0.90000000000E+00 0.  1.
     999903    1    1    0    0    0  0.10931022056E-01 -0.12156746451E-01  0.67223825903E-02  0.26692024186E-01  0.20000000000E-01 0.  0.
</event>
<event>
 7    1  0.4717691E-066  0.9118800E+02  0.7957747E-01            NaN
     999900   -1    0    0    0    0  0.00000000000E+00  0.00000000000E+00  0.99999998245E-14  0.93827000000E+00  0.93827000000E+00 0. -1.
        -11    1    1    0    0    0  0.27190438689E-02 -0.62499565166E-04 -0.49795765108E-06  0.27673501775E-02  0.51100000000E-03 0. -1.
        -14    1    1    0    0    0  0.36329836889E-02  0.19768930039E-02  0.65032348081E-02  0.77070577656E-02  0.00000000000E+00 0. -1.
         12    1    1    0    0    0 -0.48588243210E-03  0.22654091647E-02 -0.33653083491E-02  0.40857631730E-02  0.00000000000E+00 0.  1.
         14    1    1    0    0    0 -0.98479902343E-03 -0.10754643351E-02 -0.15020017250E-02  0.20934330261E-02  0.00000000000E+00 0.  1.
     999901    1    1    0    0    0 -0.58287608716E-02  0.45509948188E-02  0.90127454253E-03  0.90003083186E+00  0.90000000000E+00 0. -1.
     999903    1    1    0    0    0  0.94741476936E-03 -0.76553330872E-02 -0.25367013188E-02  0.21585563995E-01  0.20000000000E-01 0.  0.
</event>
<event>
 7    1  0.4717691E-066  0.9118800E+02  0.7957747E-01            NaN
     999900   -1    0    0    0    0  0.00000000000E+00  0.00000000000E+00  0.99999998245E-14  0.93827000000E+00  0.93827000000E+00 0.  1.
        -11    1    1    0    0    0 -0.23064515321E-02 -0.21318636517E-02 -0.28506252990E-02  0.42722063263E-02  0.51100000000E-03 0. -1.
        -14    1    1    0    0    0 -0.88049238193E-03  0.95515654275E-03  0.37787343367E-02  0.39958008012E-02  0.00000000000E+00 0. -1.
         12    1    1    0    0    0 -0.34078546554E-02  0.64483123723E-03 -0.24611346596E-02  0.42528184172E-02  0.00000000000E+00 0.  1.
         14    1    1    0    0    0  0.13545805865E-02  0.11858309310E-02 -0.47070813666E-02  0.50396129369E-02  0.00000000000E+00 0.  1.
     999901    1    1    0    0    0  0.39157839996E-02 -0.55435857062E-02  0.72229179707E-02  0.90005457348E+00  0.90000000000E+00 0.  1.
     999903    1    1    0    0    0  0.13244339834E-02  0.48896306469E-02 -0.98281098217E-03  0.20654988034E-01  0.20000000000E-01 0.  0.
</event>
<event>
 7    1  0.4717691E-066  0.9118800E+02  0.7957747E-01            NaN
     999900   -1    0    0    0    0  0.00000000000E+00  0.00000000000E+00  0.99999998245E-14  0.93827000000E+00  0.93827000000E+00 0. -1.
        -11    1    1    0    0    0  0.21481546905E-02  0.27966648778E-02 -0.32638868831E-03  0.35782053587E-02  0.51100000000E-03 0. -1.
        -14    1    1    0    0    0 -0.17835251408E-02 -0.39159316158E-02 -0.99432496591E-04  0.43041107292E-02  0.00000000000E+00 0. -1.
         12    1    1    0    0    0  0.98800115100E-03 -0.15925062764E-02  0.13020412648E-02  0.22820021845E-02  0.00000000000E+00 0.  1.
         14    1    1    0    0    0  0.81814169169E-03  0.43160931639E-02 -0.25566595165E-02  0.50827673477E-02  0.00000000000E+00 0.  1.
     999901    1    1    0    0    0 -0.14249427253E-02  0.29574913972E-02  0.11916992391E-01  0.90008488040E+00  0.90000000000E+00 0. -1.
     999903    1    1    0    0    0 -0.74582966705E-03 -0.45618115468E-02 -0.10236552954E-01  0.22938033980E-01  0.20000000000E-01 0.  0.
</event>
<event>
 7    1  0.4717691E-066  0.9118800E+02  0.7957747E-01            NaN
     999900   -1    0    0    0    0  0.00000000000E+00  0.00000000000E+00  0.99999998245E-14  0.93827000000E+00  0.93827000000E+00 0.  1.
        -11    1    1    0    0    0 -0.27071826104E-02 -0.14626136607E-02  0.68302493153E-03  0.31930738269E-02  0.51100000000E-03 0. -1.
        -14    1    1    0    0    0  0.72005938264E-02  0.20256591622E-02  0.10034918586E-02  0.75471082147E-02  0.00000000000E+00 0. -1.
         12    1    1    0    0    0 -0.64001610836E-03  0.12746534943E-03  0.24594610934E-02  0.25445661524E-02  0.00000000000E+00 0.  1.
         14    1    1    0    0    0  0.19976461042E-03  0.19957397427E-02 -0.20760090823E-02  0.28866410809E-02  0.00000000000E+00 0.  1.
     999901    1    1    0    0    0 -0.11731772940E-01  0.17008018076E-02 -0.45577245606E-02  0.90008960669E+00  0.90000000000E+00 0.  1.
     999903    1    1    0    0    0  0.76786132217E-02 -0.43870524013E-02  0.24877557594E-02  0.22009004032E-01  0.20000000000E-01 0.  0.
</event>
<event>
 7    1  0.4717691E-066  0.9118800E+02  0.7957747E-01            NaN
     999900   -1    0    0    0    0  0.00000000000E+00  0.00000000000E+00  0.99999998245E-14  0.93827000000E+00  0.93827000000E+00 0. -1.
        -11    1    1    0    0    0 -0.74639126515E-03 -0.49223766335E-02  0.13998987963E-02  0.51968961200E-02  0.51100000000E-03 0. -1.
        -14    1    1    0    0    0 -0.27283515685E-02 -0.11495246904E-04  0.49934486488E-04  0.27288326945E-02  0.00000000000E+00 0. -1.
         12    1    1    0    0    0 -0.17703060035E-02 -0.55429369514E-03  0.33346513117E-02  0.38159041153E-02  0.00000000000E+00 0.  1.
         14    1    1    0    0    0 -0.32727140239E-02  0.49293100075E-03 -0.36109616993E-02  0.48982325841E-02  0.00000000000E+00 0.  1.
     999901    1    1    0    0    0  0.18487257889E-02  0.68742708428E-03 -0.32891824563E-02  0.90000817167E+00  0.90000000000E+00 0.  1.
     999903    1    1    0    0    0  0.66690370721E-02  0.43078074905E-02  0.21156595612E-02  0.21621962821E-01  0.20000000000E-01 0.  0.
</event>
<event>
 7    1  0.4717691E-066  0.9118800E+02  0.7957747E-01            NaN
     999900   -1    0    0    0    0  0.00000000000E+00  0.00000000000E+00  0.99999998245E-14  0.93827000000E+00  0.93827000000E+00 0. -1.
        -11    1    1    0    0    0  0.10222020100E-02 -0.78995337905E-03 -0.82951444231E-03  0.16180662843E-02  0.51100000000E-03 0. -1.
        -14    1    1    0    0    0 -0.15701043274E-02 -0.51254398038E-04 -0.26801392473E-02  0.31066060254E-02  0.00000000000E+00 0. -1.
         12    1    1    0    0    0 -0.24678522266E-02  0.14332989351E-02  0.31153447902E-02  0.42249276457E-02  0.00000000000E+00 0.  1.
         14    1    1    0    0    0  0.41889627593E-02 -0.98244637070E-03  0.22868747047E-02  0.48726179601E-02  0.00000000000E+00 0.  1.
     999901    1    1    0    0    0 -0.14899500182E-01  0.81640716362E-03 -0.14094067504E-03  0.90012370344E+00  0.90000000000E+00 0. -1.
     999903    1    1    0    0    0  0.13726291966E-01 -0.42605195094E-03 -0.17516251302E-02  0.24324078647E-01  0.20000000000E-01 0.  0.
</event>
<event>
 7    1  0.4717691E-066  0.9118800E+02  0.7957747E-01            NaN
     999900   -1    0    0    0    0  0.00000000000E+00  0.00000000000E+00  0.99999998245E-14  0.93827000000E+00  0.93827000000E+00 0.  1.
        -11    1    1    0    0    0 -0.38337612805E-02  0.39278212043E-02  0.39432608038E-02  0.67776051623E-02  0.51100000000E-03 0. -1.
        -14    1    1    0    0    0  0.53317104338E-03 -0.56849141670E-03  0.29005794688E-03  0.83161737891E-03  0.00000000000E+00 0. -1.
         12    1    1    0    0    0  0.90550535135E-03 -0.15246150991E-02 -0.34941877827E-02  0.39183847951E-02  0.00000000000E+00 0.  1.
         14    1    1    0    0    0 -0.36647310205E-02 -0.28465283877E-02  0.22688075561E-02  0.51653136440E-02  0.00000000000E+00 0.  1.
     999901    1    1    0    0    0  0.73303464293E-02  0.39550171963E-02  0.42853828272E-02  0.90004874348E+00  0.90000000000E+00 0. -1.
     999903    1    1    0    0    0 -0.12705305231E-02 -0.29432034970E-02 -0.72933213514E-02  0.21528335536E-01  0.20000000000E-01 0.  0.
</event>
<event>
 7    1  0.4717691E-066  0.9118800E+02  0.7957747E-01            NaN
     999900   -1    0    0    0    0  0.00000000000E+00  0.00000000000E+00  0.99999998245E-14  0.93827000000E+00  0.93827000000E+00 0. -1.
        -11    1    1    0    0    0 -0.13524890472E-02  0.20298568994E-02 -0.60442971818E-02  0.65379044866E-02  0.51100000000E-03 0. -1.
        -14    1    1    0    0    0  0.16045853338E-02  0.29940143203E-02 -0.15425801881E-02  0.37307331023E-02  0.00000000000E+00 0. -1.
         12    1    1    0    0    0  0.93840203022E-03  0.45943527348E-04  0.30721200259E-03  0.98847781592E-03  0.00000000000E+00 0.  1.
         14    1    1    0    0    0 -0.76943854871E-03  0.22441765270E-02  0.65849714108E-03  0.24621093496E-02  0.00000000000E+00 0.  1.
     999901    1    1    0    0    0  0.55864080739E-02 -0.76441468919E-02 -0.61487353497E-02  0.90007080159E+00  0.90000000000E+00 0.  1.
     999903    1    1    0    0    0 -0.60074678421E-02  0.33015561784E-03  0.12769903576E-01  0.24479973651E-01  0.20000000000E-01 0.  0.
</event>
<event>
 7    1  0.4717691E-066  0.9118800E+02  0.7957747E-01            NaN
     999900   -1    0    0    0    0  0.00000000000E+00  0.00000000000E+00  0.99999998245E-14  0.93827000000E+00  0.93827000000E+00 0.  1.
        -11    1    1    0    0    0  0.14852290626E-02  0.22540977241E-02 -0.89309158124E-04  0.27488104780E-02  0.51100000000E-03 0. -1.
        -14    1    1    0    0    0 -0.15925302215E-02 -0.34571174645E-03 -0.85668104412E-03  0.18410789036E-02  0.00000000000E+00 0. -1.
         12    1    1    0    0    0 -0.17416124267E-02  0.23013935634E-03 -0.19199453125E-02  0.26023773691E-02  0.00000000000E+00 0.  1.
         14    1    1    0    0    0  0.24296188919E-02 -0.28966994143E-02  0.25132021277E-02  0.45398348418E-02  0.00000000000E+00 0.  1.
     999901    1    1    0    0    0 -0.10353836248E-01  0.98841018384E-02  0.11114400688E-01  0.90018244112E+00  0.90000000000E+00 0. -1.
     999903    1    1    0    0    0  0.97731309422E-02 -0.91259277580E-02 -0.10761667301E-01  0.26355457290E-01  0.20000000000E-01 0.  0.
</event>
<event>
 7    1  0.4717691E-066  0.9118800E+02  0.7957747E-01            NaN
     999900   -1    0    0    0    0  0.00000000000E+00  0.00000000000E+00  0.99999998245E-14  0.93827000000E+00  0.93827000000E+00 0. -1.
        -11    1    1    0    0    0  0.26445501788E-02 -0.18315640063E-02 -0.15041398616E-02  0.35877332789E-02  0.51100000000E-03 0. -1.
        -14    1    1    0    0    0 -0.48156993455E-03  0.33851593957E-02  0.19054780893E-02  0.39143403639E-02  0.00000000000E+00 0. -1.
         12    1    1    0    0    0  0.38060943765E-02 -0.67346386938E-03  0.25201817778E-02  0.46142414522E-02  0.00000000000E+00 0.  1.
         14    1    1    0    0    0 -0.32802152293E-02  0.12485294521E-02 -0.20573691653E-02  0.40683418767E-02  0.00000000000E+00 0.  1.
     999901    1    1    0    0    0 -0.13337501598E-03  0.49542344920E-02 -0.62946858452E-02  0.90003565779E+00  0.90000000000E+00 0.  1.
     999903    1    1    0    0    0 -0.25554843755E-02 -0.70828954641E-02  0.54305350051E-02  0.22049685236E-01  0.20000000000E-01 0.  0.
</event>
<event>
 7    1  0.4717691E-066  0.9118800E+02  0.7957747E-01            NaN
     999900   -1    0    0    0    0  0.00000000000E+00  0.00000000000E+00  0.99999998245E-14  0.93827000000E+00  0.93827000000E+00 0.  1.
        -11    1    1    0    0    0 -0.52792440346E-03  0.14365494611E-02  0.11171525438E-02  0.19625313593E-02  0.51100000000E-03 0. -1.
        -14    1    1    0    0    0 -0.24097589548E-02 -0.71410498092E-03  0.29495411731E-02  0.38751357751E-02  0.00000000000E+00 0. -1.
         12    1    1    0    0    0  0.79487322866E-02 -0.49740687968E-03 -0.21773783673E-02  0.82565570985E-02  0.00000000000E+00 0.  1.
         14    1    1    0    0    0 -0.22014063585E-02  0.24021314813E-02  0.35355345138E-03  0.32774114255E-02  0.00000000000E+00 0.  1.
     999901    1    1    0    0    0  0.25570046289E-02 -0.37366240248E-02 -0.46376434657E-02  0.90002333768E+00  0.90000000000E+00 0.  1.
     999903    1    1    0    0    0 -0.53666471987E-02  0.11094549430E-02  0.23947746646E-02  0.20875026662E-01  0.20000000000E-01 0.  0.
</event>
<event>
 7    1  0.4717691E-066  0.9118800E+02  0.7957747E-01            NaN
     999900   -1    0    0    0    0  0.00000000000E+00  0.00000000000E+00  0.99999998245E-14  0.93827000000E+00  0.93827000000E+00 0. -1.
        -11    1    1    0    0    0  0.27352158077E-02 -0.11846573573E-02 -0.28544556422E-03  0.30376666603E-02  0.51100000000E-03 0. -1.
        -14    1    1    0    0    0 -0.25922859206E-02 -0.60005881291E-03  0.10512180081E-02  0.28609572128E-02  0.00000000000E+00 0. -1.
         12    1    1    0    0    0 -0.12532049360E-02  0.22833128882E-02 -0.14435389588E-02  0.29778927252E-02  0.00000000000E+00 0.  1.
         14    1    1    0    0    0  0.10203264224E-02 -0.15711476279E-02 -0.56972678699E-02  0.59973687613E-02  0.00000000000E+00 0.  1.
     999901    1    1    0    0    0 -0.21516996088E-02  0.94920327223E-03  0.17944703214E-01  0.90018195004E+00  0.90000000000E+00 0. -1.
     999903    1    1    0    0    0  0.22416482353E-02  0.12334763764E-03 -0.11569668829E-01  0.23214164604E-01  0.20000000000E-01 0.  0.
</event>
<event>
 7    1  0.4717691E-066  0.9118800E+02  0.7957747E-01            NaN
     999900   -1    0    0    0    0  0.00000000000E+00  0.00000000000E+00  0.99999998245E-14  0.93827000000E+00  0.93827000000E+00 0. -1.
        -11    1    1    0    0    0 -0.23920439501E-02 -0.15309117297E-02 -0.39457643605E-02  0.48883271547E-02  0.51100000000E-03 0. -1.
        -14    1    1    0    0    0 -0.45887137413E-03  0.41616655262E-03  0.26927391479E-02  0.27630782935E-02  0.00000000000E+00 0. -1.
         12    1    1    0    0    0 -0.10900168052E-02  0.25841254363E-02  0.32897957876E-02  0.43230310236E-02  0.00000000000E+00 0.  1.
         14    1    1    0    0    0 -0.69465591125E-03  0.85012203069E-03 -0.16469235429E-02  0.19792956976E-02  0.00000000000E+00 0.  1.
     999901    1    1    0    0    0 -0.43860316964E-02 -0.61655217806E-02  0.91647123388E-02  0.90007846485E+00  0.90000000000E+00 0. -1.
     999903    1    1    0    0    0  0.90216197371E-02  0.38460194906E-02 -0.95545593709E-02  0.24237802982E-01  0.20000000000E-01 0.  0.
</event>
<event>
 7    1  0.4717691E-066  0.9118800E+02  0.7957747E-01            NaN
     999900   -1    0    0    0    0  0.00000000000E+00  0.00000000000E+00  0.99999998245E-14  0.93827000000E+00  0.93827000000E+00 0.  1.
        -11    1    1    0    0    0  0.13199511683E-02 -0.13609888086E-02 -0.10411782879E-02  0.22225514282E-02  0.51100000000E-03 0. -1.
        -14    1    1    0    0    0 -0.12794645809E-03  0.14653876075E-03  0.14007055987E-02  0.14141499492E-02  0.00000000000E+00 0. -1.
         12    1    1    0    0    0  0.60097922261E-02  0.16089812879E-03 -0.18898808354E-03  0.60149154029E-02  0.00000000000E+00 0.  1.
         14    1    1    0    0    0  0.15551909000E-02 -0.36730830437E-02 -0.38176244449E-02  0.55212692547E-02  0.00000000000E+00 0.  1.
     999901    1    1    0    0    0 -0.10776542491E-01 -0.26089785546E-02  0.11941335513E-01  0.90014750798E+00  0.90000000000E+00 0. -1.
     999903    1    1    0    0    0  0.20195546545E-02  0.73356135173E-02 -0.82942502958E-02  0.22949605980E-01  0.20000000000E-01 0.  0.
</event>
<event>
 7    1  0.4717691E-066  0.9118800E+02  0.7957747E-01            NaN
     999900   -1    0    0    0    0  0.00000000000E+00  0.00000000000E+00  0.99999998245E-14  0.93827000000E+00  0.93827000000E+00 0.  1.
        -11    1    1    0    0    0  0.31792247202E-03  0.57490862829E-02  0.33011538584E-04  0.57805949995E-02  0.51100000000E-03 0. -1.
        -14    1    1    0    0    0  0.18552605527E-02 -0.69399843270E-02 -0.16452282907E-02  0.73696777613E-02  0.00000000000E+00 0. -1.
         12    1    1    0    0    0 -0.10804506272E-02  0.13828648637E-02 -0.60538131300E-03  0.18563877082E-02  0.00000000000E+00 0.  1.
         14    1    1    0    0    0 -0.42535671420E-03 -0.46234181103E-03  0.63564341570E-04  0.63144968925E-03  0.00000000000E+00 0.  1.
     999901    1    1    0    0    0 -0.67551988481E-02 -0.75158386474E-02 -0.12968878841E-02  0.90005766619E+00  0.90000000000E+00 0. -1.
     999903    1    1    0    0    0  0.60878231648E-02  0.77862136389E-02  0.34509216076E-02  0.22574223656E-01  0.20000000000E-01 0.  0.
</event>
<event>
 7    1  0.4717691E-066  0.9118800E+02  0.7957747E-01            NaN
     999900   -1    0    0    0    0  0.00000000000E+00  0.00000000000E+00  0.99999998245E-14  0.93827000000E+00  0.93827000000E+00 0.  1.
        -11    1    1    0    0    0  0.14161269961E-02  0.63092111170E-03 -0.56976187247E-03  0.17289380294E-02  0.51100000000E-03 0. -1.
        -14    1    1    0    0    0  0.48258806473E-03 -0.35910984141E-04  0.16529044156E-02  0.17222873878E-02  0.00000000000E+00 0. -1.
         12    1    1    0    0    0  0.11344982698E-02  0.13353065876E-02  0.20842276381E-02  0.27228909002E-02  0.00000000000E+00 0.  1.
         14    1    1    0    0    0  0.87130282243E-02 -0.65580117336E-02  0.65707374607E-03  0.10925022867E-01  0.00000000000E+00 0.  1.
     999901    1    1    0    0    0 -0.73390372322E-02  0.74941998168E-02 -0.78891980166E-02  0.90009569710E+00  0.90000000000E+00 0. -1.
     999903    1    1    0    0    0 -0.44072043226E-02 -0.28665047983E-02  0.40647540893E-02  0.21075163712E-01  0.20000000000E-01 0.  0.
</event>
<event>
 7    1  0.4717691E-066  0.9118800E+02  0.7957747E-01            NaN
     999900   -1    0    0    0    0  0.00000000000E+00  0.00000000000E+00  0.99999998245E-14  0.93827000000E+00  0.93827000000E+00 0. -1.
        -11    1    1    0    0    0 -0.18608308176E-03  0.23820600734E-02  0.27391577721E-02  0.36705508315E-02  0.51100000000E-03 0. -1.
        -14    1    1    0    0    0  0.19224365457E-02  0.15546582162E-02 -0.27658914658E-02  0.37098355815E-02  0.00000000000E+00 0. -1.
         12    1    1    0    0    0 -0.47114058549E-02  0.19415660046E-03  0.72448136060E-03  0.47707352847E-02  0.00000000000E+00 0.  1.
         14    1    1    0    0    0  0.93907415458E-03  0.13740346782E-03 -0.33118182486E-02  0.34451241041E-02  0.00000000000E+00 0.  1.
     999901    1    1    0    0    0  0.51906774767E-02  0.44031942253E-02  0.77404230951E-02  0.90005902329E+00  0.90000000000E+00 0. -1.
     999903    1    1    0    0    0 -0.31546992403E-02 -0.86714725832E-02 -0.51263525134E-02  0.22614730910E-01  0.20000000000E-01 0.  0.
</event>
<event>
 7    1  0.4717691E-066  0.9118800E+02  0.7957747E-01            NaN
     999900   -1    0    0    0    0  0.00000000000E+00  0.00000000000E+00  0.99999998245E-14  0.93827000000E+00  0.93827000000E+00 0.  1.
        -11    1    1    0    0    0  0.24212705193E-03 -0.95354993686E-03 -0.12834511421E-02  0.16959513040E-02  0.51100000000E-03 0. -1.
        -14    1    1    0    0    0 -0.22130232855E-02  0.20994877002E-02 -0.18079299239E-03  0.30558152384E-02  0.00000000000E+00 0. -1.
         12    1    1    0    0    0  0.16001414728E-02 -0.47577547117E-03  0.26984487797E-03  0.16910444377E-02  0.00000000000E+00 0.  1.
         14    1    1    0    0    0 -0.19944168250E-02  0.30057782535E-03  0.22202056389E-02  0.29995597311E-02  0.00000000000E+00 0.  1.
     999901    1    1    0    0    0  0.35498565789E-02  0.56553096515E-02  0.18303225734E-01  0.90021085979E+00  0.90000000000E+00 0.  1.
     999903    1    1    0    0    0 -0.11846849931E-02 -0.66260497690E-02 -0.19329032116E-01  0.28616769500E-01  0.20000000000E-01 0.  0.
</event>
<event>
 7    1  0.4717691E-066  0.9118800E+02  0.7957747E-01            NaN
     999900   -1    0    0    0    0  0.00000000000E+00  0.00000000000E+00  0.99999998245E-14  0.93827000000E+00  0.93827000000E+00 0.  1.
        -11    1    1    0    0    0 -0.28003076516E-02  0.17880375241E-02  0.35482642757E-02  0.48877501472E-02  0.51100000000E-03 0. -1.
        -14    1    1    0    0    0 -0.53268423957E-02 -0.25721711161E-02 -0.47738689288E-03  0.59345776938E-02  0.00000000000E+00 0. -1.
         12    1    1    0    0    0 -0.17452946250E-02  0.12764676878E-02  0.11418806425E-02  0.24452636847E-02  0.00000000000E+00 0.  1.
         14    1    1    0    0    0 -0.57850650840E-03 -0.13125006505E-02 -0.19388982008E-02  0.24117740298E-02  0.00000000000E+00 0.  1.
     999901    1    1    0    0    0  0.13568348137E-01  0.38629273303E-03  0.74437995114E-02  0.90013313429E+00  0.90000000000E+00 0.  1.
     999903    1    1    0    0    0 -0.31173969560E-02  0.43387382168E-03 -0.97176593359E-02  0.22457500156E-01  0.20000000000E-01 0.  0.
</event>
<event>
 7    1  0.4717691E-066  0.9118800E+02  0.7957747E-01            NaN
     999900   -1    0    0    0    0  0.00000000000E+00  0.00000000000E+00  0.99999998245E-14  0.93827000000E+00  0.93827000000E+00 0. -1.
        -11    1    1    0    0    0  0.76693796702E-03  0.92032645330E-03  0.40992902243E-02  0.43012202883E-02  0.51100000000E-03 0. -1.
        -14    1    1    0    0    0  0.72080818255E-04 -0.10984645320E-02  0.13141177833E-02  0.17142711340E-02  0.00000000000E+00 0. -1.
         12    1    1    0    0    0 -0.17004177104E-02  0.10981154956E-02 -0.54214913970E-02  0.57870412993E-02  0.00000000000E+00 0.  1.
         14    1    1    0    0    0  0.49898587629E-02  0.15781725545E-02  0.10078783118E-02  0.53296470593E-02  0.00000000000E+00 0.  1.
     999901    1    1    0    0    0  0.17747393602E-02 -0.34613542343E-02  0.22494876182E-02  0.90001121708E+00  0.90000000000E+00 0.  1.
     999903    1    1    0    0    0 -0.59031991980E-02  0.96320426300E-03 -0.32492825406E-02  0.21126603140E-01  0.20000000000E-01 0.  0.
</event>
<event>
 7    1  0.4717691E-066  0.9118800E+02  0.7957747E-01            NaN
     999900   -1    0    0    0    0  0.00000000000E+00  0.00000000000E+00  0.99999998245E-14  0.93827000000E+00  0.93827000000E+00 0. -1.
        -11    1    1    0    0    0 -0.36886222563E-02  0.14574952712E-02 -0.10737239397E-02  0.41405592272E-02  0.51100000000E-03 0. -1.
        -14    1    1    0    0    0  0.11290565941E-02 -0.66033466065E-04  0.67966057306E-04  0.11330262999E-02  0.00000000000E+00 0. -1.
         12    1    1    0    0    0  0.20773294639E-02  0.35839947325E-04  0.29089219763E-03  0.20979038286E-02  0.00000000000E+00 0.  1.
         14    1    1    0    0    0 -0.49251036292E-02  0.67972565170E-02 -0.40724140998E-03  0.84038793115E-02  0.00000000000E+00 0.  1.
     999901    1    1    0    0    0  0.20337355579E-02 -0.46370360180E-02  0.99892958388E-02  0.90006967742E+00  0.90000000000E+00 0. -1.
     999903    1    1    0    0    0  0.33736042695E-02 -0.35875222515E-02 -0.88671887440E-02  0.22424953911E-01  0.20000000000E-01 0.  0.
</event>
<event>
 7    1  0.4717691E-066  0.9118800E+02  0.7957747E-01            NaN
     999900   -1    0    0    0    0  0.00000000000E+00  0.00000000000E+00  0.99999998245E-14  0.93827000000E+00  0.93827000000E+00 0. -1.
        -11    1    1    0    0    0  0.15086775692E-02 -0.95049216768E-03  0.12854119204E-02  0.22567561175E-02  0.51100000000E-03 0. -1.
        -14    1    1    0    0    0 -0.19722759614E-02 -0.36481379935E-02 -0.37566609886E-03  0.41641215527E-02  0.00000000000E+00 0. -1.
         12    1    1    0    0    0 -0.33904826049E-04  0.19392178176E-02 -0.82950596884E-03  0.21094538235E-02  0.00000000000E+00 0.  1.
         14    1    1    0    0    0  0.49094329104E-02  0.12755298580E-02  0.60892924693E-03  0.51088455397E-02  0.00000000000E+00 0.  1.
     999901    1    1    0    0    0 -0.15388609318E-01 -0.12242665404E-02 -0.90936388175E-02  0.90017831700E+00  0.90000000000E+00 0. -1.
     999903    1    1    0    0    0  0.10976679625E-01  0.26081490260E-02  0.84044697178E-02  0.24452505969E-01  0.20000000000E-01 0.  0.
</event>
<event>
 7    1  0.4717691E-066  0.9118800E+02  0.7957747E-01            NaN
     999900   -1    0    0    0    0  0.00000000000E+00  0.00000000000E+00  0.99999998245E-14  0.93827000000E+00  0.93827000000E+00 0. -1.
        -11    1    1    0    0    0 -0.10041698980E-03  0.82618447417E-03  0.59877146370E-03  0.11455621428E-02  0.51100000000E-03 0. -1.
        -14    1    1    0    0    0 -0.65497167322E-02  0.35507244562E-02 -0.34387953990E-02  0.82055924364E-02  0.00000000000E+00 0. -1.
         12    1    1    0    0    0 -0.23026752610E-02 -0.33442799503E-03 -0.22115632501E-02  0.32101662652E-02  0.00000000000E+00 0.  1.
         14    1    1    0    0    0 -0.13264870423E-02 -0.61039416145E-03  0.74664919666E-03  0.16400103441E-02  0.00000000000E+00 0.  1.
     999901    1    1    0    0    0  0.73132966846E-02  0.71987386383E-02 -0.30723752679E-02  0.90006374532E+00  0.90000000000E+00 0.  1.
     999903    1    1    0    0    0  0.29659993407E-02 -0.10630825412E-01  0.73773132566E-02  0.24004923493E-01  0.20000000000E-01 0.  0.
</event>
<event>
 7    1  0.4717691E-066  0.9118800E+02  0.7957747E-01            NaN
     999900   -1    0    0    0    0  0.00000000000E+00  0.00000000000E+00  0.99999998245E-14  0.93827000000E+00  0.93827000000E+00 0.  1.
        -11    1    1    0    0    0  0.33010560668E-03  0.14432602736E-02  0.50719250238E-03  0.16463095588E-02  0.51100000000E-03 0. -1.
        -14    1    1    0    0    0 -0.21194757593E-02  0.38464162906E-02  0.25300597906E-02  0.50683624889E-02  0.00000000000E+00 0. -1.
         12    1    1    0    0    0 -0.51683558311E-02  0.32585389837E-02 -0.15321498245E-02  0.62990047936E-02  0.00000000000E+00 0.  1.
         14    1    1    0    0    0  0.34044706850E-02 -0.84536660419E-03 -0.20281488822E-03  0.35137158706E-02  0.00000000000E+00 0.  1.
     999901    1    1    0    0    0 -0.31314632563E-02 -0.39193796285E-02  0.23039453261E-02  0.90001693082E+00  0.90000000000E+00 0. -1.
     999903    1    1    0    0    0  0.66847185550E-02 -0.37834693151E-02 -0.36062329064E-02  0.21725676468E-01  0.20000000000E-01 0.  0.
</event>
<event>
 7    1  0.4717691E-066  0.9118800E+02  0.7957747E-01            NaN
     999900   -1    0    0    0    0  0.00000000000E+00  0.00000000000E+00  0.99999998245E-14  0.93827000000E+00  0.93827000000E+00 0. -1.
        -11    1    1    0    0    0 -0.29503278737E-02  0.40392701368E-03  0.59033456555E-03  0.30785073484E-02  0.51100000000E-03 0. -1.
        -14    1    1    0    0    0 -0.26947360310E-03 -0.41363282985E-04 -0.16398792294E-03  0.31814930900E-03  0.00000000000E+00 0. -1.
         12    1    1    0    0    0  0.44441206377E-02 -0.24350536032E-02  0.50262146499E-03  0.50923788772E-02  0.00000000000E+00 0.  1.
         14    1    1    0    0    0 -0.38780754164E-02  0.79080284328E-03 -0.29411202819E-03  0.39687957818E-02  0.00000000000E+00 0.  1.
     999901    1    1    0    0    0 -0.11144903998E-02  0.10956552999E-01  0.11657824357E-01  0.90014287367E+00  0.90000000000E+00 0. -1.
     999903    1    1    0    0    0  0.37682466555E-02 -0.96748659701E-02 -0.12292680437E-01  0.25669295018E-01  0.20000000000E-01 0.  0.
</event>
<event>
 7    1  0.4717691E-066  0.9118800E+02  0.7957747E-01            NaN
     999900   -1    0    0    0    0  0.00000000000E+00  0.00000000000E+00  0.99999998245E-14  0.93827000000E+00  0.93827000000E+00 0. -1.
        -11    1    1    0    0    0  0.31816861350E-03  0.62307296306E-03 -0.73687458852E-04  0.86948376955E-03  0.51100000000E-03 0. -1.
        -14    1    1    0    0    0 -0.23497237012E-03  0.51733756491E-02 -0.52962575956E-02  0.74073863231E-02  0.00000000000E+00 0. -1.
         12    1    1    0    0    0  0.37724529524E-03 -0.20898873005E-02 -0.49341850397E-02  0.53717897341E-02  0.00000000000E+00 0.  1.
         14    1    1    0    0    0 -0.54926071456E-04 -0.19346012354E-02 -0.58909894131E-03  0.20230512539E-02  0.00000000000E+00 0.  1.
     999901    1    1    0    0    0 -0.14331686410E-02 -0.11920904043E-01  0.10285751303E-01  0.90013885518E+00  0.90000000000E+00 0. -1.
     999903    1    1    0    0    0  0.10276531738E-02  0.10148943966E-01  0.60747773204E-03  0.22459433739E-01  0.20000000000E-01 0.  0.
</event>
<event>
 7    1  0.4717691E-066  0.9118800E+02  0.7957747E-01            NaN
     999900   -1    0    0    0    0  0.00000000000E+00  0.00000000000E+00  0.99999998245E-14  0.93827000000E+00  0.93827000000E+00 0. -1.
        -11    1    1    0    0    0 -0.33230309536E-02 -0.18053984748E-02 -0.19847277723E-02  0.43014257754E-02  0.51100000000E-03 0. -1.
        -14    1    1    0    0    0  0.19030943487E-02 -0.13656348368E-02 -0.91236188434E-03  0.25137881405E-02  0.00000000000E+00 0. -1.
         12    1    1    0    0    0  0.11284114007E-03  0.31888046321E-02 -0.31118153725E-02  0.44569724048E-02  0.00000000000E+00 0.  1.
         14    1    1    0    0    0 -0.92314802367E-03  0.17516759735E-03  0.15339966703E-03  0.95205956674E-03  0.00000000000E+00 0.  1.
     999901    1    1    0    0    0 -0.44617878739E-02  0.14658033003E-01  0.34196324274E-02  0.90013691146E+00  0.90000000000E+00 0.  1.
     999903    1    1    0    0    0  0.66920313624E-02 -0.14850971921E-01  0.24358729348E-02  0.25908842655E-01  0.20000000000E-01 0.  0.
</event>
<event>
 7    1  0.4717691E-066  0.9118800E+02  0.7957747E-01            NaN
     999900   -1    0    0    0    0  0.00000000000E+00  0.00000000000E+00  0.99999998245E-14  0.93827000000E+00  0.93827000000E+00 0.  1.
        -11    1    1    0    0    0  0.23020166947E-03  0.11312740407E-02  0.14998271637E-02  0.19604530815E-02  0.51100000000E-03 0. -1.
        -14    1    1    0    0    0  0.61889272472E-03  0.10483172938E-02 -0.40291623459E-02  0.42090553052E-02  0.00000000000E+00 0. -1.
         12    1    1    0    0    0  0.53361010891E-03  0.54181446245E-02 -0.21230906384E-02  0.58436756223E-02  0.00000000000E+00 0.  1.
         14    1    1    0    0    0 -0.48067342319E-02 -0.10029746880E-02  0.85595011563E-04  0.49110058753E-02  0.00000000000E+00 0.  1.
     999901    1    1    0    0    0  0.95004068570E-02 -0.41320622713E-02  0.13937537293E-02  0.90006070585E+00  0.90000000000E+00 0. -1.
     999903    1    1    0    0    0 -0.60763771282E-02 -0.24626989997E-02  0.31730770798E-02  0.21285104264E-01  0.20000000000E-01 0.  0.
</event>
<event>
 7    1  0.4717691E-066  0.9118800E+02  0.7957747E-01            NaN
     999900   -1    0    0    0    0  0.00000000000E+00  0.00000000000E+00  0.99999998245E-14  0.93827000000E+00  0.93827000000E+00 0. -1.
        -11    1    1    0    0    0 -0.94668017210E-03  0.19304386567E-02 -0.12174623684E-02  0.25231195718E-02  0.51100000000E-03 0. -1.
        -14    1    1    0    0    0 -0.12967397871E-02 -0.25688758620E-02 -0.23382014046E-02  0.37078083929E-02  0.00000000000E+00 0. -1.
         12    1    1    0    0    0 -0.78452778704E-03  0.54084111244E-03  0.27197844267E-02  0.28818779095E-02  0.00000000000E+00 0.  1.
         14    1    1    0    0    0 -0.16184138847E-02  0.16263166538E-02 -0.23342333129E-02  0.32730436172E-02  0.00000000000E+00 0.  1.
     999901    1    1    0    0    0  0.61579246746E-02 -0.14770770573E-01 -0.59939998027E-02  0.90016222079E+00  0.90000000000E+00 0.  1.
     999903    1    1    0    0    0 -0.15115630436E-02  0.13242050012E-01  0.91641124618E-02  0.25721929721E-01  0.20000000000E-01 0.  0.
</event>
<event>
 7    1  0.4717691E-066  0.9118800E+02  0.7957747E-01            NaN
     999900   -1    0    0    0    0  0.00000000000E+00  0.00000000000E+00  0.99999998245E-14  0.93827000000E+00  0.93827000000E+00 0.  1.
        -11    1    1    0    0    0  0.41065049502E-02 -0.18306853966E-02 -0.35756261463E-02  0.57672363629E-02  0.51100000000E-03 0. -1.
        -14    1    1    0    0    0 -0.58959448635E-03  0.16705792638E-02 -0.13786071222E-02  0.22447748957E-02  0.00000000000E+00 0. -1.
         12    1    1    0    0    0  0.67555382852E-03 -0.90050107679E-03  0.18071432020E-02  0.21290941072E-02  0.00000000000E+00 0.  1.
         14    1    1    0    0    0 -0.18870484619E-02  0.33100787175E-02  0.29099226372E-03  0.38212889856E-02  0.00000000000E+00 0.  1.
     999901    1    1    0    0    0  0.78163490191E-02 -0.11657307441E-02 -0.63345422770E-02  0.90005698745E+00  0.90000000000E+00 0. -1.
     999903    1    1    0    0    0 -0.10121764850E-01 -0.10837407638E-02  0.91906400797E-02  0.24250618194E-01  0.20000000000E-01 0.  0.
</event>
<event>
 7    1  0.4717691E-066  0.9118800E+02  0.7957747E-01            NaN
     999900   -1    0    0    0    0  0.00000000000E+00  0.00000000000E+00  0.99999998245E-14  0.93827000000E+00  0.93827000000E+00 0. -1.
        -11    1    1    0    0    0  0.35163790666E-03  0.74839032379E-03 -0.23587118727E-02  0.25511526792E-02  0.51100000000E-03 0. -1.
        -14    1    1    0    0    0 -0.29003808326E-03  0.24008804157E-02 -0.12828777632E-02  0.27375398108E-02  0.00000000000E+00 0. -1.
         12    1    1    0    0    0 -0.28120439365E-03  0.30916984222E-03 -0.38444682033E-02  0.38671174884E-02  0.00000000000E+00 0.  1.
         14    1    1    0    0    0  0.30712771295E-03 -0.38542701976E-02 -0.38365041566E-02  0.54468789533E-02  0.00000000000E+00 0.  1.
     999901    1    1    0    0    0 -0.44438595371E-02 -0.16012240765E-02  0.22433039471E-01  0.90029192658E+00  0.90000000000E+00 0. -1.
     999903    1    1    0    0    0  0.43563363944E-02  0.19970536924E-02 -0.11110477475E-01  0.23375384488E-01  0.20000000000E-01 0.  0.
</event>
<event>
 7    1  0.4717691E-066  0.9118800E+02  0.7957747E-01            NaN
     999900   -1    0    0    0    0  0.00000000000E+00  0.00000000000E+00  0.99999998245E-14  0.93827000000E+00  0.93827000000E+00 0. -1.
        -11    1    1    0    0    0  0.25332772564E-02  0.19528116546E-02  0.40362264272E-03  0.32641996345E-02  0.51100000000E-03 0. -1.
        -14    1    1    0    0    0  0.59494681675E-04 -0.34651403527E-02 -0.54460491188E-03  0.35081806954E-02  0.00000000000E+00 0. -1.
         12    1    1    0    0    0  0.53760805156E-03 -0.60525047400E-03  0.36293382569E-02  0.37185274957E-02  0.00000000000E+00 0.  1.
         14    1    1    0    0    0 -0.12706124775E-02  0.76886199938E-03 -0.12029508194E-02  0.19112026360E-02  0.00000000000E+00 0.  1.
     999901    1    1    0    0    0  0.12725571402E-01 -0.45910575071E-02  0.16899236771E-02  0.90010325731E+00  0.90000000000E+00 0. -1.
     999903    1    1    0    0    0 -0.14585338914E-01  0.59397746798E-02 -0.39753288454E-02  0.25764632229E-01  0.20000000000E-01 0.  0.
</event>
<event>
 7    1  0.4717691E-066  0.9118800E+02  0.7957747E-01            NaN
     999900   -1    0    0    0    0  0.00000000000E+00  0.00000000000E+00  0.99999998245E-14  0.93827000000E+00  0.93827000000E+00 0.  1.
        -11    1    1    0    0    0 -0.19179083362E-02 -0.45808435295E-02 -0.54193553839E-02  0.73683806637E-02  0.51100000000E-03 0. -1.
        -14    1    1    0    0    0  0.18428324188E-02 -0.77430569301E-04  0.13177414143E-02  0.22668191926E-02  0.00000000000E+00 0. -1.
         12    1    1    0    0    0 -0.16758557783E-03 -0.61860191701E-03 -0.11352776459E-02  0.13036903739E-02  0.00000000000E+00 0.  1.
         14    1    1    0    0    0  0.87719254751E-03 -0.27909435471E-02 -0.14046407478E-02  0.32452809245E-02  0.00000000000E+00 0.  1.
     999901    1    1    0    0    0 -0.39639272725E-02  0.16943649985E-01  0.15355871236E-01  0.90029917404E+00  0.90000000000E+00 0.  1.
     999903    1    1    0    0    0  0.33293962203E-02 -0.88758304220E-02 -0.87143388732E-02  0.23786654806E-01  0.20000000000E-01 0.  0.
</event>
<event>
 7    1  0.4717691E-066  0.9118800E+02  0.7957747E-01            NaN
     999900   -1    0    0    0    0  0.00000000000E+00  0.00000000000E+00  0.99999998245E-14  0.93827000000E+00  0.93827000000E+00 0.  1.
        -11    1    1    0    0    0 -0.87181434916E-03 -0.30654810439E-02  0.22689574881E-02  0.39454433683E-02  0.51100000000E-03 0. -1.
        -14    1    1    0    0    0 -0.77401593973E-03  0.15038719109E-02  0.25371736694E-02  0.30492591933E-02  0.00000000000E+00 0. -1.
         12    1    1    0    0    0  0.17774102298E-02 -0.24531865605E-02 -0.35029099390E-02  0.46311650226E-02  0.00000000000E+00 0.  1.
         14    1    1    0    0    0 -0.34395969499E-02  0.89653762113E-03  0.25906721707E-02  0.43984303086E-02  0.00000000000E+00 0.  1.
     999901    1    1    0    0    0 -0.14922287136E-02  0.11343527967E-01 -0.45521746178E-02  0.90008423198E+00  0.90000000000E+00 0. -1.
     999903    1    1    0    0    0  0.48002457225E-02 -0.82252698941E-02  0.65828122871E-03  0.22161470123E-01  0.20000000000E-01 0.  0.
</event>
<event>
 7    1  0.4717691E-066  0.9118800E+02  0.7957747E-01            NaN
     999900   -1    0    0    0    0  0.00000000000E+00  0.00000000000E+00  0.99999998245E-14  0.93827000000E+00  0.93827000000E+00 0. -1.
        -11    1    1    0    0    0 -0.52241148998E-04  0.81718958623E-03 -0.19609957771E-02  0.21856700106E-02  0.51100000000E-03 0. -1.
        -14    1    1    0    0    0  0.42188827405E-03 -0.35426044650E-03  0.29358370409E-02  0.29870770513E-02  0.00000000000E+00 0. -1.
         12    1    1    0    0    0  0.21621363016E-02  0.44543331447E-02  0.61430212554E-02  0.78900334154E-02  0.00000000000E+00 0.  1.
         14    1    1    0    0    0  0.96126301533E-03  0.81436745934E-03 -0.39661531762E-03  0.13208045479E-02  0.00000000000E+00 0.  1.
     999901    1    1    0    0    0 -0.10301908226E-01  0.33845213451E-02 -0.55915543356E-03  0.90006549592E+00  0.90000000000E+00 0. -1.
     999903    1    1    0    0    0  0.68088617844E-02 -0.91161510889E-02 -0.61620917681E-02  0.23820919051E-01  0.20000000000E-01 0.  0.
</event>
<event>
 7    1  0.4717691E-066  0.9118800E+02  0.7957747E-01            NaN
     999900   -1    0    0    0    0  0.00000000000E+00  0.00000000000E+00  0.99999998245E-14  0.93827000000E+00  0.93827000000E+00 0.  1.
        -11    1    1    0    0    0 -0.54402396316E-03 -0.21779389493E-02  0.85702373452E-03  0.24566218311E-02  0.51100000000E-03 0. -1.
        -14    1    1    0    0    0  0.24115930039E-02  0.27222917026E-02  0.11921425085E-02  0.38272518458E-02  0.00000000000E+00 0. -1.
         12    1    1    0    0    0  0.12628547387E-02  0.31229872749E-03 -0.35583799196E-02  0.37887201320E-02  0.00000000000E+00 0.  1.
         14    1    1    0    0    0 -0.28331722657E-02  0.37853969625E-02 -0.18612945010E-02  0.50813888328E-02  0.00000000000E+00 0.  1.
     999901    1    1    0    0    0  0.36304361684E-02 -0.20686361753E-02  0.13716226148E-01  0.90011421174E+00  0.90000000000E+00 0.  1.
     999903    1    1    0    0    0 -0.39276876822E-02 -0.25734122679E-02 -0.10345717970E-01  0.23001805615E-01  0.20000000000E-01 0.  0.
</event>
<event>
 7    1  0.4717691E-066  0.9118800E+02  0.7957747E-01            NaN
     999900   -1    0    0    0    0  0.00000000000E+00  0.00000000000E+00  0.99999998245E-14  0.93827000000E+00  0.93827000000E+00 0.  1.
        -11    1    1    0    0    0 -0.38307575142E-02  0.24621585210E-02 -0.44967034649E-02  0.64201550423E-02  0.51100000000E-03 0. -1.
        -14    1    1    0    0    0 -0.16861874039E-02 -0.18797182731E-02 -0.90317516637E-04  0.25268015358E-02  0.00000000000E+00 0. -1.
         12    1    1    0    0    0 -0.35704644084E-02  0.86794222838E-03  0.11700508029E-02  0.38562363368E-02  0.00000000000E+00 0.  1.
         14    1    1    0    0    0  0.28951169897E-02 -0.19774309117E-02 -0.17472367686E-02  0.39172403194E-02  0.00000000000E+00 0.  1.
     999901    1    1    0    0    0  0.68624354907E-02  0.12113287256E-02 -0.27179173113E-02  0.90003108136E+00  0.90000000000E+00 0. -1.
     999903    1    1    0    0    0 -0.67014315387E-03 -0.68428029014E-03  0.78821242586E-02  0.21518485407E-01  0.20000000000E-01 0.  0.
</event>
<event>
 7    1  0.4717691E-066  0.9118800E+02  0.7957747E-01            NaN
     999900   -1    0    0    0    0  0.00000000000E+00  0.00000000000E+00  0.99999998245E-14  0.93827000000E+00  0.93827000000E+00 0. -1.
        -11    1    1    0    0    0  0.55514207769E-03 -0.26105684367E-02 -0.18759324362E-02  0.33020438813E-02  0.51100000000E-03 0. -1.
        -14    1    1    0    0    0  0.10717903379E-02  0.21715979118E-02  0.36935672053E-02  0.44166741694E-02  0.00000000000E+00 0. -1.
         12    1    1    0    0    0  0.11831085546E-02  0.24549346797E-02 -0.25355591892E-02  0.37222990927E-02  0.00000000000E+00 0.  1.
         14    1    1    0    0    0 -0.38071451454E-03 -0.36535070523E-03 -0.18420374591E-02  0.19161228249E-02  0.00000000000E+00 0.  1.
     999901    1    1    0    0    0 -0.13769782260E-01  0.49634480745E-02 -0.39177121559E-02  0.90012754162E+00  0.90000000000E+00 0.  1.
     999903    1    1    0    0    0  0.11340455804E-01 -0.66140615241E-02  0.64776740351E-02  0.24785318408E-01  0.20000000000E-01 0.  0.
</event>
<event>
 7    1  0.4717691E-066  0.9118800E+02  0.7957747E-01            NaN
     999900   -1    0    0    0    0  0.00000000000E+00  0.00000000000E+00  0.99999998245E-14  0.93827000000E+00  0.93827000000E+00 0. -1.
        -11    1    1    0    0    0 -0.69484914387E-03  0.54911611500E-03  0.16085104102E-03  0.10350545386E-02  0.51100000000E-03 0. -1.
        -14    1    1    0    0    0  0.13435630434E-02 -0.19043528059E-02 -0.39050373137E-04  0.23309324728E-02  0.00000000000E+00 0. -1.
         12    1    1    0    0    0 -0.60510906246E-02 -0.30719364043E-02  0.42796973180E-02  0.80229857381E-02  0.00000000000E+00 0.  1.
         14    1    1    0    0    0  0.30494544176E-02 -0.53744430200E-03 -0.31404806978E-02  0.44102877044E-02  0.00000000000E+00 0.  1.
     999901    1    1    0    0    0  0.29832206142E-02 -0.51485968930E-02 -0.23726363627E-02  0.90002279808E+00  0.90000000000E+00 0. -1.
     999903    1    1    0    0    0 -0.63029830669E-03  0.10113214290E-01  0.11116190745E-02  0.22447941469E-01  0.20000000000E-01 0.  0.
</event>
<event>
 7    1  0.4717691E-066  0.9118800E+02  0.7957747E-01            NaN
     999900   -1    0    0    0    0  0.00000000000E+00  0.00000000000E+00  0.99999998245E-14  0.93827000000E+00  0.93827000000E+00 0. -1.
        -11    1    1    0    0    0 -0.43561197920E-03 -0.54183354639E-03  0.13526561676E-03  0.87336085068E-03  0.51100000000E-03 0. -1.
        -14    1    1    0    0    0  0.33355837940E-02  0.44703702706E-02  0.42529957293E-02  0.70141501464E-02  0.00000000000E+00 0. -1.
         12    1    1    0    0    0 -0.26631295233E-03  0.13379270118E-02 -0.69762587110E-03  0.15322053170E-02  0.00000000000E+00 0.  1.
         14    1    1    0    0    0  0.16208427035E-03 -0.25108819231E-02 -0.48263019723E-02  0.54427924883E-02  0.00000000000E+00 0.  1.
     999901    1    1    0    0    0 -0.23305243773E-02  0.82963489932E-02 -0.36878558075E-02  0.90004881036E+00  0.90000000000E+00 0.  1.
     999903    1    1    0    0    0 -0.46521875546E-03 -0.11051930806E-01  0.48235223048E-02  0.23358680837E-01  0.20000000000E-01 0.  0.
</event>
<event>
 7    1  0.4717691E-066  0.9118800E+02  0.7957747E-01            NaN
     999900   -1    0    0    0    0  0.00000000000E+00  0.00000000000E+00  0.99999998245E-14  0.93827000000E+00  0.93827000000E+00 0.  1.
        -11    1    1    0    0    0 -0.19913146433E-03 -0.92222703204E-06 -0.73285103478E-03  0.91533918837E-03  0.51100000000E-03 0. -1.
        -14    1    1    0    0    0  0.66213130839E-02 -0.74220657034E-04  0.64442825475E-02  0.92399173812E-02  0.00000000000E+00 0. -1.
         12    1    1    0    0    0 -0.89451311112E-03  0.22270040746E-02 -0.12069984102E-02  0.26863629718E-02  0.00000000000E+00 0.  1.
         14    1    1    0    0    0 -0.17239033960E-03 -0.60045491746E-03  0.45561078046E-03  0.77320483726E-03  0.00000000000E+00 0.  1.
     999901    1    1    0    0    0 -0.19182700041E-01 -0.38572446256E-02 -0.53429908941E-02  0.90022852758E+00  0.90000000000E+00 0.  1.
     999903    1    1    0    0    0  0.13827421872E-01  0.23058383525E-02  0.38294701118E-03  0.24426648041E-01  0.20000000000E-01 0.  0.
</event>
<event>
 7    1  0.4717691E-066  0.9118800E+02  0.7957747E-01            NaN
     999900   -1    0    0    0    0  0.00000000000E+00  0.00000000000E+00  0.99999998245E-14  0.93827000000E+00  0.93827000000E+00 0. -1.
        -11    1    1    0    0    0  0.15678335173E-02 -0.13578261372E-02  0.23368458218E-02  0.31660327149E-02  0.51100000000E-03 0. -1.
        -14    1    1    0    0    0  0.26308171529E-02  0.14265534438E-02 -0.24135335177E-02  0.38446583282E-02  0.00000000000E+00 0. -1.
         12    1    1    0    0    0  0.23972286802E-03 -0.14974056377E-02 -0.22878888626E-02  0.27448362692E-02  0.00000000000E+00 0.  1.
         14    1    1    0    0    0 -0.77173855939E-04 -0.40893838650E-02 -0.16658160481E-02  0.44163287135E-02  0.00000000000E+00 0. -1.
     999901    1    1    0    0    0  0.42409437350E-02  0.62803346442E-03  0.12856713919E-01  0.90010203595E+00  0.90000000000E+00 0. -1.
     999903    1    1    0    0    0 -0.86021434172E-02  0.48900287317E-02 -0.88263213124E-02  0.23996108024E-01  0.20000000000E-01 0.  0.
</event>
<event>
 7    1  0.4717691E-066  0.9118800E+02  0.7957747E-01            NaN
     999900   -1    0    0    0    0  0.00000000000E+00  0.00000000000E+00  0.99999998245E-14  0.93827000000E+00  0.93827000000E+00 0.  1.
        -11    1    1    0    0    0  0.27430258223E-02 -0.80007551979E-03 -0.15921062884E-03  0.29070226217E-02  0.51100000000E-03 0. -1.
        -14    1    1    0    0    0 -0.14165391022E-02 -0.26246032534E-02  0.24847775168E-03  0.29928024424E-02  0.00000000000E+00 0. -1.
         12    1    1    0    0    0  0.60876414673E-02 -0.17301035786E-02  0.95356871591E-03  0.64001508047E-02  0.00000000000E+00 0.  1.
         14    1    1    0    0    0 -0.13208940356E-02  0.51162549396E-04  0.81789954773E-03  0.15544575677E-02  0.00000000000E+00 0.  1.
     999901    1    1    0    0    0 -0.18269802605E-01  0.81913269524E-02  0.33537168151E-02  0.90022893252E+00  0.90000000000E+00 0.  1.
     999903    1    1    0    0    0  0.12176568453E-01 -0.30877071499E-02 -0.52144522016E-02  0.24186634046E-01  0.20000000000E-01 0.  0.
</event>
<event>
 7    1  0.4717691E-066  0.9118800E+02  0.7957747E-01            NaN
     999900   -1    0    0    0    0  0.00000000000E+00  0.00000000000E+00  0.99999998245E-14  0.93827000000E+00  0.93827000000E+00 0. -1.
        -11    1    1    0    0    0  0.21316883057E-02 -0.19067736645E-02 -0.17192932893E-02  0.33759400550E-02  0.51100000000E-03 0. -1.
        -14    1    1    0    0    0 -0.20706688142E-02 -0.17965708753E-02  0.56522132921E-03  0.27990733108E-02  0.00000000000E+00 0. -1.
         12    1    1    0    0    0  0.12130029324E-02  0.14036894127E-02  0.22807959652E-02  0.29400255638E-02  0.00000000000E+00 0.  1.
         14    1    1    0    0    0 -0.31348564819E-02  0.16517939811E-04 -0.41608576583E-02  0.52096386110E-02  0.00000000000E+00 0.  1.
     999901    1    1    0    0    0 -0.65104518540E-02 -0.34805203703E-02 -0.52066857298E-02  0.90004533751E+00  0.90000000000E+00 0.  1.
     999903    1    1    0    0    0  0.83712859120E-02  0.57636575576E-02  0.82408193831E-02  0.23899984945E-01  0.20000000000E-01 0.  0.
</event>
<event>
 7    1  0.4717691E-066  0.9118800E+02  0.7957747E-01            NaN
     999900   -1    0    0    0    0  0.00000000000E+00  0.00000000000E+00  0.99999998245E-14  0.93827000000E+00  0.93827000000E+00 0. -1.
        -11    1    1    0    0    0 -0.34143650635E-02  0.24600170724E-02 -0.10076636657E-02  0.43573018999E-02  0.51100000000E-03 0. -1.
        -14    1    1    0    0    0 -0.46225423164E-03 -0.46590356792E-03 -0.47148123579E-03  0.80810869626E-03  0.00000000000E+00 0. -1.
         12    1    1    0    0    0 -0.18012135570E-02 -0.10195714053E-02  0.16670035758E-02  0.26575923409E-02  0.00000000000E+00 0.  1.
         14    1    1    0    0    0 -0.15286437177E-02  0.11417367282E-02 -0.82705722537E-02  0.84877959316E-02  0.00000000000E+00 0.  1.
     999901    1    1    0    0    0  0.11846382143E-01 -0.92158163150E-02  0.96725042371E-02  0.90017710778E+00  0.90000000000E+00 0.  1.
     999903    1    1    0    0    0 -0.46399055728E-02  0.70995374875E-02 -0.15897906577E-02  0.21782093347E-01  0.20000000000E-01 0.  0.
</event>
<event>
 7    1  0.4717691E-066  0.9118800E+02  0.7957747E-01            NaN
     999900   -1    0    0    0    0  0.00000000000E+00  0.00000000000E+00  0.99999998245E-14  0.93827000000E+00  0.93827000000E+00 0. -1.
        -11    1    1    0    0    0 -0.32594542990E-02 -0.10417487544E-02 -0.49781286012E-02  0.60623566510E-02  0.51100000000E-03 0. -1.
        -14    1    1    0    0    0  0.89497816038E-03  0.12966127391E-02  0.56818745595E-02  0.58962605958E-02  0.00000000000E+00 0. -1.
         12    1    1    0    0    0  0.14974778429E-02  0.44113077130E-03  0.94134224666E-03  0.18229540512E-02  0.00000000000E+00 0.  1.
         14    1    1    0    0    0 -0.43260907172E-03 -0.21047593604E-02 -0.42678877418E-03  0.21907330353E-02  0.00000000000E+00 0.  1.
     999901    1    1    0    0    0 -0.12354880968E-02  0.70949747836E-03  0.81923328344E-02  0.90003841259E+00  0.90000000000E+00 0. -1.
     999903    1    1    0    0    0  0.25350954642E-02  0.69926712603E-03 -0.94106322652E-02  0.22259283078E-01  0.20000000000E-01 0.  0.
</event>
<event>
 7    1  0.4717691E-066  0.9118800E+02  0.7957747E-01            NaN
     999900   -1    0    0    0    0  0.00000000000E+00  0.00000000000E+00  0.99999998245E-14  0.93827000000E+00  0.93827000000E+00 0.  1.
        -11    1    1    0    0    0  0.76659789122E-03 -0.15204488244E-03 -0.13687175860E-03  0.94373982188E-03  0.51100000000E-03 0. -1.
        -14    1    1    0    0    0 -0.68199671368E-02 -0.67919899849E-02  0.65865971069E-02  0.11663033103E-01  0.00000000000E+00 0. -1.
         12    1    1    0    0    0  0.55310971559E-03  0.10982774313E-03 -0.92033094367E-03  0.10793523690E-02  0.00000000000E+00 0.  1.
         14    1    1    0    0    0 -0.35260582430E-03 -0.16977606638E-02  0.29968079499E-03  0.17596962004E-02  0.00000000000E+00 0.  1.
     999901    1    1    0    0    0 -0.46254879405E-02  0.10138455289E-01 -0.35708260038E-02  0.90007607135E+00  0.90000000000E+00 0.  1.
     999903    1    1    0    0    0  0.10478353295E-01 -0.16064875013E-02 -0.22582491958E-02  0.22748107158E-01  0.20000000000E-01 0.  0.
</event>
<event>
 7    1  0.4717691E-066  0.9118800E+02  0.7957747E-01            NaN
     999900   -1    0    0    0    0  0.00000000000E+00  0.00000000000E+00  0.99999998245E-14  0.93827000000E+00  0.93827000000E+00 0. -1.
        -11    1    1    0    0    0  0.37485025204E-02 -0.16140022785E-02 -0.84528018435E-03  0.41990348999E-02  0.51100000000E-03 0. -1.
        -14    1    1    0    0    0 -0.75443146762E-03  0.14532504456E-02  0.22593330243E-02  0.27902848263E-02  0.00000000000E+00 0. -1.
         12    1    1    0    0    0  0.73269643358E-03 -0.11013356216E-03  0.90109507758E-03  0.11665958187E-02  0.00000000000E+00 0.  1.
         14    1    1    0    0    0 -0.38098703872E-02  0.27636089308E-02  0.19370622534E-02  0.50896814108E-02  0.00000000000E+00 0.  1.
     999901    1    1    0    0    0  0.10930070974E-01  0.25974315867E-02 -0.12886711934E-01  0.90016236338E+00  0.90000000000E+00 0.  1.
     999903    1    1    0    0    0 -0.10846968073E-01 -0.50901551224E-02  0.86345017634E-02  0.24862039664E-01  0.20000000000E-01 0.  0.
</event>
<event>
 7    1  0.4717691E-066  0.9118800E+02  0.7957747E-01            NaN
     999900   -1    0    0    0    0  0.00000000000E+00  0.00000000000E+00  0.99999998245E-14  0.93827000000E+00  0.93827000000E+00 0.  1.
        -11    1    1    0    0    0 -0.53742460668E-03  0.37177474814E-02  0.21161421737E-02  0.43416183898E-02  0.51100000000E-03 0. -1.
        -14    1    1    0    0    0  0.23813458956E-03 -0.21160912902E-03 -0.40434954962E-03  0.51476700021E-03  0.00000000000E+00 0. -1.
         12    1    1    0    0    0 -0.20815444192E-02  0.21049413954E-02  0.49379095636E-02  0.57573046042E-02  0.00000000000E+00 0.  1.
         14    1    1    0    0    0  0.93676089435E-03  0.16609746464E-02 -0.40658804583E-02  0.44908508826E-02  0.00000000000E+00 0.  1.
     999901    1    1    0    0    0  0.95676797331E-02 -0.65771877444E-02 -0.10573479690E-01  0.90013698867E+00  0.90000000000E+00 0.  1.
     999903    1    1    0    0    0 -0.81236061912E-02 -0.69486664982E-03  0.79896579607E-02  0.23028470456E-01  0.20000000000E-01 0.  0.
</event>
<event>
 7    1  0.4717691E-066  0.9118800E+02  0.7957747E-01            NaN
     999900   -1    0    0    0    0  0.00000000000E+00  0.00000000000E+00  0.99999998245E-14  0.93827000000E+00  0.93827000000E+00 0. -1.
        -11    1    1    0    0    0  0.15877706729E-02  0.22930019886E-02  0.47944548184E-03  0.28757369142E-02  0.51100000000E-03 0. -1.
        -14    1    1    0    0    0 -0.11580538832E-02 -0.11042863888E-02  0.21444520176E-02  0.26756703236E-02  0.00000000000E+00 0. -1.
         12    1    1    0    0    0 -0.55340167339E-02 -0.58973106139E-03 -0.46215267741E-02  0.72340606618E-02  0.00000000000E+00 0.  1.
         14    1    1    0    0    0  0.91433244563E-03  0.13704494787E-02  0.35206865003E-03  0.16846625565E-02  0.00000000000E+00 0.  1.
     999901    1    1    0    0    0  0.15619292592E-01 -0.17846763480E-02  0.69361117046E-02  0.90016401673E+00  0.90000000000E+00 0. -1.
     999903    1    1    0    0    0 -0.11429325093E-01 -0.18475766917E-03 -0.52905510800E-02  0.23635852813E-01  0.20000000000E-01 0.  0.
</event>
<event>
 7    1  0.4717691E-066  0.9118800E+02  0.7957747E-01            NaN
     999900   -1    0    0    0    0  0.00000000000E+00  0.00000000000E+00  0.99999998245E-14  0.93827000000E+00  0.93827000000E+00 0. -1.
        -11    1    1    0    0    0 -0.25384410083E-02 -0.44727389824E-03  0.17084316675E-02  0.31342617081E-02  0.51100000000E-03 0. -1.
        -14    1    1    0    0    0  0.23518765968E-02  0.36716387196E-02  0.19825759640E-02  0.47898707568E-02  0.00000000000E+00 0. -1.
         12    1    1    0    0    0  0.49182384475E-02  0.16382000125E-02  0.38900579251E-02  0.64811510835E-02  0.00000000000E+00 0.  1.
         14    1    1    0    0    0 -0.52773032883E-03  0.14153302936E-02 -0.29570033782E-03  0.15391873927E-02  0.00000000000E+00 0.  1.
     999901    1    1    0    0    0 -0.60279666352E-02 -0.18463576891E-03  0.26915596649E-03  0.90002024584E+00  0.90000000000E+00 0.  1.
     999903    1    1    0    0    0  0.18240229280E-02 -0.60932593586E-02 -0.75545211852E-02  0.22305283221E-01  0.20000000000E-01 0.  0.
</event>
<event>
 7    1  0.4717691E-066  0.9118800E+02  0.7957747E-01            NaN
     999900   -1    0    0    0    0  0.00000000000E+00  0.00000000000E+00  0.99999998245E-14  0.93827000000E+00  0.93827000000E+00 0. -1.
        -11    1    1    0    0    0 -0.18301755420E-02  0.11492843186E-02 -0.10264846291E-02  0.24464645211E-02  0.51100000000E-03 0. -1.
        -14    1    1    0    0    0 -0.18884313057E-02  0.50632993520E-02  0.22310991454E-03  0.54085997410E-02  0.00000000000E+00 0. -1.
         12    1    1    0    0    0 -0.23969353543E-02 -0.26951559451E-02  0.10039861906E-03  0.36082190265E-02  0.00000000000E+00 0.  1.
         14    1    1    0    0    0  0.36849277706E-02  0.28024348715E-02 -0.14780090804E-02  0.48597165272E-02  0.00000000000E+00 0.  1.
     999901    1    1    0    0    0  0.19203613012E-02 -0.75203553795E-02 -0.66187504881E-02  0.90005780447E+00  0.90000000000E+00 0. -1.
     999903    1    1    0    0    0  0.51025313010E-03  0.12004927825E-02  0.87997356639E-02  0.21889195712E-01  0.20000000000E-01 0.  0.
</event>
<event>
 7    1  0.5046690E-066  0.9118800E+02  0.7957747E-01            NaN
     999900   -1    0    0    0    0  0.00000000000E+00  0.00000000000E+00  0.99999998245E-14  0.93827000000E+00  0.93827000000E+00 0. -1.
        -11    1    1    0    0    0  0.85985515419E-02 -0.88393222659E-03 -0.24388834062E-02  0.89958711679E-02  0.51100000000E-03 0. -1.
        -14    1    1    0    0    0 -0.39705378404E-02  0.10232618627E-02  0.46145812871E-03  0.41261579207E-02  0.00000000000E+00 0. -1.
         12    1    1    0    0    0 -0.12244770107E-02  0.11072994145E-03  0.61951487010E-03  0.13767366284E-02  0.00000000000E+00 0.  1.
         14    1    1    0    0    0  0.12273316205E-02  0.14508226610E-03  0.20736343527E-02  0.24139907206E-02  0.00000000000E+00 0.  1.
     999901    1    1    0    0    0 -0.11044947506E-01  0.34618745325E-03  0.26579645645E-02  0.90007176130E+00  0.90000000000E+00 0.  1.
     999903    1    1    0    0    0  0.64140791950E-02 -0.74132929696E-03 -0.33736885098E-02  0.21285482264E-01  0.20000000000E-01 0.  0.
</event>
<event>
 7    1  0.4717691E-066  0.9118800E+02  0.7957747E-01            NaN
     999900   -1    0    0    0    0  0.00000000000E+00  0.00000000000E+00  0.99999998245E-14  0.93827000000E+00  0.93827000000E+00 0.  1.
        -11    1    1    0    0    0  0.16300342539E-02  0.24521138324E-02  0.44644656804E-02  0.53723783121E-02  0.51100000000E-03 0. -1.
        -14    1    1    0    0    0 -0.11787990891E-02 -0.13525217282E-02 -0.12300175926E-02  0.21752759815E-02  0.00000000000E+00 0. -1.
         12    1    1    0    0    0 -0.11247274595E-02  0.38752283311E-02 -0.18917970640E-02  0.44566021370E-02  0.00000000000E+00 0.  1.
         14    1    1    0    0    0 -0.65635460023E-03 -0.15858486921E-02  0.33369919089E-02  0.37524968268E-02  0.00000000000E+00 0.  1.
     999901    1    1    0    0    0  0.11247025141E-01 -0.38696102275E-02 -0.25415689292E-02  0.90008217904E+00  0.90000000000E+00 0. -1.
     999903    1    1    0    0    0 -0.99171782456E-02  0.48063848420E-03 -0.21380740036E-02  0.22431067700E-01  0.20000000000E-01 0.  0.
</event>
<event>
 7    1  0.4717691E-066  0.9118800E+02  0.7957747E-01            NaN
     999900   -1    0    0    0    0  0.00000000000E+00  0.00000000000E+00  0.99999998245E-14  0.93827000000E+00  0.93827000000E+00 0. -1.
        -11    1    1    0    0    0 -0.25556937071E-03  0.16547998008E-02 -0.10881349691E-02  0.20612706748E-02  0.51100000000E-03 0. -1.
        -14    1    1    0    0    0 -0.54686688511E-03 -0.73953097239E-03 -0.80315545737E-03  0.12210766306E-02  0.00000000000E+00 0. -1.
         12    1    1    0    0    0 -0.14726524588E-02  0.89941319737E-03  0.56979673858E-03  0.18172280230E-02  0.00000000000E+00 0.  1.
         14    1    1    0    0    0  0.27747451813E-02 -0.38718623610E-03  0.13853891836E-02  0.31254483186E-02  0.00000000000E+00 0.  1.
     999901    1    1    0    0    0  0.18378909279E-01 -0.45851805852E-02  0.10911060881E-01  0.90026543832E+00  0.90000000000E+00 0. -1.
     999903    1    1    0    0    0 -0.18878565746E-01  0.31576847956E-02 -0.10974956377E-01  0.29779538031E-01  0.20000000000E-01 0.  0.
</event>
<event>
 7    1  0.4717691E-066  0.9118800E+02  0.7957747E-01            NaN
     999900   -1    0    0    0    0  0.00000000000E+00  0.00000000000E+00  0.99999998245E-14  0.93827000000E+00  0.93827000000E+00 0. -1.
        -11    1    1    0    0    0  0.54859127306E-03  0.68538709343E-03  0.27980978300E-02  0.29767734746E-02  0.51100000000E-03 0. -1.
        -14    1    1    0    0    0 -0.14907410296E-02 -0.40825580595E-02 -0.97777141404E-03  0.44548429899E-02  0.00000000000E+00 0. -1.
         12    1    1    0    0    0  0.13917989004E-02 -0.43670528228E-02 -0.34015182168E-03  0.45960806997E-02  0.00000000000E+00 0.  1.
         14    1    1    0    0    0  0.17905380993E-02  0.61867981303E-03  0.19260381406E-02  0.27015577571E-02  0.00000000000E+00 0.  1.
     999901    1    1    0    0    0 -0.26057291661E-03  0.14994819477E-01  0.56459082909E-02  0.90014264913E+00  0.90000000000E+00 0.  1.
     999903    1    1    0    0    0 -0.19796143265E-02 -0.78492755012E-02 -0.90521210258E-02  0.23398095945E-01  0.20000000000E-01 0.  0.
</event>
<event>
 7    1  0.4717691E-066  0.9118800E+02  0.7957747E-01            NaN
     999900   -1    0    0    0    0  0.00000000000E+00  0.00000000000E+00  0.99999998245E-14  0.93827000000E+00  0.93827000000E+00 0.  1.
        -11    1    1    0    0    0  0.11265606612E-03 -0.92768442903E-03  0.78998719715E-03  0.13260809028E-02  0.51100000000E-03 0. -1.
        -14    1    1    0    0    0 -0.42982961348E-02  0.65566838597E-02 -0.95473712327E-03  0.78979095888E-02  0.00000000000E+00 0. -1.
         12    1    1    0    0    0  0.10100054482E-02  0.24204402053E-02  0.25307555506E-02  0.36446351600E-02  0.00000000000E+00 0.  1.
         14    1    1    0    0    0  0.24061447609E-03 -0.35321975841E-03 -0.17490439334E-02  0.18005038752E-02  0.00000000000E+00 0.  1.
     999901    1    1    0    0    0  0.12944579390E-01 -0.47489223534E-03 -0.11061170256E-02  0.90009389019E+00  0.90000000000E+00 0. -1.
     999903    1    1    0    0    0 -0.10009559245E-01 -0.72213276422E-02  0.48915533456E-03  0.23506980286E-01  0.20000000000E-01 0.  0.
</event>
<event>
 7    1  0.4717691E-066  0.9118800E+02  0.7957747E-01            NaN
     999900   -1    0    0    0    0  0.00000000000E+00  0.00000000000E+00  0.99999998245E-14  0.93827000000E+00  0.93827000000E+00 0. -1.
        -11    1    1    0    0    0 -0.11823933258E-02 -0.43698631780E-03  0.12203914265E-02  0.18274264015E-02  0.51100000000E-03 0. -1.
        -14    1    1    0    0    0  0.32583040724E-02 -0.17995001642E-02  0.48215658844E-03  0.37532947187E-02  0.00000000000E+00 0. -1.
         12    1    1    0    0    0  0.42761361143E-03 -0.92462633603E-03  0.27841144615E-03  0.10560777411E-02  0.00000000000E+00 0.  1.
         14    1    1    0    0    0  0.44583032976E-02  0.46881821469E-02  0.43753447408E-02  0.78101960114E-02  0.00000000000E+00 0.  1.
     999901    1    1    0    0    0 -0.10101117010E-01 -0.11313016015E-01 -0.13501628308E-01  0.90022903245E+00  0.90000000000E+00 0.  1.
     999903    1    1    0    0    0  0.31392893541E-02  0.97859466857E-02  0.71453241061E-02  0.23593972679E-01  0.20000000000E-01 0.  0.
</event>
<event>
 7    1  0.4717691E-066  0.9118800E+02  0.7957747E-01            NaN
     999900   -1    0    0    0    0  0.00000000000E+00  0.00000000000E+00  0.99999998245E-14  0.93827000000E+00  0.93827000000E+00 0.  1.
        -11    1    1    0    0    0 -0.21155534606E-02  0.11182138118E-02 -0.48126722409E-03  0.24937336895E-02  0.51100000000E-03 0. -1.
        -14    1    1    0    0    0 -0.21326324881E-03 -0.11121805929E-02 -0.19474446388E-03  0.11490658340E-02  0.00000000000E+00 0. -1.
         12    1    1    0    0    0 -0.35857917214E-02  0.30147085514E-02  0.95393145101E-03  0.47808320544E-02  0.00000000000E+00 0.  1.
         14    1    1    0    0    0  0.29693929695E-03  0.46474646555E-03  0.14091920597E-02  0.15132694686E-02  0.00000000000E+00 0.  1.
     999901    1    1    0    0    0  0.14945940580E-01 -0.19626713509E-01  0.42793057697E-02  0.90034821124E+00  0.90000000000E+00 0. -1.
     999903    1    1    0    0    0 -0.93282714466E-02  0.16141225274E-01 -0.59664175925E-02  0.27984887715E-01  0.20000000000E-01 0.  0.
</event>
<event>
 7    1  0.4717691E-066  0.9118800E+02  0.7957747E-01            NaN
     999900   -1    0    0    0    0  0.00000000000E+00  0.00000000000E+00  0.99999998245E-14  0.93827000000E+00  0.93827000000E+00 0. -1.
        -11    1    1    0    0    0 -0.22577282485E-02 -0.43893244932E-02  0.18656751465E-03  0.49658266974E-02  0.51100000000E-03 0. -1.
        -14    1    1    0    0    0  0.11713507291E-02  0.79541431666E-03 -0.12170794442E-02  0.18670910099E-02  0.00000000000E+00 0. -1.
         12    1    1    0    0    0  0.32629210060E-02  0.92126338363E-03 -0.43535649502E-02  0.55180528712E-02  0.00000000000E+00 0.  1.
         14    1    1    0    0    0 -0.20849973753E-02  0.12147292520E-02  0.26518139994E-02  0.35853728813E-02  0.00000000000E+00 0.  1.
     999901    1    1    0    0    0 -0.74064028967E-02  0.28515420664E-02  0.90377813505E-02  0.90008036729E+00  0.90000000000E+00 0. -1.
     999903    1    1    0    0    0  0.73148567854E-02 -0.13936245255E-02 -0.63055184701E-02  0.22253289246E-01  0.20000000000E-01 0.  0.
</event>
<event>
 7    1  0.4717691E-066  0.9118800E+02  0.7957747E-01            NaN
     999900   -1    0    0    0    0  0.00000000000E+00  0.00000000000E+00  0.99999998245E-14  0.93827000000E+00  0.93827000000E+00 0.  1.
        -11    1    1    0    0    0 -0.58320436594E-03 -0.34655717673E-03  0.15845802864E-02  0.17978445131E-02  0.51100000000E-03 0. -1.
        -14    1    1    0    0    0  0.20605450432E-03  0.16705841641E-02  0.11403539585E-02  0.20331544601E-02  0.00000000000E+00 0. -1.
         12    1    1    0    0    0  0.17446387018E-02  0.64970317974E-03 -0.68923659192E-03  0.19851764409E-02  0.00000000000E+00 0.  1.
         14    1    1    0    0    0  0.13632015792E-02  0.31396491244E-02  0.47170907248E-02  0.58280923187E-02  0.00000000000E+00 0.  1.
     999901    1    1    0    0    0  0.25837952177E-02 -0.13524917778E-01  0.74839568549E-02  0.90013643911E+00  0.90000000000E+00 0. -1.
     999903    1    1    0    0    0 -0.53144856371E-02  0.84115384860E-02 -0.14236745233E-01  0.26489293160E-01  0.20000000000E-01 0.  0.
</event>
<event>
 7    1  0.4717691E-066  0.9118800E+02  0.7957747E-01            NaN
     999900   -1    0    0    0    0  0.00000000000E+00  0.00000000000E+00  0.99999998245E-14  0.93827000000E+00  0.93827000000E+00 0. -1.
        -11    1    1    0    0    0  0.18406448163E-02 -0.12235131502E-02 -0.30454386968E-03  0.22888481245E-02  0.51100000000E-03 0. -1.
        -14    1    1    0    0    0 -0.38766735179E-02  0.16866670008E-02  0.19494498261E-02  0.46555126206E-02  0.00000000000E+00 0. -1.
         12    1    1    0    0    0 -0.10883869110E-02  0.41050649937E-03  0.16187600900E-02  0.19933604498E-02  0.00000000000E+00 0.  1.
         14    1    1    0    0    0 -0.19667149703E-02 -0.98502485795E-03 -0.11338079039E-02  0.24746236296E-02  0.00000000000E+00 0.  1.
     999901    1    1    0    0    0 -0.12518440954E-01 -0.13491849470E-02 -0.36894268862E-04  0.90008806959E+00  0.90000000000E+00 0.  1.
     999903    1    1    0    0    0  0.17609571537E-01  0.14605494550E-02 -0.20929638736E-02  0.26769585582E-01  0.20000000000E-01 0.  0.
</event>
<event>
 7    1  0.4717691E-066  0.9118800E+02  0.7957747E-01            NaN
     999900   -1    0    0    0    0  0.00000000000E+00  0.00000000000E+00  0.99999998245E-14  0.93827000000E+00  0.93827000000E+00 0. -1.
        -11    1    1    0    0    0  0.16459078436E-03  0.88449806724E-03  0.23698908763E-03  0.10614668082E-02  0.51100000000E-03 0. -1.
        -14    1    1    0    0    0  0.92809605692E-03  0.25433947135E-02 -0.22487475343E-02  0.35195290072E-02  0.00000000000E+00 0. -1.
         12    1    1    0    0    0 -0.11910341082E-02 -0.23088914872E-02  0.17225580701E-02  0.31171699427E-02  0.00000000000E+00 0.  1.
         14    1    1    0    0    0  0.93368566122E-03  0.23162546663E-02 -0.16935131860E-02  0.30174147054E-02  0.00000000000E+00 0.  1.
     999901    1    1    0    0    0  0.13865721716E-02 -0.21519621206E-01  0.54739115203E-02  0.90027494711E+00  0.90000000000E+00 0.  1.
     999903    1    1    0    0    0 -0.22219105658E-02  0.18084365246E-01 -0.34911979577E-02  0.27279472431E-01  0.20000000000E-01 0.  0.
</event>
<event>
 7    1  0.4717691E-066  0.9118800E+02  0.7957747E-01            NaN
     999900   -1    0    0    0    0  0.00000000000E+00  0.00000000000E+00  0.99999998245E-14  0.93827000000E+00  0.93827000000E+00 0. -1.
        -11    1    1    0    0    0 -0.14684513820E-02 -0.19154009444E-02  0.17811264035E-03  0.24734500908E-02  0.51100000000E-03 0. -1.
        -14    1    1    0    0    0 -0.97771015318E-02  0.87750685117E-03 -0.11634910238E-02  0.98851122401E-02  0.00000000000E+00 0. -1.
         12    1    1    0    0    0 -0.70306900304E-03 -0.20873872104E-03 -0.61894372961E-03  0.95967141102E-03  0.00000000000E+00 0.  1.
         14    1    1    0    0    0  0.50440324656E-04  0.14896833419E-03 -0.24744214752E-02  0.24794147350E-02  0.00000000000E+00 0.  1.
     999901    1    1    0    0    0  0.41316666494E-02  0.29665413352E-02  0.10238071227E-01  0.90007260215E+00  0.90000000000E+00 0. -1.
     999903    1    1    0    0    0  0.77665149429E-02 -0.18688768551E-02 -0.61593276389E-02  0.22399749374E-01  0.20000000000E-01 0.  0.
</event>
<event>
 7    1  0.4717691E-066  0.9118800E+02  0.7957747E-01            NaN
     999900   -1    0    0    0    0  0.00000000000E+00  0.00000000000E+00  0.99999998245E-14  0.93827000000E+00  0.93827000000E+00 0. -1.
        -11    1    1    0    0    0  0.46195767136E-03 -0.15445225456E-02  0.52612621443E-03  0.17711252292E-02  0.51100000000E-03 0. -1.
        -14    1    1    0    0    0 -0.14628810711E-02  0.30165015118E-02 -0.36409341701E-03  0.33722198052E-02  0.00000000000E+00 0. -1.
         12    1    1    0    0    0 -0.83576335353E-03  0.20006744962E-03  0.46929935604E-04  0.86065660187E-03  0.00000000000E+00 0.  1.
         14    1    1    0    0    0 -0.60904748127E-03  0.39270470519E-02 -0.99897892439E-05  0.39740076973E-02  0.00000000000E+00 0.  1.
     999901    1    1    0    0    0 -0.57167517714E-02  0.11093247580E-01 -0.71757558703E-02  0.90011512201E+00  0.90000000000E+00 0. -1.
     999903    1    1    0    0    0  0.81624860060E-02 -0.16692341048E-01  0.69767829265E-02  0.28176868660E-01  0.20000000000E-01 0.  0.
</event>
<event>
 7    1  0.4717691E-066  0.9118800E+02  0.7957747E-01            NaN
     999900   -1    0    0    0    0  0.00000000000E+00  0.00000000000E+00  0.99999998245E-14  0.93827000000E+00  0.93827000000E+00 0.  1.
        -11    1    1    0    0    0 -0.33060421709E-02  0.23022473610E-02  0.10065099859E-02  0.41838309119E-02  0.51100000000E-03 0. -1.
        -14    1    1    0    0    0  0.17309676178E-03 -0.15613727930E-02 -0.37146666445E-03  0.16142598832E-02  0.00000000000E+00 0. -1.
         12    1    1    0    0    0 -0.46991444399E-03  0.10430001963E-04  0.20287770714E-03  0.51194504946E-03  0.00000000000E+00 0.  1.
         14    1    1    0    0    0  0.24723712080E-03 -0.47897225552E-02 -0.66400802605E-02  0.81910459782E-02  0.00000000000E+00 0.  1.
     999901    1    1    0    0    0 -0.47668960177E-02 -0.48247526838E-02  0.14246487051E-02  0.90002668358E+00  0.90000000000E+00 0.  1.
     999903    1    1    0    0    0  0.81225187501E-02  0.88631706691E-02  0.43775105268E-02  0.23742234595E-01  0.20000000000E-01 0.  0.
</event>
<event>
 7    1  0.4717691E-066  0.9118800E+02  0.7957747E-01            NaN
     999900   -1    0    0    0    0  0.00000000000E+00  0.00000000000E+00  0.99999998245E-14  0.93827000000E+00  0.93827000000E+00 0. -1.
        -11    1    1    0    0    0  0.17466798557E-03 -0.15757314817E-02  0.59848848437E-02  0.62123591494E-02  0.51100000000E-03 0. -1.
        -14    1    1    0    0    0 -0.30327001067E-02  0.73720965384E-05 -0.16673555562E-02  0.34608378805E-02  0.00000000000E+00 0. -1.
         12    1    1    0    0    0  0.17756884651E-02  0.22508068569E-02  0.90166792541E-03  0.30053628865E-02  0.00000000000E+00 0.  1.
         14    1    1    0    0    0 -0.20287621669E-02 -0.10471440506E-03 -0.11480374927E-02  0.23334161912E-02  0.00000000000E+00 0.  1.
     999901    1    1    0    0    0  0.37222527164E-02 -0.10961546025E-01 -0.92738739281E-02  0.90012222248E+00  0.90000000000E+00 0. -1.
     999903    1    1    0    0    0 -0.61114689348E-03  0.10383812958E-01  0.52027142078E-02  0.23135801417E-01  0.20000000000E-01 0.  0.
</event>
<event>
 7    1  0.4717691E-066  0.9118800E+02  0.7957747E-01            NaN
     999900   -1    0    0    0    0  0.00000000000E+00  0.00000000000E+00  0.99999998245E-14  0.93827000000E+00  0.93827000000E+00 0. -1.
        -11    1    1    0    0    0 -0.19850315289E-02 -0.97117473862E-03  0.11211448172E-02  0.25301417440E-02  0.51100000000E-03 0. -1.
        -14    1    1    0    0    0  0.32785451199E-02 -0.18545468760E-02 -0.15989700113E-03  0.37701152860E-02  0.00000000000E+00 0. -1.
         12    1    1    0    0    0 -0.30115782146E-02  0.18345491489E-02 -0.23735869580E-02  0.42507751023E-02  0.00000000000E+00 0.  1.
         14    1    1    0    0    0 -0.15250202870E-02  0.24350498435E-03  0.44393785707E-02  0.47003259087E-02  0.00000000000E+00 0.  1.
     999901    1    1    0    0    0  0.11294308393E-01  0.43780269788E-02 -0.97852244393E-02  0.90013470055E+00  0.90000000000E+00 0.  1.
     999903    1    1    0    0    0 -0.80512234822E-02 -0.36303594974E-02  0.67581850106E-02  0.22883941406E-01  0.20000000000E-01 0.  0.
</event>
<event>
 7    1  0.4717691E-066  0.9118800E+02  0.7957747E-01            NaN
     999900   -1    0    0    0    0  0.00000000000E+00  0.00000000000E+00  0.99999998245E-14  0.93827000000E+00  0.93827000000E+00 0. -1.
        -11    1    1    0    0    0 -0.38850419479E-02 -0.25783554050E-02 -0.42253647943E-02  0.63131843136E-02  0.51100000000E-03 0. -1.
        -14    1    1    0    0    0 -0.57071296356E-04 -0.29414281402E-02 -0.11017475941E-02  0.31415130746E-02  0.00000000000E+00 0. -1.
         12    1    1    0    0    0 -0.20575227425E-02  0.95073145765E-03 -0.20364110748E-02  0.30470084027E-02  0.00000000000E+00 0.  1.
         14    1    1    0    0    0  0.84729313352E-03 -0.41001254471E-02 -0.19859739848E-02  0.46338997620E-02  0.00000000000E+00 0.  1.
     999901    1    1    0    0    0  0.75953250743E-02  0.30086134639E-02  0.11365439781E-01  0.90010883450E+00  0.90000000000E+00 0. -1.
     999903    1    1    0    0    0 -0.24429822210E-02  0.56605640707E-02 -0.20159423332E-02  0.21025559950E-01  0.20000000000E-01 0.  0.
</event>
<event>
 7    1  0.4717691E-066  0.9118800E+02  0.7957747E-01            NaN
     999900   -1    0    0    0    0  0.00000000000E+00  0.00000000000E+00  0.99999998245E-14  0.93827000000E+00  0.93827000000E+00 0. -1.
        -11    1    1    0    0    0  0.20585263439E-02  0.29175105438E-02 -0.20746218144E-02  0.41610786047E-02  0.51100000000E-03 0. -1.
        -14    1    1    0    0    0  0.13450605500E-02  0.82852649114E-03 -0.17752946978E-03  0.15897046085E-02  0.00000000000E+00 0. -1.
         12    1    1    0    0    0  0.53154372053E-02 -0.16966427795E-02 -0.12313320445E-02  0.57138995448E-02  0.00000000000E+00 0.  1.
         14    1    1    0    0    0  0.77517795145E-03  0.26402742327E-03  0.88443059140E-03  0.12053334840E-02  0.00000000000E+00 0.  1.
     999901    1    1    0    0    0 -0.27481658760E-02 -0.51340680949E-02  0.16499267577E-01  0.90017005999E+00  0.90000000000E+00 0. -1.
     999903    1    1    0    0    0 -0.67460361747E-02  0.28206464162E-02 -0.13900214840E-01  0.25429923768E-01  0.20000000000E-01 0.  0.
</event>
<event>
 7    1  0.4717691E-066  0.9118800E+02  0.7957747E-01            NaN
     999900   -1    0    0    0    0  0.00000000000E+00  0.00000000000E+00  0.99999998245E-14  0.93827000000E+00  0.93827000000E+00 0.  1.
        -11    1    1    0    0    0 -0.16387754371E-02  0.20453129724E-02  0.66643888412E-03  0.27521177073E-02  0.51100000000E-03 0. -1.
        -14    1    1    0    0    0 -0.10898346901E-02 -0.24699768519E-02  0.53145880209E-03  0.27515402522E-02  0.00000000000E+00 0. -1.
         12    1    1    0    0    0  0.61804112753E-03 -0.26190003601E-02  0.18033104098E-02  0.32393002571E-02  0.00000000000E+00 0.  1.
         14    1    1    0    0    0  0.57366733842E-04  0.19262282222E-02 -0.75746172236E-02  0.78159114753E-02  0.00000000000E+00 0.  1.
     999901    1    1    0    0    0  0.27300645838E-02  0.17125775391E-02 -0.37910266879E-02  0.90001375437E+00  0.90000000000E+00 0.  1.
     999903    1    1    0    0    0 -0.67686231801E-03 -0.59514152157E-03  0.83644358155E-02  0.21697375937E-01  0.20000000000E-01 0.  0.
</event>
<event>
 7    1  0.4717691E-066  0.9118800E+02  0.7957747E-01            NaN
     999900   -1    0    0    0    0  0.00000000000E+00  0.00000000000E+00  0.99999998245E-14  0.93827000000E+00  0.93827000000E+00 0.  1.
        -11    1    1    0    0    0  0.18237004376E-02  0.33620667216E-03  0.11609925221E-02  0.22467627487E-02  0.51100000000E-03 0. -1.
        -14    1    1    0    0    0 -0.26887036209E-02 -0.87219306464E-03  0.15747505199E-02  0.32356895869E-02  0.00000000000E+00 0. -1.
         12    1    1    0    0    0  0.17269923176E-02 -0.66658699116E-02  0.59151890210E-03  0.69113109288E-02  0.00000000000E+00 0.  1.
         14    1    1    0    0    0  0.35728054024E-02  0.27840460497E-02  0.28795117997E-03  0.45385864245E-02  0.00000000000E+00 0.  1.
     999901    1    1    0    0    0 -0.11575227687E-01  0.37070672455E-02 -0.36167720445E-02  0.90008933406E+00  0.90000000000E+00 0. -1.
     999903    1    1    0    0    0  0.71404331498E-02  0.71074300891E-03  0.15589204504E-05  0.21248316254E-01  0.20000000000E-01 0.  0.
</event>
<event>
 7    1  0.4717691E-066  0.9118800E+02  0.7957747E-01            NaN
     999900   -1    0    0    0    0  0.00000000000E+00  0.00000000000E+00  0.99999998245E-14  0.93827000000E+00  0.93827000000E+00 0.  1.
        -11    1    1    0    0    0 -0.24067090668E-03 -0.17232231568E-03  0.12382167557E-02  0.13718306018E-02  0.51100000000E-03 0. -1.
        -14    1    1    0    0    0  0.44100209399E-02 -0.15987751818E-02 -0.20266196589E-02  0.51099465764E-02  0.00000000000E+00 0. -1.
         12    1    1    0    0    0 -0.58872842934E-02 -0.21228523855E-03  0.42862769732E-02  0.72854204864E-02  0.00000000000E+00 0.  1.
         14    1    1    0    0    0  0.63976190134E-03 -0.30654038262E-03 -0.45899728227E-03  0.84495017706E-03  0.00000000000E+00 0.  1.
     999901    1    1    0    0    0  0.67157467564E-02  0.45096521155E-02 -0.13821439058E-01  0.90014247228E+00  0.90000000000E+00 0. -1.
     999903    1    1    0    0    0 -0.56375743976E-02 -0.22197289969E-02  0.10782562271E-01  0.23515379883E-01  0.20000000000E-01 0.  0.
</event>
<event>
 7    1  0.4717691E-066  0.9118800E+02  0.7957747E-01            NaN
     999900   -1    0    0    0    0  0.00000000000E+00  0.00000000000E+00  0.99999998245E-14  0.93827000000E+00  0.93827000000E+00 0.  1.
        -11    1    1    0    0    0 -0.16853095362E-04  0.26780580101E-02 -0.11411738935E-03  0.27288133888E-02  0.51100000000E-03 0. -1.
        -14    1    1    0    0    0  0.19602768045E-02 -0.35444436516E-03  0.30543032990E-02  0.36465167764E-02  0.00000000000E+00 0. -1.
         12    1    1    0    0    0  0.42091641541E-02  0.45067945276E-02  0.18840605460E-02  0.64480961478E-02  0.00000000000E+00 0.  1.
         14    1    1    0    0    0  0.93768943613E-03 -0.38899542385E-02 -0.70423611074E-03  0.40628750849E-02  0.00000000000E+00 0.  1.
     999901    1    1    0    0    0 -0.44125909095E-02  0.39967224845E-02 -0.31784061256E-02  0.90002530354E+00  0.90000000000E+00 0. -1.
     999903    1    1    0    0    0 -0.26776863899E-02 -0.69371764186E-02 -0.94160421940E-03  0.21358395061E-01  0.20000000000E-01 0.  0.
</event>
<event>
 7    1  0.4717691E-066  0.9118800E+02  0.7957747E-01            NaN
     999900   -1    0    0    0    0  0.00000000000E+00  0.00000000000E+00  0.99999998245E-14  0.93827000000E+00  0.93827000000E+00 0. -1.
        -11    1    1    0    0    0 -0.18867500264E-02 -0.27563887231E-02  0.13755497738E-02  0.36483917875E-02  0.51100000000E-03 0. -1.
        -14    1    1    0    0    0  0.12524936126E-02  0.33206507691E-03 -0.12260607892E-02  0.17838813087E-02  0.00000000000E+00 0. -1.
         12    1    1    0    0    0 -0.30834586972E-02 -0.25472462044E-02 -0.31862525448E-02  0.51135492608E-02  0.00000000000E+00 0.  1.
         14    1    1    0    0    0 -0.41325072963E-03 -0.44122205945E-02  0.14305531893E-02  0.46567101228E-02  0.00000000000E+00 0.  1.
     999901    1    1    0    0    0  0.14011639664E-01  0.94153778503E-02 -0.35779223184E-02  0.90016541642E+00  0.90000000000E+00 0.  1.
     999903    1    1    0    0    0 -0.98806738233E-02 -0.31587405258E-04  0.51841326893E-02  0.22902051103E-01  0.20000000000E-01 0.  0.
</event>
<event>
 7    1  0.4717691E-066  0.9118800E+02  0.7957747E-01            NaN
     999900   -1    0    0    0    0  0.00000000000E+00  0.00000000000E+00  0.99999998245E-14  0.93827000000E+00  0.93827000000E+00 0. -1.
        -11    1    1    0    0    0 -0.32981887880E-02 -0.96174517475E-03 -0.14184381582E-03  0.34762398840E-02  0.51100000000E-03 0. -1.
        -14    1    1    0    0    0 -0.21091101651E-02  0.13181625095E-02  0.27349530966E-02  0.36967372818E-02  0.00000000000E+00 0. -1.
         12    1    1    0    0    0  0.31870676592E-03  0.35562165031E-03 -0.45039847360E-03  0.65642939135E-03  0.00000000000E+00 0.  1.
         14    1    1    0    0    0 -0.23507057056E-02 -0.50744746002E-02  0.36116679026E-02  0.66573459292E-02  0.00000000000E+00 0.  1.
     999901    1    1    0    0    0  0.13589156167E-01 -0.65653128094E-02 -0.43756858702E-02  0.90013716462E+00  0.90000000000E+00 0. -1.
     999903    1    1    0    0    0 -0.61498582740E-02  0.10927748424E-01 -0.13786928396E-02  0.23646082897E-01  0.20000000000E-01 0.  0.
</event>
<event>
 7    1  0.4717691E-066  0.9118800E+02  0.7957747E-01            NaN
     999900   -1    0    0    0    0  0.00000000000E+00  0.00000000000E+00  0.99999998245E-14  0.93827000000E+00  0.93827000000E+00 0.  1.
        -11    1    1    0    0    0  0.39704088079E-02 -0.80953141576E-03 -0.57647150631E-03  0.41246730310E-02  0.51100000000E-03 0. -1.
        -14    1    1    0    0    0  0.21782455632E-02  0.33244597889E-02 -0.30399382202E-02  0.50037996567E-02  0.00000000000E+00 0. -1.
         12    1    1    0    0    0  0.26791992433E-03 -0.74992464235E-03  0.23192416794E-02  0.24521521206E-02  0.00000000000E+00 0.  1.
         14    1    1    0    0    0  0.23179408604E-02  0.32764407296E-03 -0.30050012055E-02  0.38092299374E-02  0.00000000000E+00 0.  1.
     999901    1    1    0    0    0  0.59892133775E-03 -0.58759382223E-02  0.86920452702E-02  0.90006135180E+00  0.90000000000E+00 0. -1.
     999903    1    1    0    0    0 -0.93334364936E-02  0.37832904185E-02 -0.43898760176E-02  0.22818793452E-01  0.20000000000E-01 0.  0.
</event>
<event>
 7    1  0.4717691E-066  0.9118800E+02  0.7957747E-01            NaN
     999900   -1    0    0    0    0  0.00000000000E+00  0.00000000000E+00  0.99999998245E-14  0.93827000000E+00  0.93827000000E+00 0.  1.
        -11    1    1    0    0    0  0.21650143148E-02 -0.94572545567E-03  0.41088887570E-02  0.47671554871E-02  0.51100000000E-03 0. -1.
        -14    1    1    0    0    0 -0.12681412930E-02  0.13168113887E-02 -0.60834615540E-03  0.19267225065E-02  0.00000000000E+00 0. -1.
         12    1    1    0    0    0 -0.55834732267E-02 -0.19797271793E-02 -0.30020990272E-03  0.59316624115E-02  0.00000000000E+00 0.  1.
         14    1    1    0    0    0  0.19746171656E-02  0.43015067721E-03  0.67451549133E-03  0.21305195854E-02  0.00000000000E+00 0.  1.
     999901    1    1    0    0    0  0.55229003066E-03  0.12602023251E-01 -0.18785203910E-03  0.90008841305E+00  0.90000000000E+00 0. -1.
     999903    1    1    0    0    0  0.21596930087E-02 -0.11423532682E-01 -0.36869961511E-02  0.23425526962E-01  0.20000000000E-01 0.  0.
</event>
<event>
 7    1  0.4717691E-066  0.9118800E+02  0.7957747E-01            NaN
     999900   -1    0    0    0    0  0.00000000000E+00  0.00000000000E+00  0.99999998245E-14  0.93827000000E+00  0.93827000000E+00 0.  1.
        -11    1    1    0    0    0 -0.14148762575E-02 -0.14900592693E-02 -0.28592594603E-02  0.35578978501E-02  0.51100000000E-03 0. -1.
        -14    1    1    0    0    0  0.25574650342E-03 -0.42100625173E-02  0.31214452274E-02  0.52472328880E-02  0.00000000000E+00 0. -1.
         12    1    1    0    0    0 -0.27463644527E-02  0.16703751496E-02  0.23221060877E-02  0.39654567871E-02  0.00000000000E+00 0.  1.
         14    1    1    0    0    0  0.23480632079E-02  0.78635642178E-03 -0.23829259783E-02  0.34365816545E-02  0.00000000000E+00 0.  1.
     999901    1    1    0    0    0 -0.68312216100E-03  0.75112376146E-02 -0.79847499229E-02  0.90006702060E+00  0.90000000000E+00 0. -1.
     999903    1    1    0    0    0  0.22405531600E-02 -0.42678473994E-02  0.77833840465E-02  0.21995810217E-01  0.20000000000E-01 0.  0.
</event>
<event>
 7    1  0.4717691E-066  0.9118800E+02  0.7957747E-01            NaN
     999900   -1    0    0    0    0  0.00000000000E+00  0.00000000000E+00  0.99999998245E-14  0.93827000000E+00  0.93827000000E+00 0.  1.
        -11    1    1    0    0    0 -0.21937457913E-02 -0.88321370736E-03 -0.16013383952E-02  0.29013777255E-02  0.51100000000E-03 0. -1.
        -14    1    1    0    0    0 -0.19963700228E-02 -0.31243284046E-02 -0.36493662310E-03  0.37256006209E-02  0.00000000000E+00 0. -1.
         12    1    1    0    0    0  0.52640055864E-02  0.17759078973E-02 -0.15419558553E-02  0.57655209247E-02  0.00000000000E+00 0.  1.
         14    1    1    0    0    0 -0.32820689917E-02  0.24984153387E-02  0.23623685904E-02  0.47534031417E-02  0.00000000000E+00 0.  1.
     999901    1    1    0    0    0  0.10675519405E-02 -0.55255796959E-02  0.51346450037E-02  0.90003224180E+00  0.90000000000E+00 0.  1.
     999903    1    1    0    0    0  0.11406272789E-02  0.52587985718E-02 -0.39887827205E-02  0.21091855788E-01  0.20000000000E-01 0.  0.
</event>
<event>
 7    1  0.4717691E-066  0.9118800E+02  0.7957747E-01            NaN
     999900   -1    0    0    0    0  0.00000000000E+00  0.00000000000E+00  0.99999998245E-14  0.93827000000E+00  0.93827000000E+00 0. -1.
        -11    1    1    0    0    0 -0.20486435760E-02 -0.36498599571E-02  0.41881889848E-02  0.59431024037E-02  0.51100000000E-03 0.  1.
        -14    1    1    0    0    0  0.30145250536E-03 -0.20679775904E-02  0.34765327286E-03  0.21185532152E-02  0.00000000000E+00 0. -1.
         12    1    1    0    0    0  0.99227237420E-03 -0.22106441380E-03  0.13065604635E-02  0.16554679654E-02  0.00000000000E+00 0.  1.
         14    1    1    0    0    0  0.67152686695E-02  0.25730707427E-02  0.17576698141E-02  0.74030351563E-02  0.00000000000E+00 0.  1.
     999901    1    1    0    0    0  0.60388820889E-03  0.17641967212E-02 -0.69271676203E-02  0.90002858995E+00  0.90000000000E+00 0.  1.
     999903    1    1    0    0    0 -0.65642381819E-02  0.16016344974E-02 -0.67290491498E-03  0.21121251312E-01  0.20000000000E-01 0.  0.
</event>
<event>
 7    1  0.4717691E-066  0.9118800E+02  0.7957747E-01            NaN
     999900   -1    0    0    0    0  0.00000000000E+00  0.00000000000E+00  0.99999998245E-14  0.93827000000E+00  0.93827000000E+00 0.  1.
        -11    1    1    0    0    0  0.76114828112E-03 -0.20429918436E-02 -0.77028286185E-03  0.23680411876E-02  0.51100000000E-03 0. -1.
        -14    1    1    0    0    0  0.20011112420E-02  0.13620836250E-02  0.33681073893E-02  0.41477542587E-02  0.00000000000E+00 0. -1.
         12    1    1    0    0    0  0.19928532913E-02 -0.14186333059E-02  0.41485892696E-03  0.24811474415E-02  0.00000000000E+00 0.  1.
         14    1    1    0    0    0 -0.30662356699E-02  0.56684458543E-02 -0.56791025376E-03  0.64695905313E-02  0.00000000000E+00 0.  1.
     999901    1    1    0    0    0 -0.34585083506E-02 -0.13266487510E-01  0.17967760179E-02  0.90010621005E+00  0.90000000000E+00 0.  1.
     999903    1    1    0    0    0  0.17696312060E-02  0.96975831806E-02 -0.42415492186E-02  0.22697256529E-01  0.20000000000E-01 0.  0.
</event>
<event>
 7    1  0.4717691E-066  0.9118800E+02  0.7957747E-01            NaN
     999900   -1    0    0    0    0  0.00000000000E+00  0.00000000000E+00  0.99999998245E-14  0.93827000000E+00  0.93827000000E+00 0. -1.
        -11    1    1    0    0    0  0.22035360670E-02 -0.26361981930E-02 -0.38134104582E-02  0.51583265148E-02  0.51100000000E-03 0. -1.
        -14    1    1    0    0    0 -0.20810395723E-02  0.31973294818E-02  0.26295033685E-02  0.46333497042E-02  0.00000000000E+00 0. -1.
         12    1    1    0    0    0 -0.33158232679E-02 -0.17660214187E-02  0.15790639148E-02  0.40751636092E-02  0.00000000000E+00 0.  1.
         14    1    1    0    0    0 -0.10561438399E-02  0.24127777690E-02  0.50180259625E-03  0.26811829887E-02  0.00000000000E+00 0.  1.
     999901    1    1    0    0    0  0.84302690374E-02  0.46230780891E-02  0.33302876285E-02  0.90005751655E+00  0.90000000000E+00 0. -1.
     999903    1    1    0    0    0 -0.41807984243E-02 -0.58309657283E-02 -0.42272470498E-02  0.21664460630E-01  0.20000000000E-01 0.  0.
</event>
<event>
 7    1  0.4717691E-066  0.9118800E+02  0.7957747E-01            NaN
     999900   -1    0    0    0    0  0.00000000000E+00  0.00000000000E+00  0.99999998245E-14  0.93827000000E+00  0.93827000000E+00 0. -1.
        -11    1    1    0    0    0  0.18034876332E-04 -0.45961679365E-02 -0.35309511741E-02  0.58184037459E-02  0.51100000000E-03 0. -1.
        -14    1    1    0    0    0 -0.12547997373E-02  0.36076414040E-02  0.36606066073E-02  0.52905235671E-02  0.00000000000E+00 0. -1.
         12    1    1    0    0    0  0.86435378500E-03  0.37887268941E-03 -0.33649144856E-03  0.10019373610E-02  0.00000000000E+00 0.  1.
         14    1    1    0    0    0 -0.16482476282E-02 -0.42760268340E-03  0.19493622002E-02  0.25883541655E-02  0.00000000000E+00 0.  1.
     999901    1    1    0    0    0 -0.80795232672E-02 -0.59467757331E-02 -0.31224015097E-02  0.90006132693E+00  0.90000000000E+00 0.  1.
     999903    1    1    0    0    0  0.10100181971E-01  0.69840322595E-02  0.13798753248E-02  0.23509454234E-01  0.20000000000E-01 0.  0.
</event>
<event>
 7    1  0.4717691E-066  0.9118800E+02  0.7957747E-01            NaN
     999900   -1    0    0    0    0  0.00000000000E+00  0.00000000000E+00  0.99999998245E-14  0.93827000000E+00  0.93827000000E+00 0.  1.
        -11    1    1    0    0    0  0.21283245327E-03 -0.43974003097E-02  0.29814884559E-02  0.53416122613E-02  0.51100000000E-03 0. -1.
        -14    1    1    0    0    0 -0.44775046861E-03  0.12777453736E-02  0.14603608922E-02  0.19914235254E-02  0.00000000000E+00 0. -1.
         12    1    1    0    0    0 -0.18811598669E-02 -0.17446959857E-02 -0.98895785991E-03  0.27496843776E-02  0.00000000000E+00 0.  1.
         14    1    1    0    0    0  0.41174164283E-02  0.40357542707E-02  0.31789155283E-02  0.65837629448E-02  0.00000000000E+00 0.  1.
     999901    1    1    0    0    0  0.30465923250E-02 -0.53443772122E-02 -0.53998004784E-02  0.90003722253E+00  0.90000000000E+00 0. -1.
     999903    1    1    0    0    0 -0.50479308710E-02  0.61729738634E-02 -0.12320065381E-02  0.21566294362E-01  0.20000000000E-01 0.  0.
</event>
<event>
 7    1  0.4717691E-066  0.9118800E+02  0.7957747E-01            NaN
     999900   -1    0    0    0    0  0.00000000000E+00  0.00000000000E+00  0.99999998245E-14  0.93827000000E+00  0.93827000000E+00 0. -1.
        -11    1    1    0    0    0  0.80157564990E-03  0.92534678413E-02 -0.13172342752E-02  0.93949676822E-02  0.51100000000E-03 0. -1.
        -14    1    1    0    0    0 -0.16409899539E-02 -0.96983559742E-03 -0.16453993720E-02  0.25180882050E-02  0.00000000000E+00 0. -1.
         12    1    1    0    0    0  0.97123358005E-03  0.20739704384E-03 -0.91049798863E-03  0.13473361823E-02  0.00000000000E+00 0.  1.
         14    1    1    0    0    0 -0.16044972046E-02  0.35210978635E-02 -0.45059303522E-03  0.38955841061E-02  0.00000000000E+00 0.  1.
     999901    1    1    0    0    0 -0.15031936699E-02 -0.15641134914E-01  0.80706356474E-04  0.90013716244E+00  0.90000000000E+00 0. -1.
     999903    1    1    0    0    0  0.29758715984E-02  0.36290077626E-02  0.42430183146E-02  0.20976861384E-01  0.20000000000E-01 0.  0.
</event>
<event>
 7    1  0.4717691E-066  0.9118800E+02  0.7957747E-01            NaN
     999900   -1    0    0    0    0  0.00000000000E+00  0.00000000000E+00  0.99999998245E-14  0.93827000000E+00  0.93827000000E+00 0. -1.
        -11    1    1    0    0    0  0.89549260509E-03 -0.23709956375E-02 -0.17378422586E-02  0.31152438163E-02  0.51100000000E-03 0. -1.
        -14    1    1    0    0    0  0.24735055727E-02  0.16776342827E-02  0.14711818033E-02  0.33312253756E-02  0.00000000000E+00 0. -1.
         12    1    1    0    0    0 -0.61473057142E-03  0.20158084599E-02 -0.67223158898E-03  0.22120743052E-02  0.00000000000E+00 0.  1.
         14    1    1    0    0    0 -0.50229052154E-02 -0.42049856643E-02 -0.35530296774E-02  0.74522145117E-02  0.00000000000E+00 0.  1.
     999901    1    1    0    0    0  0.98712971548E-02  0.10161520838E-02 -0.73430131003E-03  0.90005500625E+00  0.90000000000E+00 0.  1.
     999903    1    1    0    0    0 -0.76026595457E-02  0.18663864755E-02  0.52262230317E-02  0.22104235744E-01  0.20000000000E-01 0.  0.
</event>
<event>
 7    1  0.4717691E-066  0.9118800E+02  0.7957747E-01            NaN
     999900   -1    0    0    0    0  0.00000000000E+00  0.00000000000E+00  0.99999998245E-14  0.93827000000E+00  0.93827000000E+00 0. -1.
        -11    1    1    0    0    0 -0.22708880563E-02  0.17811267162E-02  0.20670781581E-02  0.35865412385E-02  0.51100000000E-03 0. -1.
        -14    1    1    0    0    0 -0.32072087389E-03 -0.11387654769E-02 -0.68489827155E-03  0.13670165810E-02  0.00000000000E+00 0. -1.
         12    1    1    0    0    0  0.45164107521E-03  0.87866054664E-03  0.24252522706E-02  0.26187540154E-02  0.00000000000E+00 0.  1.
         14    1    1    0    0    0 -0.24495842031E-02 -0.25565690910E-02 -0.73789516859E-03  0.36167661751E-02  0.00000000000E+00 0.  1.
     999901    1    1    0    0    0 -0.11162486647E-01  0.67314743417E-02  0.38056611621E-02  0.90010243690E+00  0.90000000000E+00 0. -1.
     999903    1    1    0    0    0  0.15752038706E-01 -0.56959270367E-02 -0.68751981507E-02  0.26978485091E-01  0.20000000000E-01 0.  0.
</event>
<event>
 7    1  0.4717691E-066  0.9118800E+02  0.7957747E-01            NaN
     999900   -1    0    0    0    0  0.00000000000E+00  0.00000000000E+00  0.99999998245E-14  0.93827000000E+00  0.93827000000E+00 0.  1.
        -11    1    1    0    0    0 -0.23183153964E-02 -0.25344742412E-02 -0.46365577761E-03  0.35034616648E-02  0.51100000000E-03 0. -1.
        -14    1    1    0    0    0  0.45898945463E-02 -0.60359804220E-03  0.32754803117E-02  0.56709993665E-02  0.00000000000E+00 0. -1.
         12    1    1    0    0    0  0.40968213267E-02  0.20211693986E-03 -0.17745302805E-03  0.41056407317E-02  0.00000000000E+00 0.  1.
         14    1    1    0    0    0 -0.17315619473E-03  0.92543589683E-03  0.16854940347E-02  0.19306229067E-02  0.00000000000E+00 0.  1.
     999901    1    1    0    0    0 -0.33745867238E-02  0.82267477232E-02  0.47646479769E-02  0.90005653660E+00  0.90000000000E+00 0. -1.
     999903    1    1    0    0    0 -0.28206575581E-02 -0.62162282765E-02 -0.90845135176E-02  0.23002738726E-01  0.20000000000E-01 0.  0.
</event>
<event>
 7    1  0.4717691E-066  0.9118800E+02  0.7957747E-01            NaN
     999900   -1    0    0    0    0  0.00000000000E+00  0.00000000000E+00  0.99999998245E-14  0.93827000000E+00  0.93827000000E+00 0.  1.
        -11    1    1    0    0    0  0.12561660404E-02  0.29639227238E-02  0.25299558585E-02  0.41260863636E-02  0.51100000000E-03 0. -1.
        -14    1    1    0    0    0 -0.31930879549E-02 -0.37839810295E-02  0.30650755657E-02  0.58231444549E-02  0.00000000000E+00 0. -1.
         12    1    1    0    0    0 -0.33359909257E-02 -0.90043005119E-04 -0.26343436066E-02  0.42516713698E-02  0.00000000000E+00 0.  1.
         14    1    1    0    0    0  0.25665350191E-02  0.35984995023E-03  0.60423949619E-03  0.26611462493E-02  0.00000000000E+00 0.  1.
     999901    1    1    0    0    0 -0.27269916003E-02  0.24582515816E-02  0.14120635134E-02  0.90000859630E+00  0.90000000000E+00 0. -1.
     999903    1    1    0    0    0  0.54333694214E-02 -0.19080002211E-02 -0.49769908272E-02  0.21399355266E-01  0.20000000000E-01 0.  0.
</event>
<event>
 7    1  0.4717691E-066  0.9118800E+02  0.7957747E-01            NaN
     999900   -1    0    0    0    0  0.00000000000E+00  0.00000000000E+00  0.99999998245E-14  0.93827000000E+00  0.93827000000E+00 0.  1.
        -11    1    1    0    0    0 -0.21875616266E-02  0.34288353246E-02  0.34747383164E-02  0.53737570582E-02  0.51100000000E-03 0. -1.
        -14    1    1    0    0    0 -0.13944284335E-02 -0.19022341516E-02 -0.18457364519E-02  0.29949404791E-02  0.00000000000E+00 0. -1.
         12    1    1    0    0    0  0.23055185160E-02  0.81681492803E-03  0.20573432480E-02  0.31961325840E-02  0.00000000000E+00 0.  1.
         14    1    1    0    0    0 -0.47116557029E-03 -0.56110337777E-03 -0.21081016067E-02  0.22317989111E-02  0.00000000000E+00 0.  1.
     999901    1    1    0    0    0 -0.46879044683E-02  0.93658431561E-02 -0.69593512166E-02  0.90008784462E+00  0.90000000000E+00 0. -1.
     999903    1    1    0    0    0  0.64355415827E-02 -0.11148155879E-01  0.53811077108E-02  0.24385526346E-01  0.20000000000E-01 0.  0.
</event>
<event>
 7    1  0.4717691E-066  0.9118800E+02  0.7957747E-01            NaN
     999900   -1    0    0    0    0  0.00000000000E+00  0.00000000000E+00  0.99999998245E-14  0.93827000000E+00  0.93827000000E+00 0.  1.
        -11    1    1    0    0    0 -0.10337654525E-02  0.50904651541E-03 -0.13653001314E-02  0.18582154919E-02  0.51100000000E-03 0. -1.
        -14    1    1    0    0    0  0.74630520913E-02 -0.89625656197E-02  0.13684127718E-02  0.11742967364E-01  0.00000000000E+00 0. -1.
         12    1    1    0    0    0 -0.96199774014E-04  0.23728385037E-02 -0.27607668420E-02  0.36416274545E-02  0.00000000000E+00 0.  1.
         14    1    1    0    0    0 -0.12147321616E-03 -0.13203247403E-03  0.39676279023E-03  0.43544118794E-03  0.00000000000E+00 0.  1.
     999901    1    1    0    0    0 -0.42681975472E-02  0.37694318443E-02 -0.13123469079E-02  0.90001897112E+00  0.90000000000E+00 0. -1.
     999903    1    1    0    0    0 -0.19434161015E-02  0.24432812304E-02  0.36732383194E-02  0.20572777378E-01  0.20000000000E-01 0.  0.
</event>
<event>
 7    1  0.4717691E-066  0.9118800E+02  0.7957747E-01            NaN
     999900   -1    0    0    0    0  0.00000000000E+00  0.00000000000E+00  0.99999998245E-14  0.93827000000E+00  0.93827000000E+00 0. -1.
        -11    1    1    0    0    0 -0.14227719944E-02  0.17092963144E-02 -0.13887987110E-02  0.26713024723E-02  0.51100000000E-03 0. -1.
        -14    1    1    0    0    0  0.34677133741E-02  0.26645619637E-03 -0.61275169059E-03  0.35315010383E-02  0.00000000000E+00 0. -1.
         12    1    1    0    0    0  0.17455663577E-03 -0.46825827230E-03 -0.13552123670E-02  0.14444155871E-02  0.00000000000E+00 0.  1.
         14    1    1    0    0    0 -0.38735626968E-02  0.55580545089E-02 -0.40135556956E-02  0.78743309057E-02  0.00000000000E+00 0.  1.
     999901    1    1    0    0    0 -0.14332065921E-02  0.32294706951E-02  0.77475058154E-02  0.90004028099E+00  0.90000000000E+00 0. -1.
     999903    1    1    0    0    0  0.30872712735E-02 -0.10295019443E-01 -0.37718735125E-03  0.22708169004E-01  0.20000000000E-01 0.  0.
</event>
<event>
 7    1  0.4717691E-066  0.9118800E+02  0.7957747E-01            NaN
     999900   -1    0    0    0    0  0.00000000000E+00  0.00000000000E+00  0.99999998245E-14  0.93827000000E+00  0.93827000000E+00 0. -1.
        -11    1    1    0    0    0 -0.79774040760E-03 -0.31238968081E-02  0.30933958938E-02  0.44972591855E-02  0.51100000000E-03 0. -1.
        -14    1    1    0    0    0  0.13723766309E-02 -0.15975620523E-02 -0.81350961428E-03  0.22577466689E-02  0.00000000000E+00 0. -1.
         12    1    1    0    0    0 -0.41264952369E-02  0.38418285160E-02 -0.10569979610E-03  0.56390408522E-02  0.00000000000E+00 0.  1.
         14    1    1    0    0    0  0.58216729642E-03 -0.10727541403E-02  0.18969639388E-02  0.22557021948E-02  0.00000000000E+00 0.  1.
     999901    1    1    0    0    0  0.16670457785E-02 -0.10032101916E-01 -0.70032733003E-02  0.90008470043E+00  0.90000000000E+00 0.  1.
     999903    1    1    0    0    0  0.13026459386E-02  0.11984486400E-01  0.29321228781E-02  0.23535550669E-01  0.20000000000E-01 0.  0.
</event>
<event>
 7    1  0.4717691E-066  0.9118800E+02  0.7957747E-01            NaN
     999900   -1    0    0    0    0  0.00000000000E+00  0.00000000000E+00  0.99999998245E-14  0.93827000000E+00  0.93827000000E+00 0. -1.
        -11    1    1    0    0    0  0.10182591999E-02 -0.36048352634E-02 -0.34684279629E-02  0.51305752707E-02  0.51100000000E-03 0. -1.
        -14    1    1    0    0    0 -0.21046032090E-02 -0.10442889328E-02  0.86771484762E-04  0.23510472843E-02  0.00000000000E+00 0. -1.
         12    1    1    0    0    0 -0.23210960929E-04  0.24447489652E-02  0.15983143761E-02  0.29209493485E-02  0.00000000000E+00 0.  1.
         14    1    1    0    0    0 -0.22528270922E-03 -0.26095203690E-02  0.32599356736E-02  0.41818093514E-02  0.00000000000E+00 0.  1.
     999901    1    1    0    0    0 -0.10034259443E-01  0.97466897120E-02  0.34006472327E-04  0.90010870759E+00  0.90000000000E+00 0.  1.
     999903    1    1    0    0    0  0.11369097122E-01 -0.49327941120E-02 -0.15106000439E-02  0.23576911155E-01  0.20000000000E-01 0.  0.
</event>
<event>
 7    1  0.4717691E-066  0.9118800E+02  0.7957747E-01            NaN
     999900   -1    0    0    0    0  0.00000000000E+00  0.00000000000E+00  0.99999998245E-14  0.93827000000E+00  0.93827000000E+00 0. -1.
        -11    1    1    0    0    0 -0.32857013046E-02  0.63415710617E-03 -0.32239542070E-03  0.34004482213E-02  0.51100000000E-03 0. -1.
        -14    1    1    0    0    0  0.13214690170E-02 -0.28999999683E-02  0.20527383534E-03  0.31934961291E-02  0.00000000000E+00 0. -1.
         12    1    1    0    0    0 -0.21935937254E-02 -0.14212597796E-02  0.48311799217E-03  0.26580511258E-02  0.00000000000E+00 0.  1.
         14    1    1    0    0    0  0.20764327720E-02  0.31728086175E-02  0.28514031185E-02  0.47443426651E-02  0.00000000000E+00 0.  1.
     999901    1    1    0    0    0  0.21687905329E-02  0.12279474447E-01  0.35835215195E-02  0.90009351224E+00  0.90000000000E+00 0. -1.
     999903    1    1    0    0    0 -0.87397291896E-04 -0.11765180422E-01 -0.68009210448E-02  0.24180149621E-01  0.20000000000E-01 0.  0.
</event>
<event>
 7    1  0.4717691E-066  0.9118800E+02  0.7957747E-01            NaN
     999900   -1    0    0    0    0  0.00000000000E+00  0.00000000000E+00  0.99999998245E-14  0.93827000000E+00  0.93827000000E+00 0. -1.
        -11    1    1    0    0    0 -0.22279130952E-02 -0.38064674641E-02 -0.23029579949E-02  0.50017524770E-02  0.51100000000E-03 0. -1.
        -14    1    1    0    0    0  0.11815709149E-02 -0.40982343727E-02  0.21592758295E-02  0.47805969197E-02  0.00000000000E+00 0. -1.
         12    1    1    0    0    0 -0.32657416608E-02  0.77368796720E-03 -0.23243116708E-03  0.33641768552E-02  0.00000000000E+00 0.  1.
         14    1    1    0    0    0 -0.14719832314E-03 -0.10299470060E-02 -0.16189707373E-02  0.19244543200E-02  0.00000000000E+00 0.  1.
     999901    1    1    0    0    0  0.14550520156E-01  0.60687629064E-02 -0.30407960257E-02  0.90014320747E+00  0.90000000000E+00 0. -1.
     999903    1    1    0    0    0 -0.10091237992E-01  0.20921979692E-02  0.50358800955E-02  0.23055811955E-01  0.20000000000E-01 0.  0.
</event>
<event>
 7    1  0.4717691E-066  0.9118800E+02  0.7957747E-01            NaN
     999900   -1    0    0    0    0  0.00000000000E+00  0.00000000000E+00  0.99999998245E-14  0.93827000000E+00  0.93827000000E+00 0. -1.
        -11    1    1    0    0    0 -0.54817998975E-02  0.31481058230E-03  0.15212414413E-03  0.55166564670E-02  0.51100000000E-03 0. -1.
        -14    1    1    0    0    0  0.68238134799E-03  0.51256879783E-02  0.88594839000E-03  0.52462582957E-02  0.00000000000E+00 0. -1.
         12    1    1    0    0    0 -0.20355598945E-02 -0.17864220699E-02 -0.20180894006E-02  0.33774979977E-02  0.00000000000E+00 0.  1.
         14    1    1    0    0    0  0.29429342991E-02 -0.25830820473E-03 -0.65062488462E-03  0.30250451498E-02  0.00000000000E+00 0.  1.
     999901    1    1    0    0    0  0.19292973989E-02  0.30136100086E-02  0.19182867771E-02  0.90000915765E+00  0.90000000000E+00 0. -1.
     999903    1    1    0    0    0  0.19627467459E-02 -0.64093782946E-02 -0.28764502602E-03  0.21095384438E-01  0.20000000000E-01 0.  0.
</event>
<event>
 7    1  0.4717691E-066  0.9118800E+02  0.7957747E-01            NaN
     999900   -1    0    0    0    0  0.00000000000E+00  0.00000000000E+00  0.99999998245E-14  0.93827000000E+00  0.93827000000E+00 0.  1.
        -11    1    1    0    0    0  0.83741321478E-04 -0.41680117848E-02  0.14989728825E-02  0.44595263818E-02  0.51100000000E-03 0. -1.
        -14    1    1    0    0    0 -0.93591586980E-03 -0.12765228672E-03  0.80301159958E-03  0.12397827434E-02  0.00000000000E+00 0. -1.
         12    1    1    0    0    0 -0.39424843342E-02 -0.11168519157E-02 -0.10502519712E-02  0.42300792109E-02  0.00000000000E+00 0.  1.
         14    1    1    0    0    0  0.26415031375E-02 -0.10073628592E-03  0.29403038715E-02  0.39538681670E-02  0.00000000000E+00 0.  1.
     999901    1    1    0    0    0 -0.45025026737E-02 -0.66597304407E-02 -0.39374433552E-02  0.90004451445E+00  0.90000000000E+00 0. -1.
     999903    1    1    0    0    0  0.66556584188E-02  0.12172982714E-01 -0.25459302723E-03  0.24342229042E-01  0.20000000000E-01 0.  0.
</event>
<event>
 7    1  0.4717691E-066  0.9118800E+02  0.7957747E-01            NaN
     999900   -1    0    0    0    0  0.00000000000E+00  0.00000000000E+00  0.99999998245E-14  0.93827000000E+00  0.93827000000E+00 0.  1.
        -11    1    1    0    0    0 -0.50121142722E-03 -0.44528328791E-02 -0.10552144395E-02  0.46317957702E-02  0.51100000000E-03 0. -1.
        -14    1    1    0    0    0  0.26554652442E-02  0.53567299215E-02 -0.71510605285E-03  0.60214141015E-02  0.00000000000E+00 0. -1.
         12    1    1    0    0    0  0.33180472517E-02  0.11848923388E-02 -0.37878490166E-03  0.35435695874E-02  0.00000000000E+00 0.  1.
         14    1    1    0    0    0  0.30980696547E-02 -0.20483510907E-02  0.66504104317E-03  0.37730700186E-02  0.00000000000E+00 0.  1.
     999901    1    1    0    0    0 -0.68550851655E-02  0.27079457172E-02  0.88555035836E-03  0.90003061579E+00  0.90000000000E+00 0. -1.
     999903    1    1    0    0    0 -0.17152855579E-02 -0.27483840078E-02  0.59851399249E-03  0.20269534731E-01  0.20000000000E-01 0.  0.
</event>
<event>
 7    1  0.4717691E-066  0.9118800E+02  0.7957747E-01            NaN
     999900   -1    0    0    0    0  0.00000000000E+00  0.00000000000E+00  0.99999998245E-14  0.93827000000E+00  0.93827000000E+00 0. -1.
        -11    1    1    0    0    0 -0.26024334539E-02 -0.18071859263E-02 -0.14936977260E-02  0.35398919123E-02  0.51100000000E-03 0. -1.
        -14    1    1    0    0    0  0.14242567344E-02  0.34921496319E-03 -0.11202110951E-02  0.18453539589E-02  0.00000000000E+00 0. -1.
         12    1    1    0    0    0 -0.12849497145E-02  0.39172967131E-02  0.63619441767E-03  0.41714568971E-02  0.00000000000E+00 0.  1.
         14    1    1    0    0    0 -0.11239295500E-02 -0.78495364034E-02  0.48645050213E-03  0.79444995735E-02  0.00000000000E+00 0.  1.
     999901    1    1    0    0    0  0.63872539105E-02  0.64717703058E-03  0.13891951254E-02  0.90002396952E+00  0.90000000000E+00 0.  1.
     999903    1    1    0    0    0 -0.28001979264E-02  0.47430336228E-02  0.10206877590E-03  0.20744828136E-01  0.20000000000E-01 0.  0.
</event>
<event>
 7    1  0.4717691E-066  0.9118800E+02  0.7957747E-01            NaN
     999900   -1    0    0    0    0  0.00000000000E+00  0.00000000000E+00  0.99999998245E-14  0.93827000000E+00  0.93827000000E+00 0.  1.
        -11    1    1    0    0    0 -0.45533421694E-02  0.10312630778E-03  0.11132780582E-02  0.47163618375E-02  0.51100000000E-03 0. -1.
        -14    1    1    0    0    0  0.50414913311E-03 -0.19928626056E-02 -0.27288686504E-02  0.34164882298E-02  0.00000000000E+00 0. -1.
         12    1    1    0    0    0  0.10316828151E-02 -0.10268465432E-02  0.10315598742E-02  0.17840681120E-02  0.00000000000E+00 0.  1.
         14    1    1    0    0    0  0.25753511743E-02  0.34818509674E-02  0.22966234239E-02  0.49020606872E-02  0.00000000000E+00 0.  1.
     999901    1    1    0    0    0 -0.57916950490E-02 -0.77677722099E-02  0.57644663626E-02  0.90007061450E+00  0.90000000000E+00 0.  1.
     999903    1    1    0    0    0  0.62338540959E-02  0.72025040835E-02 -0.74770590685E-02  0.23380406632E-01  0.20000000000E-01 0.  0.
</event>
<event>
 7    1  0.4717691E-066  0.9118800E+02  0.7957747E-01            NaN
     999900   -1    0    0    0    0  0.00000000000E+00  0.00000000000E+00  0.99999998245E-14  0.93827000000E+00  0.93827000000E+00 0. -1.
        -11    1    1    0    0    0  0.57314817279E-03 -0.22245801195E-02 -0.23815609053E-03  0.23653952861E-02  0.51100000000E-03 0. -1.
        -14    1    1    0    0    0 -0.54070827368E-03 -0.51286769524E-03 -0.30732385180E-02  0.31623082864E-02  0.00000000000E+00 0. -1.
         12    1    1    0    0    0 -0.29994328521E-02  0.23444236443E-02 -0.98226824130E-03  0.39316371343E-02  0.00000000000E+00 0.  1.
         14    1    1    0    0    0  0.45501721494E-02  0.56359796037E-02 -0.63317562782E-03  0.72711239886E-02  0.00000000000E+00 0.  1.
     999901    1    1    0    0    0 -0.45840917049E-02  0.16403926367E-02  0.23055112561E-02  0.90001612217E+00  0.90000000000E+00 0. -1.
     999903    1    1    0    0    0  0.30009125085E-02 -0.68833480699E-02  0.26213272215E-02  0.21523413134E-01  0.20000000000E-01 0.  0.
</event>
<event>
 7    1  0.4717691E-066  0.9118800E+02  0.7957747E-01            NaN
     999900   -1    0    0    0    0  0.00000000000E+00  0.00000000000E+00  0.99999998245E-14  0.93827000000E+00  0.93827000000E+00 0. -1.
        -11    1    1    0    0    0  0.26738250498E-02  0.64042770009E-02 -0.21742410196E-03  0.69622193689E-02  0.51100000000E-03 0. -1.
        -14    1    1    0    0    0 -0.80542104512E-03  0.12324300904E-03 -0.20951031352E-03  0.84130046397E-03  0.00000000000E+00 0. -1.
         12    1    1    0    0    0  0.11112654480E-02 -0.11294093976E-03  0.30990145122E-02  0.32941702291E-02  0.00000000000E+00 0.  1.
         14    1    1    0    0    0  0.10581127877E-02 -0.21416538847E-02 -0.20636669937E-02  0.31567396938E-02  0.00000000000E+00 0.  1.
     999901    1    1    0    0    0 -0.29564986200E-02 -0.35934999744E-02  0.12445916112E-01  0.90009808074E+00  0.90000000000E+00 0. -1.
     999903    1    1    0    0    0 -0.10812836204E-02 -0.67942521107E-03 -0.13054329214E-01  0.23917489503E-01  0.20000000000E-01 0.  0.
</event>
<event>
 7    1  0.4717691E-066  0.9118800E+02  0.7957747E-01            NaN
     999900   -1    0    0    0    0  0.00000000000E+00  0.00000000000E+00  0.99999998245E-14  0.93827000000E+00  0.93827000000E+00 0.  1.
        -11    1    1    0    0    0 -0.43862005264E-02  0.79361246956E-03  0.17002478791E-02  0.47979724530E-02  0.51100000000E-03 0. -1.
        -14    1    1    0    0    0 -0.26004545088E-04 -0.12003585544E-02 -0.19926014984E-02  0.23263700538E-02  0.00000000000E+00 0. -1.
         12    1    1    0    0    0 -0.15073866488E-02  0.60107501455E-03  0.10781444646E-02  0.19483072572E-02  0.00000000000E+00 0.  1.
         14    1    1    0    0    0  0.72491397511E-03 -0.14444633055E-02 -0.61292564882E-03  0.17284826766E-02  0.00000000000E+00 0.  1.
     999901    1    1    0    0    0  0.70104120482E-02  0.10374119279E-01  0.15815517960E-01  0.90022602653E+00  0.90000000000E+00 0.  1.
     999903    1    1    0    0    0 -0.18157343030E-02 -0.91239849034E-02 -0.15988383156E-01  0.27242841033E-01  0.20000000000E-01 0.  0.
</event>
<event>
 7    1  0.4717691E-066  0.9118800E+02  0.7957747E-01            NaN
     999900   -1    0    0    0    0  0.00000000000E+00  0.00000000000E+00  0.99999998245E-14  0.93827000000E+00  0.93827000000E+00 0.  1.
        -11    1    1    0    0    0 -0.43150826543E-03  0.51803070740E-02 -0.19308900498E-02  0.55687734869E-02  0.51100000000E-03 0. -1.
        -14    1    1    0    0    0  0.20455729205E-02 -0.14085488244E-02 -0.10973641281E-02  0.27152507054E-02  0.00000000000E+00 0. -1.
         12    1    1    0    0    0  0.19305040429E-02 -0.23767934657E-02 -0.30835431638E-03  0.30775112385E-02  0.00000000000E+00 0.  1.
         14    1    1    0    0    0 -0.28306019912E-02  0.86657390154E-03 -0.37812555213E-03  0.29843319006E-02  0.00000000000E+00 0.  1.
     999901    1    1    0    0    0  0.10344164566E-01 -0.16736425209E-02 -0.31091194030E-02  0.90006636947E+00  0.90000000000E+00 0. -1.
     999903    1    1    0    0    0 -0.11058131273E-01 -0.58789616445E-03  0.68238534494E-02  0.23857763203E-01  0.20000000000E-01 0.  0.
</event>
<event>
 7    1  0.4717691E-066  0.9118800E+02  0.7957747E-01            NaN
     999900   -1    0    0    0    0  0.00000000000E+00  0.00000000000E+00  0.99999998245E-14  0.93827000000E+00  0.93827000000E+00 0. -1.
        -11    1    1    0    0    0 -0.12687535779E-02  0.11173141157E-02 -0.25208511917E-02  0.30779763166E-02  0.51100000000E-03 0. -1.
        -14    1    1    0    0    0  0.10285552290E-02 -0.51936102414E-03  0.12175363217E-02  0.16763222922E-02  0.00000000000E+00 0. -1.
         12    1    1    0    0    0 -0.25855190374E-03  0.79487282150E-03  0.26665026727E-02  0.27944424118E-02  0.00000000000E+00 0.  1.
         14    1    1    0    0    0 -0.16536190699E-02  0.45144458378E-02  0.12184761462E-02  0.49597743265E-02  0.00000000000E+00 0.  1.
     999901    1    1    0    0    0  0.40552477874E-02  0.98379769083E-02 -0.54180987992E-02  0.90007921130E+00  0.90000000000E+00 0.  1.
     999903    1    1    0    0    0 -0.19028784648E-02 -0.15745248659E-01  0.28364348501E-02  0.25682273350E-01  0.20000000000E-01 0.  0.
</event>
<event>
 7    1  0.4717691E-066  0.9118800E+02  0.7957747E-01            NaN
     999900   -1    0    0    0    0  0.00000000000E+00  0.00000000000E+00  0.99999998245E-14  0.93827000000E+00  0.93827000000E+00 0.  1.
        -11    1    1    0    0    0 -0.22711219666E-02  0.59729065833E-04 -0.44122273152E-02  0.49890313117E-02  0.51100000000E-03 0. -1.
        -14    1    1    0    0    0  0.24246794614E-04 -0.52872453640E-02  0.11226097794E-02  0.54051645824E-02  0.00000000000E+00 0. -1.
         12    1    1    0    0    0  0.26657091314E-03 -0.56109714095E-03 -0.13280752211E-02  0.14661766082E-02  0.00000000000E+00 0.  1.
         14    1    1    0    0    0 -0.26386918536E-02 -0.18364827432E-02 -0.10394007517E-02  0.33787153604E-02  0.00000000000E+00 0.  1.
     999901    1    1    0    0    0  0.64820893941E-02  0.39265231831E-02 -0.48877322289E-02  0.90004517942E+00  0.90000000000E+00 0. -1.
     999903    1    1    0    0    0 -0.18630932817E-02  0.36985729993E-02  0.10544825738E-01  0.22985732719E-01  0.20000000000E-01 0.  0.
</event>
<event>
 7    1  0.4717691E-066  0.9118800E+02  0.7957747E-01            NaN
     999900   -1    0    0    0    0  0.00000000000E+00  0.00000000000E+00  0.99999998245E-14  0.93827000000E+00  0.93827000000E+00 0.  1.
        -11    1    1    0    0    0  0.17423315122E-03  0.22755325069E-02  0.78270094311E-03  0.24662009544E-02  0.51100000000E-03 0. -1.
        -14    1    1    0    0    0 -0.12054631078E-02  0.15063293253E-02  0.30137943330E-02  0.35784250197E-02  0.00000000000E+00 0. -1.
         12    1    1    0    0    0  0.19768345283E-02 -0.22919206203E-02 -0.23106357554E-02  0.38078619297E-02  0.00000000000E+00 0.  1.
         14    1    1    0    0    0 -0.35365181669E-02 -0.89457154204E-03 -0.31268767750E-04  0.36480401210E-02  0.00000000000E+00 0.  1.
     999901    1    1    0    0    0 -0.30997654139E-02  0.10735300842E-01  0.55092379563E-02  0.90008622194E+00  0.90000000000E+00 0.  1.
     999903    1    1    0    0    0  0.56906790090E-02 -0.11330670512E-01 -0.69638287092E-02  0.24683250032E-01  0.20000000000E-01 0.  0.
</event>
<event>
 7    1  0.4717691E-066  0.9118800E+02  0.7957747E-01            NaN
     999900   -1    0    0    0    0  0.00000000000E+00  0.00000000000E+00  0.99999998245E-14  0.93827000000E+00  0.93827000000E+00 0. -1.
        -11    1    1    0    0    0  0.23046415329E-02 -0.11142541181E-02 -0.10738823649E-02  0.28226369176E-02  0.51100000000E-03 0. -1.
        -14    1    1    0    0    0 -0.25132605805E-03 -0.59117975033E-02  0.42697298440E-02  0.72967874745E-02  0.00000000000E+00 0. -1.
         12    1    1    0    0    0  0.18617696837E-02 -0.45133304058E-03 -0.18201218873E-02  0.26424858662E-02  0.00000000000E+00 0.  1.
         14    1    1    0    0    0  0.13628558590E-02  0.26584683766E-02 -0.97597628516E-03  0.31428267389E-02  0.00000000000E+00 0.  1.
     999901    1    1    0    0    0  0.94793857228E-03  0.11194954674E-01 -0.45406752107E-02  0.90008157593E+00  0.90000000000E+00 0.  1.
     999903    1    1    0    0    0 -0.62258795898E-02 -0.63760383889E-02  0.41409259041E-02  0.22283687073E-01  0.20000000000E-01 0.  0.
</event>
<event>
 7    1  0.4717691E-066  0.9118800E+02  0.7957747E-01            NaN
     999900   -1    0    0    0    0  0.00000000000E+00  0.00000000000E+00  0.99999998245E-14  0.93827000000E+00  0.93827000000E+00 0.  1.
        -11    1    1    0    0    0  0.11483286297E-02 -0.28409108628E-02 -0.16550708832E-02  0.35199167320E-02  0.51100000000E-03 0. -1.
        -14    1    1    0    0    0 -0.38796099657E-02  0.45512539333E-02 -0.69181476610E-03  0.60202901527E-02  0.00000000000E+00 0. -1.
         12    1    1    0    0    0 -0.16933211382E-02 -0.17117492508E-02 -0.15248230172E-02  0.28500012646E-02  0.00000000000E+00 0.  1.
         14    1    1    0    0    0  0.57947908219E-03 -0.20233252311E-03 -0.29046316225E-03  0.67904587859E-03  0.00000000000E+00 0.  1.
     999901    1    1    0    0    0  0.12186239729E-01 -0.17282452277E-02 -0.83121907261E-02  0.90012253821E+00  0.90000000000E+00 0. -1.
     999903    1    1    0    0    0 -0.83411163368E-02  0.19319839311E-02  0.12474362555E-01  0.25078207767E-01  0.20000000000E-01 0.  0.
</event>
<event>
 7    1  0.4717691E-066  0.9118800E+02  0.7957747E-01            NaN
     999900   -1    0    0    0    0  0.00000000000E+00  0.00000000000E+00  0.99999998245E-14  0.93827000000E+00  0.93827000000E+00 0.  1.
        -11    1    1    0    0    0 -0.16164465798E-02  0.11302824533E-03  0.25359237089E-02  0.30524916031E-02  0.51100000000E-03 0. -1.
        -14    1    1    0    0    0 -0.50150579836E-03  0.19150296555E-03 -0.18720071418E-02  0.19474578791E-02  0.00000000000E+00 0. -1.
         12    1    1    0    0    0 -0.36202237047E-02  0.42176611478E-02  0.17847611491E-02  0.58378127401E-02  0.00000000000E+00 0.  1.
         14    1    1    0    0    0 -0.37730295356E-03 -0.28517220016E-02 -0.17305271275E-02  0.33569927066E-02  0.00000000000E+00 0.  1.
     999901    1    1    0    0    0  0.18140780870E-01  0.77981932337E-03 -0.51363631199E-02  0.90019779953E+00  0.90000000000E+00 0.  1.
     999903    1    1    0    0    0 -0.12025301833E-01 -0.24502896805E-02  0.44182125313E-02  0.23877445543E-01  0.20000000000E-01 0.  0.
</event>
<event>
 7    1  0.4717691E-066  0.9118800E+02  0.7957747E-01            NaN
     999900   -1    0    0    0    0  0.00000000000E+00  0.00000000000E+00  0.99999998245E-14  0.93827000000E+00  0.93827000000E+00 0. -1.
        -11    1    1    0    0    0 -0.13627500491E-02  0.11098000854E-02  0.35043417399E-02  0.39535143804E-02  0.51100000000E-03 0. -1.
        -14    1    1    0    0    0 -0.84768522115E-03 -0.13913960666E-02  0.49993107054E-03  0.17042547707E-02  0.00000000000E+00 0. -1.
         12    1    1    0    0    0  0.49507911837E-03 -0.22821731858E-02 -0.30214912961E-02  0.38187468410E-02  0.00000000000E+00 0.  1.
         14    1    1    0    0    0 -0.40465659215E-02  0.55322243875E-02  0.20397377542E-02  0.71512748890E-02  0.00000000000E+00 0.  1.
     999901    1    1    0    0    0  0.10350242649E-01  0.16463432528E-02  0.18066069665E-02  0.90006283214E+00  0.90000000000E+00 0. -1.
     999903    1    1    0    0    0 -0.45883205756E-02 -0.46147984734E-02 -0.48291262350E-02  0.21579376980E-01  0.20000000000E-01 0.  0.
</event>
<event>
 7    1  0.4717691E-066  0.9118800E+02  0.7957747E-01            NaN
     999900   -1    0    0    0    0  0.00000000000E+00  0.00000000000E+00  0.99999998245E-14  0.93827000000E+00  0.93827000000E+00 0. -1.
        -11    1    1    0    0    0  0.83762356225E-03 -0.96508176379E-03 -0.14014882922E-02  0.19642521417E-02  0.51100000000E-03 0. -1.
        -14    1    1    0    0    0 -0.47204723962E-02 -0.96667723874E-03  0.20103891861E-02  0.52210141933E-02  0.00000000000E+00 0. -1.
         12    1    1    0    0    0 -0.37828566547E-02  0.31414660113E-02  0.14890205724E-03  0.49194496636E-02  0.00000000000E+00 0.  1.
         14    1    1    0    0    0  0.19338153868E-02 -0.23551641310E-02 -0.92929159544E-03  0.31859100589E-02  0.00000000000E+00 0.  1.
     999901    1    1    0    0    0  0.34746682440E-02 -0.66070739085E-02 -0.75726614312E-02  0.90006281556E+00  0.90000000000E+00 0. -1.
     999903    1    1    0    0    0  0.22572218578E-02  0.77525310308E-02  0.77441500756E-02  0.22916558387E-01  0.20000000000E-01 0.  0.
</event>
<event>
 7    1  0.4717691E-066  0.9118800E+02  0.7957747E-01            NaN
     999900   -1    0    0    0    0  0.00000000000E+00  0.00000000000E+00  0.99999998245E-14  0.93827000000E+00  0.93827000000E+00 0.  1.
        -11    1    1    0    0    0 -0.31782018587E-03 -0.23610331313E-03 -0.23756656693E-02  0.24620444385E-02  0.51100000000E-03 0. -1.
        -14    1    1    0    0    0  0.28637164861E-02  0.37300573740E-03  0.59300301446E-02  0.65958519472E-02  0.00000000000E+00 0. -1.
         12    1    1    0    0    0 -0.38359893614E-03  0.52718864386E-03 -0.26288874599E-03  0.70298399896E-03  0.00000000000E+00 0.  1.
         14    1    1    0    0    0  0.37303258332E-03  0.43543882642E-03 -0.24820042028E-03  0.62479094776E-03  0.00000000000E+00 0.  1.
     999901    1    1    0    0    0  0.48321750399E-02 -0.14456925151E-01 -0.14496993841E-01  0.90024580834E+00  0.90000000000E+00 0. -1.
     999903    1    1    0    0    0 -0.73675049873E-02  0.13357395257E-01  0.11453718531E-01  0.27638520329E-01  0.20000000000E-01 0.  0.
</event>
<event>
 7    1  0.4717691E-066  0.9118800E+02  0.7957747E-01            NaN
     999900   -1    0    0    0    0  0.00000000000E+00  0.00000000000E+00  0.99999998245E-14  0.93827000000E+00  0.93827000000E+00 0.  1.
        -11    1    1    0    0    0 -0.29005029168E-02  0.10591179257E-02  0.43831507969E-02  0.53858871005E-02  0.51100000000E-03 0. -1.
        -14    1    1    0    0    0  0.11235760830E-03 -0.25064564370E-02 -0.12463363162E-02  0.28014821641E-02  0.00000000000E+00 0. -1.
         12    1    1    0    0    0  0.56319887301E-04 -0.77170534893E-03 -0.34897049122E-03  0.84881180424E-03  0.00000000000E+00 0.  1.
         14    1    1    0    0    0  0.18359452328E-02  0.29465168335E-02  0.17994416976E-02  0.39103256605E-02  0.00000000000E+00 0.  1.
     999901    1    1    0    0    0 -0.26847634748E-02  0.13940164130E-01 -0.70881839123E-02  0.90013986607E+00  0.90000000000E+00 0. -1.
     999903    1    1    0    0    0  0.35806436632E-02 -0.14667637103E-01  0.25008982251E-02  0.25183627204E-01  0.20000000000E-01 0.  0.
</event>
<event>
 7    1  0.4717691E-066  0.9118800E+02  0.7957747E-01            NaN
     999900   -1    0    0    0    0  0.00000000000E+00  0.00000000000E+00  0.99999998245E-14  0.93827000000E+00  0.93827000000E+00 0. -1.
        -11    1    1    0    0    0  0.37983269667E-02  0.12482312118E-02 -0.13734398655E-02  0.42582657231E-02  0.51100000000E-03 0. -1.
        -14    1    1    0    0    0  0.10499761993E-02 -0.25799920150E-02  0.20008180194E-02  0.34295891246E-02  0.00000000000E+00 0. -1.
         12    1    1    0    0    0  0.25983623314E-02  0.27965444138E-02  0.21110560995E-03  0.38231810109E-02  0.00000000000E+00 0.  1.
         14    1    1    0    0    0 -0.18065178790E-02 -0.41167405183E-02 -0.55914387479E-04  0.44960188791E-02  0.00000000000E+00 0.  1.
     999901    1    1    0    0    0 -0.14105219326E-01  0.26216254392E-02 -0.50572744732E-02  0.90012854980E+00  0.90000000000E+00 0.  1.
     999903    1    1    0    0    0  0.84650717076E-02  0.30331468438E-04  0.42747050968E-02  0.22134395467E-01  0.20000000000E-01 0.  0.
</event>
<event>
 7    1  0.4717691E-066  0.9118800E+02  0.7957747E-01            NaN
     999900   -1    0    0    0    0  0.00000000000E+00  0.00000000000E+00  0.99999998245E-14  0.93827000000E+00  0.93827000000E+00 0.  1.
        -11    1    1    0    0    0 -0.43853160729E-03  0.60562714544E-03 -0.45834524568E-03  0.10150347650E-02  0.51100000000E-03 0. -1.
        -14    1    1    0    0    0  0.82990789710E-03  0.18390905220E-02  0.20908947239E-02  0.29056568642E-02  0.00000000000E+00 0. -1.
         12    1    1    0    0    0 -0.17092242820E-02 -0.78866194756E-02 -0.22627925758E-03  0.80728815613E-02  0.00000000000E+00 0.  1.
         14    1    1    0    0    0  0.11249660257E-02  0.29632049080E-02 -0.17480028544E-02  0.36196195746E-02  0.00000000000E+00 0.  1.
     999901    1    1    0    0    0 -0.80556640003E-02 -0.38596042354E-02  0.20748080698E-02  0.90004671829E+00  0.90000000000E+00 0.  1.
     999903    1    1    0    0    0  0.82485459669E-02  0.63383011356E-02 -0.17330754361E-02  0.22610088950E-01  0.20000000000E-01 0.  0.
</event>
<event>
 7    1  0.4717691E-066  0.9118800E+02  0.7957747E-01            NaN
     999900   -1    0    0    0    0  0.00000000000E+00  0.00000000000E+00  0.99999998245E-14  0.93827000000E+00  0.93827000000E+00 0.  1.
        -11    1    1    0    0    0  0.74124175558E-03  0.13239611435E-02 -0.29575635078E-02  0.33631258306E-02  0.51100000000E-03 0. -1.
        -14    1    1    0    0    0  0.17502499439E-02  0.36673983934E-03 -0.36763862930E-03  0.18256590968E-02  0.00000000000E+00 0. -1.
         12    1    1    0    0    0 -0.12712051758E-02 -0.71572731556E-03 -0.16729625646E-02  0.22196918551E-02  0.00000000000E+00 0.  1.
         14    1    1    0    0    0 -0.18952961755E-02  0.67304470694E-02 -0.20019667095E-02  0.72731654768E-02  0.00000000000E+00 0.  1.
     999901    1    1    0    0    0 -0.69114789610E-02 -0.13851990267E-01  0.14048691344E-01  0.90024275165E+00  0.90000000000E+00 0. -1.
     999903    1    1    0    0    0  0.75864886128E-02  0.61465695307E-02 -0.70485599324E-02  0.23345606087E-01  0.20000000000E-01 0.  0.
</event>
<event>
 7    1  0.4717691E-066  0.9118800E+02  0.7957747E-01            NaN
     999900   -1    0    0    0    0  0.00000000000E+00  0.00000000000E+00  0.99999998245E-14  0.93827000000E+00  0.93827000000E+00 0.  1.
        -11    1    1    0    0    0  0.14514534242E-02 -0.19431562736E-02  0.12300967153E-02  0.27670981687E-02  0.51100000000E-03 0. -1.
        -14    1    1    0    0    0 -0.53923921534E-03  0.36687082628E-03 -0.15220752046E-02  0.16559245342E-02  0.00000000000E+00 0. -1.
         12    1    1    0    0    0  0.18360421938E-02 -0.24060913233E-02 -0.11722695786E-02  0.32456959744E-02  0.00000000000E+00 0.  1.
         14    1    1    0    0    0 -0.50684025903E-02 -0.14898963875E-02  0.46614544724E-02  0.70453994820E-02  0.00000000000E+00 0.  1.
     999901    1    1    0    0    0 -0.62483983251E-02  0.13822807249E-01 -0.80865816707E-03  0.90012819443E+00  0.90000000000E+00 0.  1.
     999903    1    1    0    0    0  0.85685445128E-02 -0.83505340910E-02 -0.23885482374E-02  0.23427687409E-01  0.20000000000E-01 0.  0.
</event>
<event>
 7    1  0.4913602E-066  0.9118800E+02  0.7957747E-01            NaN
     999900   -1    0    0    0    0  0.00000000000E+00  0.00000000000E+00  0.99999998245E-14  0.93827000000E+00  0.93827000000E+00 0. -1.
        -11    1    1    0    0    0  0.38204255092E-02 -0.40484920573E-02 -0.52605395138E-02  0.76759583106E-02  0.51100000000E-03 0. -1.
        -14    1    1    0    0    0 -0.10622611000E-02  0.24244855821E-02  0.27257017571E-02  0.37994708909E-02  0.00000000000E+00 0. -1.
         12    1    1    0    0    0 -0.73309154654E-03  0.11306079036E-02 -0.25284672483E-02  0.28651080387E-02  0.00000000000E+00 0.  1.
         14    1    1    0    0    0 -0.23629958260E-04  0.96207173831E-03  0.20704850914E-02  0.22832102221E-02  0.00000000000E+00 0.  1.
     999901    1    1    0    0    0  0.44358733803E-03 -0.72248721326E-02  0.68090547230E-02  0.90005486431E+00  0.90000000000E+00 0. -1.
     999903    1    1    0    0    0 -0.24450302424E-02  0.67561989660E-02 -0.38162348095E-02  0.21591388225E-01  0.20000000000E-01 0.  0.
</event>
<event>
 7    1  0.4717691E-066  0.9118800E+02  0.7957747E-01            NaN
     999900   -1    0    0    0    0  0.00000000000E+00  0.00000000000E+00  0.99999998245E-14  0.93827000000E+00  0.93827000000E+00 0. -1.
        -11    1    1    0    0    0  0.12567979968E-02 -0.22199324691E-02  0.10408738243E-02  0.28021742791E-02  0.51100000000E-03 0. -1.
        -14    1    1    0    0    0  0.13909943848E-03 -0.12728080092E-02 -0.82898179509E-02  0.83881148383E-02  0.00000000000E+00 0. -1.
         12    1    1    0    0    0 -0.24903966428E-03  0.25143636375E-02 -0.17593283710E-02  0.30788441943E-02  0.00000000000E+00 0.  1.
         14    1    1    0    0    0  0.18739086120E-03  0.75827847467E-03  0.17119977701E-03  0.79963175503E-03  0.00000000000E+00 0.  1.
     999901    1    1    0    0    0  0.84526970888E-02 -0.52205796234E-02  0.11480316573E-01  0.90012804656E+00  0.90000000000E+00 0. -1.
     999903    1    1    0    0    0 -0.97869457210E-02  0.54406779895E-02 -0.26432438523E-02  0.23073188371E-01  0.20000000000E-01 0.  0.
</event>
<event>
 7    1  0.4717691E-066  0.9118800E+02  0.7957747E-01            NaN
     999900   -1    0    0    0    0  0.00000000000E+00  0.00000000000E+00  0.99999998245E-14  0.93827000000E+00  0.93827000000E+00 0.  1.
        -11    1    1    0    0    0  0.49568736170E-05 -0.25258192737E-03  0.70673145745E-03  0.90797167003E-03  0.51100000000E-03 0. -1.
        -14    1    1    0    0    0 -0.46451911250E-02 -0.12847010405E-03  0.56179880509E-03  0.46808036760E-02  0.00000000000E+00 0. -1.
         12    1    1    0    0    0  0.64580603333E-03  0.25784160197E-02  0.33710782432E-02  0.42929550574E-02  0.00000000000E+00 0.  1.
         14    1    1    0    0    0 -0.15099583579E-02 -0.59195156371E-03 -0.43624876041E-02  0.46542108882E-02  0.00000000000E+00 0.  1.
     999901    1    1    0    0    0  0.12153263394E-01  0.89279987526E-02  0.11816102057E-02  0.90012710612E+00  0.90000000000E+00 0. -1.
     999903    1    1    0    0    0 -0.66488768184E-02 -0.10533411177E-01 -0.14587311073E-02  0.23606952586E-01  0.20000000000E-01 0.  0.
</event>
<event>
 7    1  0.4717691E-066  0.9118800E+02  0.7957747E-01            NaN
     999900   -1    0    0    0    0  0.00000000000E+00  0.00000000000E+00  0.99999998245E-14  0.93827000000E+00  0.93827000000E+00 0.  1.
        -11    1    1    0    0    0  0.22514128030E-02 -0.40321983722E-05 -0.90489747138E-03  0.24796847183E-02  0.51100000000E-03 0. -1.
        -14    1    1    0    0    0 -0.92308467144E-03  0.20412374939E-02  0.13153626142E-02  0.25978673222E-02  0.00000000000E+00 0. -1.
         12    1    1    0    0    0 -0.30180982677E-02 -0.49746940498E-03 -0.41125909593E-02  0.51254070434E-02  0.00000000000E+00 0.  1.
         14    1    1    0    0    0  0.21413561376E-02  0.35810104388E-02  0.10594421995E-04  0.41724278440E-02  0.00000000000E+00 0.  1.
     999901    1    1    0    0    0 -0.11848105310E-01 -0.10483608415E-01  0.13165001221E-02  0.90013999845E+00  0.90000000000E+00 0. -1.
     999903    1    1    0    0    0  0.11396519308E-01  0.53628620856E-02  0.23750312724E-02  0.23754614618E-01  0.20000000000E-01 0.  0.
</event>
<event>
 7    1  0.4717691E-066  0.9118800E+02  0.7957747E-01            NaN
     999900   -1    0    0    0    0  0.00000000000E+00  0.00000000000E+00  0.99999998245E-14  0.93827000000E+00  0.93827000000E+00 0. -1.
        -11    1    1    0    0    0 -0.53700199976E-04 -0.63599544257E-03 -0.68848754345E-03  0.10688825997E-02  0.51100000000E-03 0. -1.
        -14    1    1    0    0    0  0.51631924330E-02  0.27967858202E-02 -0.17878783967E-02  0.61381655391E-02  0.00000000000E+00 0. -1.
         12    1    1    0    0    0  0.34715622612E-02  0.37122007892E-02 -0.15566686170E-03  0.50849199998E-02  0.00000000000E+00 0.  1.
         14    1    1    0    0    0 -0.96912691162E-03 -0.20022529271E-02  0.39938995711E-02  0.45715924511E-02  0.00000000000E+00 0.  1.
     999901    1    1    0    0    0 -0.44478033798E-02 -0.72018022430E-02  0.45486653310E-02  0.90005129813E+00  0.90000000000E+00 0.  1.
     999903    1    1    0    0    0 -0.31641242028E-02  0.33310640033E-02 -0.59105321002E-02  0.21355141280E-01  0.20000000000E-01 0.  0.
</event>
<event>
 7    1  0.4717691E-066  0.9118800E+02  0.7957747E-01            NaN
     999900   -1    0    0    0    0  0.00000000000E+00  0.00000000000E+00  0.99999998245E-14  0.93827000000E+00  0.93827000000E+00 0. -1.
        -11    1    1    0    0    0 -0.10505293341E-02  0.47991518171E-03  0.62722330581E-04  0.12645100055E-02  0.51100000000E-03 0. -1.
        -14    1    1    0    0    0  0.40805644006E-03  0.14693328930E-02  0.21852260941E-02  0.26647067927E-02  0.00000000000E+00 0. -1.
         12    1    1    0    0    0 -0.38125647525E-02 -0.28729106058E-02 -0.29891764949E-02  0.56324454244E-02  0.00000000000E+00 0.  1.
         14    1    1    0    0    0 -0.31660482341E-03  0.11301570820E-02  0.10347264506E-02  0.15646573017E-02  0.00000000000E+00 0.  1.
     999901    1    1    0    0    0 -0.66977832766E-02  0.93054884626E-02  0.10086211581E-01  0.90012953739E+00  0.90000000000E+00 0. -1.
     999903    1    1    0    0    0  0.11469425747E-01 -0.95119830135E-02 -0.10379709962E-01  0.27014143086E-01  0.20000000000E-01 0.  0.
</event>
<event>
 7    1  0.4717691E-066  0.9118800E+02  0.7957747E-01            NaN
     999900   -1    0    0    0    0  0.00000000000E+00  0.00000000000E+00  0.99999998245E-14  0.93827000000E+00  0.93827000000E+00 0.  1.
        -11    1    1    0    0    0 -0.14747560863E-02 -0.27065877710E-02  0.61159285790E-02  0.68677671961E-02  0.51100000000E-03 0. -1.
        -14    1    1    0    0    0  0.50099230296E-03  0.25994361916E-02 -0.17052697071E-03  0.26527610615E-02  0.00000000000E+00 0. -1.
         12    1    1    0    0    0 -0.10373415400E-02 -0.10095632628E-02  0.22862410361E-02  0.27059551968E-02  0.00000000000E+00 0.  1.
         14    1    1    0    0    0 -0.39559359128E-02  0.17563553404E-02 -0.26571110926E-02  0.50788239176E-02  0.00000000000E+00 0.  1.
     999901    1    1    0    0    0  0.67715768056E-02  0.15875567425E-02 -0.11047204680E-01  0.90009467020E+00  0.90000000000E+00 0. -1.
     999903    1    1    0    0    0 -0.80453556947E-03 -0.22271972407E-02  0.54726731281E-02  0.20870022429E-01  0.20000000000E-01 0.  0.
</event>
<event>
 7    1  0.4717691E-066  0.9118800E+02  0.7957747E-01            NaN
     999900   -1    0    0    0    0  0.00000000000E+00  0.00000000000E+00  0.99999998245E-14  0.93827000000E+00  0.93827000000E+00 0.  1.
        -11    1    1    0    0    0  0.44307295506E-02 -0.30561629137E-02  0.41182025532E-03  0.54223807528E-02  0.51100000000E-03 0. -1.
        -14    1    1    0    0    0  0.43015574892E-03  0.39273168167E-02  0.87280919589E-03  0.40460656494E-02  0.00000000000E+00 0. -1.
         12    1    1    0    0    0  0.13645946742E-02  0.20549495444E-03  0.16014807055E-02  0.21140215825E-02  0.00000000000E+00 0.  1.
         14    1    1    0    0    0  0.12522710621E-02  0.46112605147E-02  0.31719748279E-02  0.57352707571E-02  0.00000000000E+00 0.  1.
     999901    1    1    0    0    0 -0.58756004934E-02 -0.87200098227E-02 -0.10943263906E-02  0.90006208608E+00  0.90000000000E+00 0. -1.
     999903    1    1    0    0    0 -0.16021505425E-02  0.30321004504E-02 -0.49637585941E-02  0.20890175176E-01  0.20000000000E-01 0.  0.
</event>
<event>
 7    1  0.4717691E-066  0.9118800E+02  0.7957747E-01            NaN
     999900   -1    0    0    0    0  0.00000000000E+00  0.00000000000E+00  0.99999998245E-14  0.93827000000E+00  0.93827000000E+00 0.  1.
        -11    1    1    0    0    0  0.23532164912E-02  0.15224271739E-02  0.47948038346E-03  0.28890196940E-02  0.51100000000E-03 0. -1.
        -14    1    1    0    0    0  0.13318492509E-02  0.25959071112E-03  0.10712890747E-02  0.17288348811E-02  0.00000000000E+00 0. -1.
         12    1    1    0    0    0 -0.43382757972E-02 -0.10933362925E-03  0.38308907155E-02  0.57886366624E-02  0.00000000000E+00 0.  1.
         14    1    1    0    0    0  0.19462813523E-02 -0.85240598076E-03 -0.19827913181E-04  0.21248529842E-02  0.00000000000E+00 0.  1.
     999901    1    1    0    0    0 -0.13205696036E-01 -0.72290116603E-02 -0.13594830653E-01  0.90022856455E+00  0.90000000000E+00 0. -1.
     999903    1    1    0    0    0  0.11912624739E-01  0.64087333853E-02  0.82329983923E-02  0.25510091225E-01  0.20000000000E-01 0.  0.
</event>
<event>
 7    1  0.4717691E-066  0.9118800E+02  0.7957747E-01            NaN
     999900   -1    0    0    0    0  0.00000000000E+00  0.00000000000E+00  0.99999998245E-14  0.93827000000E+00  0.93827000000E+00 0. -1.
        -11    1    1    0    0    0  0.80813474541E-04 -0.23023902397E-03  0.12877843426E-02  0.14067872401E-02  0.51100000000E-03 0. -1.
        -14    1    1    0    0    0 -0.24218307104E-02 -0.28632097455E-02 -0.15423523473E-02  0.40548840674E-02  0.00000000000E+00 0. -1.
         12    1    1    0    0    0 -0.32630675521E-02  0.25910833141E-02  0.83899325478E-03  0.42503214316E-02  0.00000000000E+00 0.  1.
         14    1    1    0    0    0 -0.30968435886E-02  0.13607813748E-02  0.49513123403E-02  0.59964706331E-02  0.00000000000E+00 0.  1.
     999901    1    1    0    0    0  0.42779045102E-02 -0.45284487253E-02 -0.13913220644E-01  0.90012909353E+00  0.90000000000E+00 0.  1.
     999903    1    1    0    0    0  0.44230238664E-02  0.36700328057E-02  0.83774830533E-02  0.22432443095E-01  0.20000000000E-01 0.  0.
</event>
<event>
 7    1  0.4717691E-066  0.9118800E+02  0.7957747E-01            NaN
     999900   -1    0    0    0    0  0.00000000000E+00  0.00000000000E+00  0.99999998245E-14  0.93827000000E+00  0.93827000000E+00 0. -1.
        -11    1    1    0    0    0  0.58331425728E-04  0.31797565758E-03 -0.12285321217E-04  0.60479996954E-03  0.51100000000E-03 0.  1.
        -14    1    1    0    0    0  0.59720857551E-02  0.10213726687E-02 -0.10816395501E-02  0.61545880862E-02  0.00000000000E+00 0. -1.
         12    1    1    0    0    0 -0.90122547013E-03  0.56262867679E-03 -0.30703199324E-02  0.32489418067E-02  0.00000000000E+00 0.  1.
         14    1    1    0    0    0 -0.60838400496E-03  0.20795873129E-02  0.26108955421E-02  0.33928734166E-02  0.00000000000E+00 0.  1.
     999901    1    1    0    0    0  0.21169451944E-02 -0.10585822492E-01 -0.96275923953E-02  0.90011623229E+00  0.90000000000E+00 0.  1.
     999903    1    1    0    0    0 -0.66377529001E-02  0.66042581764E-02  0.11180941657E-01  0.24752564432E-01  0.20000000000E-01 0.  0.
</event>
<event>
 7    1  0.4717691E-066  0.9118800E+02  0.7957747E-01            NaN
     999900   -1    0    0    0    0  0.00000000000E+00  0.00000000000E+00  0.99999998245E-14  0.93827000000E+00  0.93827000000E+00 0.  1.
        -11    1    1    0    0    0 -0.76941108152E-03 -0.10028230613E-02  0.46011246903E-03  0.14389134751E-02  0.51100000000E-03 0. -1.
        -14    1    1    0    0    0 -0.31509859928E-02  0.26919268623E-02 -0.25097831341E-02  0.48450174756E-02  0.00000000000E+00 0. -1.
         12    1    1    0    0    0 -0.30983772102E-02  0.40260680926E-02  0.49154040799E-02  0.70689718412E-02  0.00000000000E+00 0.  1.
         14    1    1    0    0    0  0.24792196720E-04 -0.52787288655E-03 -0.24492435249E-02  0.25056053723E-02  0.00000000000E+00 0.  1.
     999901    1    1    0    0    0  0.10895796331E-01 -0.13683096953E-01  0.22588089638E-02  0.90017278771E+00  0.90000000000E+00 0. -1.
     999903    1    1    0    0    0 -0.39018142429E-02  0.84957979463E-02 -0.26752988537E-02  0.22238704123E-01  0.20000000000E-01 0.  0.
</event>
<event>
 7    1  0.4717691E-066  0.9118800E+02  0.7957747E-01            NaN
     999900   -1    0    0    0    0  0.00000000000E+00  0.00000000000E+00  0.99999998245E-14  0.93827000000E+00  0.93827000000E+00 0. -1.
        -11    1    1    0    0    0  0.97072934103E-03 -0.51267215734E-03 -0.13009853622E-02  0.17773103576E-02  0.51100000000E-03 0. -1.
        -14    1    1    0    0    0 -0.35976728776E-02 -0.50986604944E-02  0.29546811427E-03  0.62471505807E-02  0.00000000000E+00 0. -1.
         12    1    1    0    0    0  0.52661409012E-02 -0.36885040263E-02  0.56569884186E-03  0.64542479905E-02  0.00000000000E+00 0.  1.
         14    1    1    0    0    0 -0.11456220204E-02  0.89276301501E-03 -0.13770400393E-02  0.20014282112E-02  0.00000000000E+00 0.  1.
     999901    1    1    0    0    0  0.68266379481E-02  0.66735987552E-02  0.12460896316E-02  0.90005149444E+00  0.90000000000E+00 0. -1.
     999903    1    1    0    0    0 -0.83202132923E-02  0.17334749078E-02  0.57076881377E-03  0.21738368419E-01  0.20000000000E-01 0.  0.
</event>
<event>
 7    1  0.4717691E-066  0.9118800E+02  0.7957747E-01            NaN
     999900   -1    0    0    0    0  0.00000000000E+00  0.00000000000E+00  0.99999998245E-14  0.93827000000E+00  0.93827000000E+00 0.  1.
        -11    1    1    0    0    0  0.44428773700E-03 -0.22825685196E-02  0.62647484216E-03  0.24619306180E-02  0.51100000000E-03 0. -1.
        -14    1    1    0    0    0  0.15988456664E-02  0.40222130260E-02  0.14119207611E-02  0.45528041169E-02  0.00000000000E+00 0. -1.
         12    1    1    0    0    0 -0.20140581671E-02 -0.41296710445E-03  0.16077967190E-02  0.26099774749E-02  0.00000000000E+00 0.  1.
         14    1    1    0    0    0  0.17713211548E-02  0.87270462524E-03  0.27596840591E-02  0.33933829879E-02  0.00000000000E+00 0.  1.
     999901    1    1    0    0    0  0.12292553475E-01 -0.74784233129E-02 -0.82701107512E-02  0.90015300278E+00  0.90000000000E+00 0.  1.
     999903    1    1    0    0    0 -0.14092949866E-01  0.52790412858E-02  0.18642343697E-02  0.25098902020E-01  0.20000000000E-01 0.  0.
</event>
<event>
 7    1  0.4717691E-066  0.9118800E+02  0.7957747E-01            NaN
     999900   -1    0    0    0    0  0.00000000000E+00  0.00000000000E+00  0.99999998245E-14  0.93827000000E+00  0.93827000000E+00 0.  1.
        -11    1    1    0    0    0 -0.88724543798E-03  0.83540723711E-03 -0.14114529869E-02  0.19335020696E-02  0.51100000000E-03 0. -1.
        -14    1    1    0    0    0 -0.48477066889E-03 -0.88398748340E-03  0.28063911652E-02  0.29819905842E-02  0.00000000000E+00 0. -1.
         12    1    1    0    0    0 -0.98294349300E-03 -0.82372349202E-02 -0.31085081618E-02  0.88589525359E-02  0.00000000000E+00 0.  1.
         14    1    1    0    0    0  0.23926141779E-02  0.16875110713E-02 -0.29994570615E-03  0.29431723780E-02  0.00000000000E+00 0.  1.
     999901    1    1    0    0    0 -0.15894408447E-02  0.90791525881E-03 -0.34048636359E-02  0.90000830203E+00  0.90000000000E+00 0. -1.
     999903    1    1    0    0    0  0.15517862666E-02  0.56903888364E-02  0.54183793256E-02  0.21544080399E-01  0.20000000000E-01 0.  0.
</event>
<event>
 7    1  0.4717691E-066  0.9118800E+02  0.7957747E-01            NaN
     999900   -1    0    0    0    0  0.00000000000E+00  0.00000000000E+00  0.99999998245E-14  0.93827000000E+00  0.93827000000E+00 0. -1.
        -11    1    1    0    0    0 -0.47836952042E-03 -0.16735099415E-02 -0.27644806841E-02  0.33065007750E-02  0.51100000000E-03 0. -1.
        -14    1    1    0    0    0  0.75175996371E-02 -0.85664760038E-03  0.27318628368E-02  0.80443286838E-02  0.00000000000E+00 0. -1.
         12    1    1    0    0    0  0.59718052038E-03  0.44305079175E-03  0.17176187556E-02  0.18716657734E-02  0.00000000000E+00 0.  1.
         14    1    1    0    0    0 -0.26776924018E-02 -0.22636590094E-02 -0.11383949997E-02  0.36864796060E-02  0.00000000000E+00 0.  1.
     999901    1    1    0    0    0  0.19545975431E-02  0.15598569407E-02 -0.12702004062E-02  0.90000437055E+00  0.90000000000E+00 0.  1.
     999903    1    1    0    0    0 -0.69133157783E-02  0.27909088188E-02  0.72359449765E-03  0.21356654609E-01  0.20000000000E-01 0.  0.
</event>
<event>
 7    1  0.4717691E-066  0.9118800E+02  0.7957747E-01            NaN
     999900   -1    0    0    0    0  0.00000000000E+00  0.00000000000E+00  0.99999998245E-14  0.93827000000E+00  0.93827000000E+00 0. -1.
        -11    1    1    0    0    0  0.20614955632E-02  0.28340879779E-02  0.21163122692E-02  0.41257383878E-02  0.51100000000E-03 0. -1.
        -14    1    1    0    0    0  0.25846396639E-02  0.14211190099E-02 -0.10393100543E-02  0.31273162331E-02  0.00000000000E+00 0. -1.
         12    1    1    0    0    0  0.27050980064E-02  0.30366247087E-02  0.19127599015E-02  0.44941401053E-02  0.00000000000E+00 0.  1.
         14    1    1    0    0    0 -0.28503520740E-02 -0.17597213414E-02 -0.41760271410E-02  0.53535342370E-02  0.00000000000E+00 0.  1.
     999901    1    1    0    0    0 -0.82729233166E-02 -0.70964936155E-03 -0.18065275787E-02  0.90004011489E+00  0.90000000000E+00 0. -1.
     999903    1    1    0    0    0  0.37720421571E-02 -0.48224609936E-02  0.29927926033E-02  0.21129156151E-01  0.20000000000E-01 0.  0.
</event>
<event>
 7    1  0.4717691E-066  0.9118800E+02  0.7957747E-01            NaN
     999900   -1    0    0    0    0  0.00000000000E+00  0.00000000000E+00  0.99999998245E-14  0.93827000000E+00  0.93827000000E+00 0. -1.
        -11    1    1    0    0    0  0.20193919711E-02  0.77616935892E-03 -0.23994417839E-02  0.32709057891E-02  0.51100000000E-03 0. -1.
        -14    1    1    0    0    0  0.15013716883E-02  0.10833319880E-02 -0.14093709450E-03  0.18567682697E-02  0.00000000000E+00 0. -1.
         12    1    1    0    0    0 -0.12151041634E-02 -0.15285393301E-02  0.15444370069E-02  0.24896176975E-02  0.00000000000E+00 0.  1.
         14    1    1    0    0    0 -0.38449531513E-02  0.26087955632E-02 -0.60848398387E-02  0.76560273569E-02  0.00000000000E+00 0.  1.
     999901    1    1    0    0    0  0.54120721774E-02 -0.22514304076E-02  0.17321210324E-01  0.90018574960E+00  0.90000000000E+00 0. -1.
     999903    1    1    0    0    0 -0.38727785221E-02 -0.68832717249E-03 -0.10240428613E-01  0.22810931282E-01  0.20000000000E-01 0.  0.
</event>
<event>
 7    1  0.4717691E-066  0.9118800E+02  0.7957747E-01            NaN
     999900   -1    0    0    0    0  0.00000000000E+00  0.00000000000E+00  0.99999998245E-14  0.93827000000E+00  0.93827000000E+00 0. -1.
        -11    1    1    0    0    0  0.85864367412E-03  0.17022446126E-03  0.17326292790E-02  0.20073292069E-02  0.51100000000E-03 0. -1.
        -14    1    1    0    0    0 -0.30218629493E-02 -0.87755773163E-03 -0.32793250423E-02  0.45448581925E-02  0.00000000000E+00 0. -1.
         12    1    1    0    0    0  0.25499268461E-02 -0.47699337709E-02 -0.22946940579E-02  0.58753736833E-02  0.00000000000E+00 0.  1.
         14    1    1    0    0    0  0.88110229194E-03  0.34472757434E-02 -0.75647202031E-03  0.36376230175E-02  0.00000000000E+00 0.  1.
     999901    1    1    0    0    0  0.51612732073E-02 -0.54559972860E-03 -0.20593277009E-02  0.90001732053E+00  0.90000000000E+00 0.  1.
     999903    1    1    0    0    0 -0.64290830702E-02  0.25755910265E-02  0.66571895425E-02  0.22187495372E-01  0.20000000000E-01 0.  0.
</event>
<event>
 7    1  0.4717691E-066  0.9118800E+02  0.7957747E-01            NaN
     999900   -1    0    0    0    0  0.00000000000E+00  0.00000000000E+00  0.99999998245E-14  0.93827000000E+00  0.93827000000E+00 0.  1.
        -11    1    1    0    0    0  0.43530045889E-02  0.43008225778E-03  0.66790124778E-04  0.44044524768E-02  0.51100000000E-03 0. -1.
        -14    1    1    0    0    0 -0.39683502628E-03  0.59147740558E-04  0.12169710203E-02  0.12814035108E-02  0.00000000000E+00 0. -1.
         12    1    1    0    0    0  0.38881856483E-02  0.42996242160E-03  0.38377773762E-02  0.54800903742E-02  0.00000000000E+00 0.  1.
         14    1    1    0    0    0 -0.35312744227E-02 -0.89597019416E-03 -0.10100565088E-02  0.37805919891E-02  0.00000000000E+00 0.  1.
     999901    1    1    0    0    0  0.18160331901E-02 -0.43110763031E-02  0.52032466196E-02  0.90002719800E+00  0.90000000000E+00 0.  1.
     999903    1    1    0    0    0 -0.61291139783E-02  0.42878540773E-02 -0.93147286322E-02  0.23296263654E-01  0.20000000000E-01 0.  0.
</event>
<event>
 7    1  0.4717691E-066  0.9118800E+02  0.7957747E-01            NaN
     999900   -1    0    0    0    0  0.00000000000E+00  0.00000000000E+00  0.99999998245E-14  0.93827000000E+00  0.93827000000E+00 0.  1.
        -11    1    1    0    0    0 -0.91023429194E-03 -0.24578044975E-02 -0.15950711704E-03  0.26750500808E-02  0.51100000000E-03 0. -1.
        -14    1    1    0    0    0 -0.13071739017E-02  0.19279119579E-02  0.38749730371E-03  0.23612925035E-02  0.00000000000E+00 0. -1.
         12    1    1    0    0    0  0.20305773751E-02 -0.66287161460E-02 -0.31492505362E-02  0.76145191024E-02  0.00000000000E+00 0.  1.
         14    1    1    0    0    0  0.10521739297E-02 -0.17973740665E-02  0.19416164434E-02  0.28473668409E-02  0.00000000000E+00 0.  1.
     999901    1    1    0    0    0 -0.88786877218E-02  0.98513522158E-02 -0.59631586858E-02  0.90011745872E+00  0.90000000000E+00 0. -1.
     999903    1    1    0    0    0  0.80133446107E-02 -0.89536946370E-03  0.69428025921E-02  0.22654312750E-01  0.20000000000E-01 0.  0.
</event>
<event>
 7    1  0.4717691E-066  0.9118800E+02  0.7957747E-01            NaN
     999900   -1    0    0    0    0  0.00000000000E+00  0.00000000000E+00  0.99999998245E-14  0.93827000000E+00  0.93827000000E+00 0. -1.
        -11    1    1    0    0    0  0.30284523120E-02 -0.11450597168E-02 -0.61570950255E-03  0.33351018505E-02  0.51100000000E-03 0. -1.
        -14    1    1    0    0    0 -0.15405826235E-02 -0.61766000119E-03 -0.51140803713E-02  0.53766826892E-02  0.00000000000E+00 0. -1.
         12    1    1    0    0    0  0.23593322157E-02 -0.29627998201E-02  0.22815592057E-02  0.44215544424E-02  0.00000000000E+00 0.  1.
         14    1    1    0    0    0 -0.35568259886E-02  0.70309579364E-03 -0.18359860501E-02  0.40640127442E-02  0.00000000000E+00 0.  1.
     999901    1    1    0    0    0  0.61511401652E-02  0.36932168239E-02  0.59374292936E-02  0.90004818173E+00  0.90000000000E+00 0. -1.
     999903    1    1    0    0    0 -0.64415160808E-02  0.32920692062E-03 -0.65321257534E-03  0.21024466540E-01  0.20000000000E-01 0.  0.
</event>
<event>
 7    1  0.4717691E-066  0.9118800E+02  0.7957747E-01            NaN
     999900   -1    0    0    0    0  0.00000000000E+00  0.00000000000E+00  0.99999998245E-14  0.93827000000E+00  0.93827000000E+00 0.  1.
        -11    1    1    0    0    0  0.40267310378E-02 -0.32649683531E-02 -0.75587602862E-03  0.52637487372E-02  0.51100000000E-03 0. -1.
        -14    1    1    0    0    0 -0.30291385178E-02  0.24572649827E-02 -0.18498848310E-02  0.43169323880E-02  0.00000000000E+00 0. -1.
         12    1    1    0    0    0  0.93548274482E-03 -0.28198548031E-02 -0.65801915775E-03  0.30429752362E-02  0.00000000000E+00 0.  1.
         14    1    1    0    0    0  0.13065318021E-02  0.70224113303E-03  0.30813938507E-02  0.34198181270E-02  0.00000000000E+00 0.  1.
     999901    1    1    0    0    0 -0.88795492849E-02  0.31379801035E-02  0.78287821509E-02  0.90008332011E+00  0.90000000000E+00 0.  1.
     999903    1    1    0    0    0  0.56399422180E-02 -0.21266306303E-03 -0.76463959843E-02  0.22143205399E-01  0.20000000000E-01 0.  0.
</event>
<event>
 7    1  0.4717691E-066  0.9118800E+02  0.7957747E-01            NaN
     999900   -1    0    0    0    0  0.00000000000E+00  0.00000000000E+00  0.99999998245E-14  0.93827000000E+00  0.93827000000E+00 0.  1.
        -11    1    1    0    0    0 -0.29508244924E-02  0.21848611407E-02 -0.19946076604E-02  0.42095800394E-02  0.51100000000E-03 0. -1.
        -14    1    1    0    0    0  0.20047447754E-02  0.43675457633E-02  0.30125208773E-02  0.56718374135E-02  0.00000000000E+00 0. -1.
         12    1    1    0    0    0  0.47917505383E-02 -0.16083637804E-02  0.17223249831E-03  0.50574075676E-02  0.00000000000E+00 0.  1.
         14    1    1    0    0    0  0.27991565167E-03  0.10611432666E-02 -0.10764930780E-02  0.15372752360E-02  0.00000000000E+00 0.  1.
     999901    1    1    0    0    0 -0.16362241401E-02 -0.10298276666E-01  0.67149004438E-02  0.90008545240E+00  0.90000000000E+00 0.  1.
     999903    1    1    0    0    0 -0.24893623328E-02  0.42930902762E-02 -0.68285530810E-02  0.21708447345E-01  0.20000000000E-01 0.  0.
</event>
<event>
 7    1  0.4717691E-066  0.9118800E+02  0.7957747E-01            NaN
     999900   -1    0    0    0    0  0.00000000000E+00  0.00000000000E+00  0.99999998245E-14  0.93827000000E+00  0.93827000000E+00 0. -1.
        -11    1    1    0    0    0 -0.27604314261E-03  0.34963093388E-03 -0.10717792602E-02  0.12681771916E-02  0.51100000000E-03 0. -1.
        -14    1    1    0    0    0  0.92847718605E-03  0.23987133848E-03  0.32664957288E-02  0.34043505240E-02  0.00000000000E+00 0. -1.
         12    1    1    0    0    0 -0.11220188610E-02  0.55791192238E-03  0.11096148651E-02  0.16737494396E-02  0.00000000000E+00 0.  1.
         14    1    1    0    0    0  0.43860605034E-02 -0.18563663247E-02 -0.10788513273E-02  0.48833946038E-02  0.00000000000E+00 0.  1.
     999901    1    1    0    0    0  0.25651591797E-02  0.16657746547E-01  0.28781899894E-02  0.90016239898E+00  0.90000000000E+00 0. -1.
     999903    1    1    0    0    0 -0.64816348656E-02 -0.15948794417E-01 -0.51036699958E-02  0.26877929260E-01  0.20000000000E-01 0.  0.
</event>
<event>
 7    1  0.4717691E-066  0.9118800E+02  0.7957747E-01            NaN
     999900   -1    0    0    0    0  0.00000000000E+00  0.00000000000E+00  0.99999998245E-14  0.93827000000E+00  0.93827000000E+00 0. -1.
        -11    1    1    0    0    0  0.15087194921E-02  0.12496734445E-02 -0.31229534993E-03  0.20485525645E-02  0.51100000000E-03 0. -1.
        -14    1    1    0    0    0 -0.10947115037E-02 -0.32956276021E-02  0.11526386318E-03  0.34745993045E-02  0.00000000000E+00 0. -1.
         12    1    1    0    0    0  0.45401644591E-03 -0.55468400174E-02  0.45265479232E-03  0.55837676771E-02  0.00000000000E+00 0.  1.
         14    1    1    0    0    0 -0.11757069400E-03  0.19258844542E-02 -0.32241310887E-02  0.37573760892E-02  0.00000000000E+00 0.  1.
     999901    1    1    0    0    0 -0.15090280632E-02  0.21655017002E-02  0.14347073660E-01  0.90011821728E+00  0.90000000000E+00 0. -1.
     999903    1    1    0    0    0  0.75857432294E-03  0.35014080206E-02 -0.11378565877E-01  0.23287487081E-01  0.20000000000E-01 0.  0.
</event>
<event>
 7    1  0.4717691E-066  0.9118800E+02  0.7957747E-01            NaN
     999900   -1    0    0    0    0  0.00000000000E+00  0.00000000000E+00  0.99999998245E-14  0.93827000000E+00  0.93827000000E+00 0. -1.
        -11    1    1    0    0    0 -0.31874687776E-02  0.12697707641E-02 -0.17536260947E-02  0.38869783227E-02  0.51100000000E-03 0. -1.
        -14    1    1    0    0    0  0.63699144633E-02 -0.17448174363E-02  0.68363050315E-03  0.66398455419E-02  0.00000000000E+00 0. -1.
         12    1    1    0    0    0  0.15392975971E-02 -0.12424827828E-02 -0.17106947500E-03  0.19855642330E-02  0.00000000000E+00 0.  1.
         14    1    1    0    0    0 -0.14597794423E-02  0.23778085850E-02 -0.13231710455E-02  0.30879947057E-02  0.00000000000E+00 0.  1.
     999901    1    1    0    0    0 -0.13033405691E-01 -0.39924401492E-02  0.40623026159E-02  0.90011238829E+00  0.90000000000E+00 0. -1.
     999903    1    1    0    0    0  0.97714418510E-02  0.33321610192E-02 -0.14980665039E-02  0.22557228911E-01  0.20000000000E-01 0.  0.
</event>
<event>
 7    1  0.4717691E-066  0.9118800E+02  0.7957747E-01            NaN
     999900   -1    0    0    0    0  0.00000000000E+00  0.00000000000E+00  0.99999998245E-14  0.93827000000E+00  0.93827000000E+00 0.  1.
        -11    1    1    0    0    0  0.28471110076E-03  0.86982569835E-03  0.25134514933E-03  0.10779390245E-02  0.51100000000E-03 0. -1.
        -14    1    1    0    0    0  0.18326049684E-02 -0.17133329406E-02  0.62363505573E-02  0.67220546717E-02  0.00000000000E+00 0. -1.
         12    1    1    0    0    0 -0.29941621204E-02 -0.10151947943E-02 -0.16844677089E-02  0.35823258835E-02  0.00000000000E+00 0.  1.
         14    1    1    0    0    0  0.20246898899E-03  0.16561047295E-02  0.28407318502E-02  0.32944550401E-02  0.00000000000E+00 0.  1.
     999901    1    1    0    0    0 -0.58516966170E-02 -0.21824251859E-02 -0.17606495229E-01  0.90019386468E+00  0.90000000000E+00 0. -1.
     999903    1    1    0    0    0  0.65260736793E-02  0.23850224930E-02  0.99625353813E-02  0.23399360700E-01  0.20000000000E-01 0.  0.
</event>
<event>
 7    1  0.4717691E-066  0.9118800E+02  0.7957747E-01            NaN
     999900   -1    0    0    0    0  0.00000000000E+00  0.00000000000E+00  0.99999998245E-14  0.93827000000E+00  0.93827000000E+00 0.  1.
        -11    1    1    0    0    0 -0.56217974720E-04  0.32715620731E-03 -0.21066448939E-02  0.21930037286E-02  0.51100000000E-03 0. -1.
        -14    1    1    0    0    0 -0.18033494776E-02  0.58216134397E-03 -0.64150880324E-03  0.20006285796E-02  0.00000000000E+00 0. -1.
         12    1    1    0    0    0  0.59277621209E-02  0.32974088090E-02 -0.11725862535E-02  0.68837654766E-02  0.00000000000E+00 0.  1.
         14    1    1    0    0    0 -0.72455456068E-03  0.67181125750E-03  0.17503727288E-02  0.20100035738E-02  0.00000000000E+00 0.  1.
     999901    1    1    0    0    0  0.26891028718E-02 -0.17277554866E-01  0.79790334298E-02  0.90020520447E+00  0.90000000000E+00 0.  1.
     999903    1    1    0    0    0 -0.60327429797E-02  0.12399017248E-01 -0.58086662080E-02  0.24977394174E-01  0.20000000000E-01 0.  0.
</event>
<event>
 7    1  0.4717691E-066  0.9118800E+02  0.7957747E-01            NaN
     999900   -1    0    0    0    0  0.00000000000E+00  0.00000000000E+00  0.99999998245E-14  0.93827000000E+00  0.93827000000E+00 0.  1.
        -11    1    1    0    0    0 -0.29937381186E-02  0.17030682198E-02 -0.14089291980E-03  0.34848071824E-02  0.51100000000E-03 0. -1.
        -14    1    1    0    0    0 -0.99964519996E-03  0.31052812115E-03  0.19424655303E-02  0.22065562708E-02  0.00000000000E+00 0. -1.
         12    1    1    0    0    0 -0.22313676116E-02  0.73736688368E-03  0.50704820463E-02  0.55886044342E-02  0.00000000000E+00 0.  1.
         14    1    1    0    0    0 -0.71463813160E-04  0.24699621519E-02 -0.11278225466E-02  0.27162112961E-02  0.00000000000E+00 0.  1.
     999901    1    1    0    0    0 -0.19007431037E-02 -0.15803196396E-01 -0.71135706090E-02  0.90016884901E+00  0.90000000000E+00 0. -1.
     999903    1    1    0    0    0  0.81969578470E-02  0.10582271020E-01  0.13693384988E-02  0.24104971807E-01  0.20000000000E-01 0.  0.
</event>
<event>
 7    1  0.4717691E-066  0.9118800E+02  0.7957747E-01            NaN
     999900   -1    0    0    0    0  0.00000000000E+00  0.00000000000E+00  0.99999998245E-14  0.93827000000E+00  0.93827000000E+00 0.  1.
        -11    1    1    0    0    0  0.28015251553E-03  0.16669472919E-02  0.31052205896E-03  0.17929706230E-02  0.51100000000E-03 0. -1.
        -14    1    1    0    0    0 -0.49863909732E-04 -0.10791182409E-02 -0.89441693593E-03  0.14024850240E-02  0.00000000000E+00 0. -1.
         12    1    1    0    0    0 -0.80804752004E-02  0.33543349709E-03 -0.26642660504E-03  0.80918216881E-02  0.00000000000E+00 0.  1.
         14    1    1    0    0    0 -0.29888911143E-02 -0.44105419382E-02  0.85597171369E-03  0.53962058760E-02  0.00000000000E+00 0.  1.
     999901    1    1    0    0    0  0.13658232305E-01 -0.13135839992E-03  0.62816773229E-02  0.90012556015E+00  0.90000000000E+00 0. -1.
     999903    1    1    0    0    0 -0.28191545962E-02  0.36186377900E-02 -0.62873275546E-02  0.21460956639E-01  0.20000000000E-01 0.  0.
</event>
<event>
 7    1  0.4717691E-066  0.9118800E+02  0.7957747E-01            NaN
     999900   -1    0    0    0    0  0.00000000000E+00  0.00000000000E+00  0.99999998245E-14  0.93827000000E+00  0.93827000000E+00 0.  1.
        -11    1    1    0    0    0  0.25191978003E-02  0.20844357225E-02  0.15882592460E-02  0.36708198363E-02  0.51100000000E-03 0. -1.
        -14    1    1    0    0    0 -0.36829230256E-03 -0.60644951725E-03  0.23454153897E-02  0.24503864159E-02  0.00000000000E+00 0. -1.
         12    1    1    0    0    0  0.15818575008E-02  0.11323114683E-02  0.69667362888E-03  0.20663389265E-02  0.00000000000E+00 0.  1.
         14    1    1    0    0    0 -0.22681630459E-02 -0.60305537129E-02  0.33593525103E-02  0.72661813200E-02  0.00000000000E+00 0.  1.
     999901    1    1    0    0    0  0.57008951009E-02  0.14127462476E-02 -0.15616953359E-01  0.90015464521E+00  0.90000000000E+00 0. -1.
     999903    1    1    0    0    0 -0.71654950536E-02  0.20075097918E-02  0.76272525844E-02  0.22661628294E-01  0.20000000000E-01 0.  0.
</event>
<event>
 7    1  0.4717691E-066  0.9118800E+02  0.7957747E-01            NaN
     999900   -1    0    0    0    0  0.00000000000E+00  0.00000000000E+00  0.99999998245E-14  0.93827000000E+00  0.93827000000E+00 0. -1.
        -11    1    1    0    0    0  0.18294551023E-02  0.24860595760E-02  0.15414586798E-02  0.34877806767E-02  0.51100000000E-03 0. -1.
        -14    1    1    0    0    0 -0.44906637241E-02 -0.16606870566E-02  0.19701858756E-03  0.47919472562E-02  0.00000000000E+00 0. -1.
         12    1    1    0    0    0  0.88727222942E-03  0.36463792901E-02 -0.15364455851E-02  0.40551200934E-02  0.00000000000E+00 0.  1.
         14    1    1    0    0    0 -0.10625747781E-02  0.56829680458E-03  0.32289101156E-02  0.34464310455E-02  0.00000000000E+00 0.  1.
     999901    1    1    0    0    0 -0.68666360352E-02 -0.37445425917E-02 -0.61585793037E-02  0.90005505409E+00  0.90000000000E+00 0.  1.
     999903    1    1    0    0    0  0.97031472056E-02 -0.12955060224E-02  0.27276375058E-02  0.22433666841E-01  0.20000000000E-01 0.  0.
</event>
<event>
 7    1  0.4717691E-066  0.9118800E+02  0.7957747E-01            NaN
     999900   -1    0    0    0    0  0.00000000000E+00  0.00000000000E+00  0.99999998245E-14  0.93827000000E+00  0.93827000000E+00 0. -1.
        -11    1    1    0    0    0  0.41446198553E-03 -0.20747383389E-03 -0.10248092608E-02  0.12353862353E-02  0.51100000000E-03 0. -1.
        -14    1    1    0    0    0 -0.96240328247E-03 -0.60397427147E-05  0.21459574293E-02  0.23518906958E-02  0.00000000000E+00 0. -1.
         12    1    1    0    0    0  0.70753827416E-02 -0.14315811512E-02 -0.69377624886E-03  0.72520197888E-02  0.00000000000E+00 0.  1.
         14    1    1    0    0    0  0.10618147500E-04 -0.17779695777E-02 -0.27131394114E-02  0.32438270653E-02  0.00000000000E+00 0.  1.
     999901    1    1    0    0    0  0.23754704241E-02 -0.55382496432E-02  0.70743250787E-02  0.90004797713E+00  0.90000000000E+00 0. -1.
     999903    1    1    0    0    0 -0.89135300163E-02  0.89613139487E-02 -0.47885575870E-02  0.24138899080E-01  0.20000000000E-01 0.  0.
</event>
<event>
 7    1  0.4717691E-066  0.9118800E+02  0.7957747E-01            NaN
     999900   -1    0    0    0    0  0.00000000000E+00  0.00000000000E+00  0.99999998245E-14  0.93827000000E+00  0.93827000000E+00 0.  1.
        -11    1    1    0    0    0 -0.46351692109E-02 -0.11801148490E-02  0.14816459202E-02  0.50332753057E-02  0.51100000000E-03 0. -1.
        -14    1    1    0    0    0 -0.32281384105E-02 -0.93964711882E-03 -0.25222365606E-02  0.42030336155E-02  0.00000000000E+00 0. -1.
         12    1    1    0    0    0 -0.10998941936E-02  0.15206563472E-02  0.34653974803E-02  0.39409570741E-02  0.00000000000E+00 0.  1.
         14    1    1    0    0    0 -0.11956541632E-02  0.21561465716E-02 -0.12091344074E-02  0.27460085454E-02  0.00000000000E+00 0.  1.
     999901    1    1    0    0    0  0.11961808370E-01  0.78059955799E-02 -0.30001054603E-02  0.90011833614E+00  0.90000000000E+00 0. -1.
     999903    1    1    0    0    0 -0.18029523915E-02 -0.93630365310E-02  0.17844330278E-02  0.22228389317E-01  0.20000000000E-01 0.  0.
</event>
<event>
 7    1  0.4717691E-066  0.9118800E+02  0.7957747E-01            NaN
     999900   -1    0    0    0    0  0.00000000000E+00  0.00000000000E+00  0.99999998245E-14  0.93827000000E+00  0.93827000000E+00 0.  1.
        -11    1    1    0    0    0  0.51589285113E-03  0.15583654533E-02  0.35772962729E-02  0.39689819783E-02  0.51100000000E-03 0. -1.
        -14    1    1    0    0    0  0.74377810958E-04  0.49709309205E-03 -0.17202927091E-02  0.17922166738E-02  0.00000000000E+00 0. -1.
         12    1    1    0    0    0 -0.26534816995E-02  0.24019347712E-03  0.21350172587E-02  0.34142285704E-02  0.00000000000E+00 0.  1.
         14    1    1    0    0    0  0.15923989229E-02 -0.59012492521E-02 -0.38108111754E-02  0.72029687546E-02  0.00000000000E+00 0.  1.
     999901    1    1    0    0    0  0.68724316290E-02  0.20955620337E-02 -0.59995123706E-02  0.90004867415E+00  0.90000000000E+00 0. -1.
     999903    1    1    0    0    0 -0.64016195144E-02  0.15100351959E-02  0.58183027234E-02  0.21842929869E-01  0.20000000000E-01 0.  0.
</event>
<event>
 7    1  0.4717691E-066  0.9118800E+02  0.7957747E-01            NaN
     999900   -1    0    0    0    0  0.00000000000E+00  0.00000000000E+00  0.99999998245E-14  0.93827000000E+00  0.93827000000E+00 0.  1.
        -11    1    1    0    0    0 -0.26981636393E-03 -0.43861280734E-03 -0.14844583987E-02  0.16522468952E-02  0.51100000000E-03 0. -1.
        -14    1    1    0    0    0  0.15035852326E-03 -0.33842376655E-03  0.37929668702E-02  0.38110019692E-02  0.00000000000E+00 0. -1.
         12    1    1    0    0    0  0.23653344227E-02 -0.66376846338E-02 -0.83092290409E-03  0.70953574330E-02  0.00000000000E+00 0.  1.
         14    1    1    0    0    0 -0.21457319306E-02 -0.42652538806E-03 -0.20161938609E-02  0.29750843870E-02  0.00000000000E+00 0.  1.
     999901    1    1    0    0    0 -0.57357117503E-02  0.30172625160E-03  0.57040503002E-02  0.90003640238E+00  0.90000000000E+00 0.  1.
     999903    1    1    0    0    0  0.56355670989E-02  0.75395203442E-02 -0.51654420066E-02  0.22699906931E-01  0.20000000000E-01 0.  0.
</event>
<event>
 7    1  0.4717691E-066  0.9118800E+02  0.7957747E-01            NaN
     999900   -1    0    0    0    0  0.00000000000E+00  0.00000000000E+00  0.99999998245E-14  0.93827000000E+00  0.93827000000E+00 0. -1.
        -11    1    1    0    0    0 -0.21126144301E-03  0.22414479060E-03  0.56761210331E-02  0.57073937368E-02  0.51100000000E-03 0. -1.
        -14    1    1    0    0    0 -0.40015451964E-02  0.35604698287E-02  0.31142240134E-04  0.53563307590E-02  0.00000000000E+00 0. -1.
         12    1    1    0    0    0  0.88715104968E-03  0.24424476879E-02 -0.30369927458E-02  0.39969879449E-02  0.00000000000E+00 0.  1.
         14    1    1    0    0    0  0.18878282978E-03 -0.58888038698E-03  0.31343980787E-03  0.69329905535E-03  0.00000000000E+00 0.  1.
     999901    1    1    0    0    0  0.45713499787E-02  0.42777456677E-02 -0.61796942335E-03  0.90002198764E+00  0.90000000000E+00 0.  1.
     999903    1    1    0    0    0 -0.14344772187E-02 -0.99159275880E-02 -0.23657409120E-02  0.22494000864E-01  0.20000000000E-01 0.  0.
</event>
<event>
 7    1  0.4717691E-066  0.9118800E+02  0.7957747E-01            NaN
     999900   -1    0    0    0    0  0.00000000000E+00  0.00000000000E+00  0.99999998245E-14  0.93827000000E+00  0.93827000000E+00 0.  1.
        -11    1    1    0    0    0 -0.63685203135E-03  0.10589973568E-02 -0.25359454216E-02  0.28669140366E-02  0.51100000000E-03 0. -1.
        -14    1    1    0    0    0 -0.29392599252E-02 -0.18373896350E-02  0.23804244131E-02  0.42049577840E-02  0.00000000000E+00 0. -1.
         12    1    1    0    0    0  0.38075399716E-03 -0.37775706275E-02 -0.21246814990E-02  0.43507798064E-02  0.00000000000E+00 0.  1.
         14    1    1    0    0    0  0.23983628572E-02  0.57306763375E-03  0.19402376750E-02  0.31376859535E-02  0.00000000000E+00 0.  1.
     999901    1    1    0    0    0  0.42874774847E-02 -0.64467372866E-02  0.65434813226E-02  0.90005708710E+00  0.90000000000E+00 0. -1.
     999903    1    1    0    0    0 -0.34904823825E-02  0.10429632559E-01 -0.62035164900E-02  0.23652575323E-01  0.20000000000E-01 0.  0.
</event>
<event>
 7    1  0.5136456E-066  0.9118800E+02  0.7957747E-01            NaN
     999900   -1    0    0    0    0  0.00000000000E+00  0.00000000000E+00  0.99999998245E-14  0.93827000000E+00  0.93827000000E+00 0. -1.
        -11    1    1    0    0    0 -0.31277228862E-02  0.24477840925E-02 -0.51247050328E-02  0.65036928041E-02  0.51100000000E-03 0. -1.
        -14    1    1    0    0    0  0.13155669350E-02 -0.34534894609E-02  0.39165814873E-02  0.53848784911E-02  0.00000000000E+00 0. -1.
         12    1    1    0    0    0  0.65624442447E-03 -0.23533112308E-02 -0.91311054755E-03  0.26081605329E-02  0.00000000000E+00 0.  1.
         14    1    1    0    0    0  0.10446565278E-02  0.34908626389E-03  0.77520608061E-03  0.13468901024E-02  0.00000000000E+00 0.  1.
     999901    1    1    0    0    0 -0.89206744669E-02 -0.64223513866E-03 -0.11048515017E-02  0.90004511642E+00  0.90000000000E+00 0.  1.
     999903    1    1    0    0    0  0.90319294658E-02  0.36521654739E-02  0.24508795141E-02  0.22381261647E-01  0.20000000000E-01 0.  0.
</event>
<event>
 7    1  0.4717691E-066  0.9118800E+02  0.7957747E-01            NaN
     999900   -1    0    0    0    0  0.00000000000E+00  0.00000000000E+00  0.99999998245E-14  0.93827000000E+00  0.93827000000E+00 0.  1.
        -11    1    1    0    0    0  0.27678211882E-02 -0.18478522237E-02  0.40380530340E-03  0.33911018406E-02  0.51100000000E-03 0. -1.
        -14    1    1    0    0    0 -0.19959465969E-02 -0.21564309530E-03  0.12413340326E-02  0.23603421241E-02  0.00000000000E+00 0. -1.
         12    1    1    0    0    0  0.22469390988E-03 -0.24542417713E-02 -0.93127226318E-04  0.24662649301E-02  0.00000000000E+00 0.  1.
         14    1    1    0    0    0 -0.26434055803E-02  0.27290188000E-02  0.60795414105E-04  0.37998464120E-02  0.00000000000E+00 0.  1.
     999901    1    1    0    0    0 -0.78898683887E-02  0.13718509205E-01  0.53024869424E-02  0.90015474441E+00  0.90000000000E+00 0.  1.
     999903    1    1    0    0    0  0.95367054678E-02 -0.11929790915E-01 -0.69152944662E-02  0.26097700282E-01  0.20000000000E-01 0.  0.
</event>
<event>
 7    1  0.4717691E-066  0.9118800E+02  0.7957747E-01            NaN
     999900   -1    0    0    0    0  0.00000000000E+00  0.00000000000E+00  0.99999998245E-14  0.93827000000E+00  0.93827000000E+00 0. -1.
        -11    1    1    0    0    0  0.36330853485E-02 -0.47296425202E-02 -0.24345407465E-02  0.64619607833E-02  0.51100000000E-03 0. -1.
        -14    1    1    0    0    0  0.13835896692E-02  0.24203259941E-02  0.88120893011E-03  0.29238377980E-02  0.00000000000E+00 0. -1.
         12    1    1    0    0    0 -0.17543599209E-02 -0.16408167068E-03  0.26235043957E-02  0.31602969546E-02  0.00000000000E+00 0.  1.
         14    1    1    0    0    0  0.68294647499E-03 -0.94591876480E-03 -0.10627335122E-02  0.15781573798E-02  0.00000000000E+00 0.  1.
     999901    1    1    0    0    0 -0.26479499093E-02 -0.77614944263E-02  0.72796787786E-02  0.90006680094E+00  0.90000000000E+00 0.  1.
     999903    1    1    0    0    0 -0.12973116624E-02  0.11180811388E-01 -0.72871178457E-02  0.24078946143E-01  0.20000000000E-01 0.  0.
</event>
<event>
 7    1  0.4717691E-066  0.9118800E+02  0.7957747E-01            NaN
     999900   -1    0    0    0    0  0.00000000000E+00  0.00000000000E+00  0.99999998245E-14  0.93827000000E+00  0.93827000000E+00 0. -1.
        -11    1    1    0    0    0  0.52203744519E-02  0.36990922891E-02  0.19319829775E-02  0.67029301359E-02  0.51100000000E-03 0. -1.
        -14    1    1    0    0    0 -0.54857636066E-02  0.19338588132E-02  0.10330612543E-02  0.59076753306E-02  0.00000000000E+00 0. -1.
         12    1    1    0    0    0 -0.10670890142E-02 -0.20843749605E-02  0.37584672180E-03  0.23716152088E-02  0.00000000000E+00 0.  1.
         14    1    1    0    0    0  0.86778970016E-03 -0.47076220752E-03  0.39879212578E-04  0.98806192687E-03  0.00000000000E+00 0.  1.
     999901    1    1    0    0    0 -0.67427119430E-02  0.34871992887E-02 -0.25808638580E-02  0.90003571350E+00  0.90000000000E+00 0. -1.
     999903    1    1    0    0    0  0.72074004118E-02 -0.65650132230E-02 -0.79990630817E-03  0.22264003895E-01  0.20000000000E-01 0.  0.
</event>
<event>
 7    1  0.4717691E-066  0.9118800E+02  0.7957747E-01            NaN
     999900   -1    0    0    0    0  0.00000000000E+00  0.00000000000E+00  0.99999998245E-14  0.93827000000E+00  0.93827000000E+00 0.  1.
        -11    1    1    0    0    0 -0.10911907684E-02 -0.26290023276E-02 -0.28293691112E-03  0.29057743937E-02  0.51100000000E-03 0. -1.
        -14    1    1    0    0    0 -0.58130826030E-03  0.43341554090E-02  0.62872023332E-03  0.44179306846E-02  0.00000000000E+00 0. -1.
         12    1    1    0    0    0  0.13368767737E-02 -0.11009558243E-02 -0.26163186492E-02  0.31375892831E-02  0.00000000000E+00 0.  1.
         14    1    1    0    0    0 -0.37230759976E-03 -0.20285638938E-02  0.39921290482E-02  0.44934150439E-02  0.00000000000E+00 0.  1.
     999901    1    1    0    0    0  0.13306073596E-02  0.12931673979E-01  0.81039470504E-03  0.90009424809E+00  0.90000000000E+00 0. -1.
     999903    1    1    0    0    0 -0.62267750485E-03 -0.11507307342E-01 -0.25319884262E-02  0.23221042503E-01  0.20000000000E-01 0.  0.
</event>
<event>
 7    1  0.4717691E-066  0.9118800E+02  0.7957747E-01            NaN
     999900   -1    0    0    0    0  0.00000000000E+00  0.00000000000E+00  0.99999998245E-14  0.93827000000E+00  0.93827000000E+00 0.  1.
        -11    1    1    0    0    0 -0.15266636923E-02  0.12569132092E-02 -0.35408486085E-03  0.20729278650E-02  0.51100000000E-03 0. -1.
        -14    1    1    0    0    0  0.12283880895E-02 -0.10467420731E-02 -0.41263721565E-03  0.16657958271E-02  0.00000000000E+00 0. -1.
         12    1    1    0    0    0  0.25734904117E-03  0.38107855875E-02  0.20852413238E-02  0.43516142638E-02  0.00000000000E+00 0.  1.
         14    1    1    0    0    0 -0.21797099751E-02 -0.42776931834E-02  0.30254137480E-02  0.56747619240E-02  0.00000000000E+00 0.  1.
     999901    1    1    0    0    0  0.93993668375E-02 -0.91837916943E-02  0.30645247810E-02  0.90010115067E+00  0.90000000000E+00 0.  1.
     999903    1    1    0    0    0 -0.71787303007E-02  0.94405281540E-02 -0.74084577764E-02  0.24403749449E-01  0.20000000000E-01 0.  0.
</event>
<event>
 7    1  0.4717691E-066  0.9118800E+02  0.7957747E-01            NaN
     999900   -1    0    0    0    0  0.00000000000E+00  0.00000000000E+00  0.99999998245E-14  0.93827000000E+00  0.93827000000E+00 0. -1.
        -11    1    1    0    0    0 -0.13205464238E-02 -0.27118096808E-02 -0.41634783856E-02  0.51665682875E-02  0.51100000000E-03 0. -1.
        -14    1    1    0    0    0 -0.22814035767E-03 -0.65472281389E-03  0.45978221753E-02  0.46498041616E-02  0.00000000000E+00 0. -1.
         12    1    1    0    0    0 -0.47463835824E-03 -0.17824556206E-02  0.13616011902E-02  0.22926812713E-02  0.00000000000E+00 0.  1.
         14    1    1    0    0    0 -0.25710221305E-02  0.12503765702E-02 -0.15828495429E-02  0.32678753095E-02  0.00000000000E+00 0.  1.
     999901    1    1    0    0    0  0.97719292142E-02  0.24429043816E-02 -0.97104176020E-02  0.90010874376E+00  0.90000000000E+00 0.  1.
     999903    1    1    0    0    0 -0.51775819441E-02  0.14557071635E-02  0.94973221650E-02  0.22784327211E-01  0.20000000000E-01 0.  0.
</event>
<event>
 7    1  0.4717691E-066  0.9118800E+02  0.7957747E-01            NaN
     999900   -1    0    0    0    0  0.00000000000E+00  0.00000000000E+00  0.99999998245E-14  0.93827000000E+00  0.93827000000E+00 0.  1.
        -11    1    1    0    0    0  0.14441856363E-02  0.36995066061E-03 -0.11218473852E-02  0.19344762080E-02  0.51100000000E-03 0. -1.
        -14    1    1    0    0    0  0.96744564417E-03 -0.14895694438E-02  0.13594709171E-02  0.22367229101E-02  0.00000000000E+00 0. -1.
         12    1    1    0    0    0 -0.19163388385E-02  0.14901940056E-02  0.26725546848E-02  0.36104821370E-02  0.00000000000E+00 0.  1.
         14    1    1    0    0    0 -0.30512302403E-02  0.77723359773E-03 -0.56254975894E-02  0.64467294943E-02  0.00000000000E+00 0.  1.
     999901    1    1    0    0    0  0.52786509254E-02  0.19198428532E-02 -0.98444563278E-02  0.90007136566E+00  0.90000000000E+00 0. -1.
     999903    1    1    0    0    0 -0.27227131270E-02 -0.30676516734E-02  0.12559775701E-01  0.23970223595E-01  0.20000000000E-01 0.  0.
</event>
<event>
 7    1  0.4717691E-066  0.9118800E+02  0.7957747E-01            NaN
     999900   -1    0    0    0    0  0.00000000000E+00  0.00000000000E+00  0.99999998245E-14  0.93827000000E+00  0.93827000000E+00 0. -1.
        -11    1    1    0    0    0  0.24186331302E-02 -0.38015932886E-02 -0.35129896751E-02  0.57362108755E-02  0.51100000000E-03 0. -1.
        -14    1    1    0    0    0  0.22308656037E-03  0.10421580974E-02  0.42162779359E-02  0.43488918987E-02  0.00000000000E+00 0. -1.
         12    1    1    0    0    0 -0.84063522893E-03 -0.31040028313E-02 -0.41043834653E-03  0.32419069699E-02  0.00000000000E+00 0.  1.
         14    1    1    0    0    0  0.15136909536E-02 -0.17553363955E-02  0.17373281139E-02  0.28966834725E-02  0.00000000000E+00 0.  1.
     999901    1    1    0    0    0  0.10230762066E-02  0.15432764911E-01 -0.15137320282E-02  0.90013416128E+00  0.90000000000E+00 0. -1.
     999903    1    1    0    0    0 -0.43378516218E-02 -0.78139904928E-02 -0.51644599996E-03  0.21912145504E-01  0.20000000000E-01 0.  0.
</event>
<event>
 7    1  0.4717691E-066  0.9118800E+02  0.7957747E-01            NaN
     999900   -1    0    0    0    0  0.00000000000E+00  0.00000000000E+00  0.99999998245E-14  0.93827000000E+00  0.93827000000E+00 0.  1.
        -11    1    1    0    0    0 -0.17200227635E-02  0.11142859888E-02 -0.43972829638E-02  0.48782507147E-02  0.51100000000E-03 0. -1.
        -14    1    1    0    0    0 -0.11415038150E-02  0.68188153923E-03  0.34649094524E-02  0.37112788775E-02  0.00000000000E+00 0. -1.
         12    1    1    0    0    0 -0.69542997557E-03  0.33732771365E-02  0.14912270066E-02  0.37531825796E-02  0.00000000000E+00 0.  1.
         14    1    1    0    0    0 -0.23630049816E-03 -0.17543056203E-02  0.14544114513E-02  0.22910126155E-02  0.00000000000E+00 0.  1.
     999901    1    1    0    0    0  0.13096609108E-01 -0.18048725504E-02 -0.99114737548E-02  0.90015166280E+00  0.90000000000E+00 0. -1.
     999903    1    1    0    0    0 -0.93033520559E-02 -0.16102664938E-02  0.78982088083E-02  0.23484612410E-01  0.20000000000E-01 0.  0.
</event>
<event>
 7    1  0.4717691E-066  0.9118800E+02  0.7957747E-01            NaN
     999900   -1    0    0    0    0  0.00000000000E+00  0.00000000000E+00  0.99999998245E-14  0.93827000000E+00  0.93827000000E+00 0. -1.
        -11    1    1    0    0    0  0.10769236009E-02  0.15812651609E-02 -0.19171250209E-02  0.27562026952E-02  0.51100000000E-03 0. -1.
        -14    1    1    0    0    0  0.32250360405E-02 -0.16901330914E-02  0.12444074313E-02  0.38478509826E-02  0.00000000000E+00 0. -1.
         12    1    1    0    0    0  0.32640508711E-02 -0.30187801267E-02 -0.20381960765E-02  0.48909410944E-02  0.00000000000E+00 0.  1.
         14    1    1    0    0    0 -0.25184386480E-02 -0.24221835313E-02 -0.11837229196E-03  0.34962148508E-02  0.00000000000E+00 0.  1.
     999901    1    1    0    0    0 -0.88010839276E-02 -0.30477229667E-02 -0.43241337989E-02  0.90005857911E+00  0.90000000000E+00 0. -1.
     999903    1    1    0    0    0  0.37535120631E-02  0.85975545553E-02  0.71534197569E-02  0.23220211269E-01  0.20000000000E-01 0.  0.
</event>
<event>
 7    1  0.6209973E-066  0.9118800E+02  0.7957747E-01            NaN
     999900   -1    0    0    0    0  0.00000000000E+00  0.00000000000E+00  0.99999998245E-14  0.93827000000E+00  0.93827000000E+00 0.  1.
        -11    1    1    0    0    0 -0.27662543492E-02 -0.11975178657E-04 -0.14305725709E-02  0.31559412874E-02  0.51100000000E-03 0. -1.
        -14    1    1    0    0    0  0.13246628180E-04 -0.23883951198E-02  0.78649494357E-02  0.82196129074E-02  0.00000000000E+00 0. -1.
         12    1    1    0    0    0 -0.17038436280E-02 -0.41096618497E-02 -0.21365308746E-02  0.49352981476E-02  0.00000000000E+00 0.  1.
         14    1    1    0    0    0  0.67153199564E-03  0.11270239663E-03  0.10988180354E-02  0.12926941349E-02  0.00000000000E+00 0.  1.
     999901    1    1    0    0    0  0.22000165433E-02  0.66505932477E-02 -0.99915304211E-02  0.90008271906E+00  0.90000000000E+00 0. -1.
     999903    1    1    0    0    0  0.15853028101E-02 -0.25326349625E-03  0.45948663954E-02  0.20583734467E-01  0.20000000000E-01 0.  0.
</event>
<event>
 7    1  0.4717691E-066  0.9118800E+02  0.7957747E-01            NaN
     999900   -1    0    0    0    0  0.00000000000E+00  0.00000000000E+00  0.99999998245E-14  0.93827000000E+00  0.93827000000E+00 0.  1.
        -11    1    1    0    0    0  0.79976148361E-03  0.25840927247E-02 -0.25285005151E-02  0.37378589454E-02  0.51100000000E-03 0. -1.
        -14    1    1    0    0    0 -0.39773098726E-02 -0.14724330414E-02 -0.18648063417E-03  0.42452123517E-02  0.00000000000E+00 0. -1.
         12    1    1    0    0    0 -0.10905520357E-02  0.18279691438E-02  0.44381003381E-02  0.49221448114E-02  0.00000000000E+00 0.  1.
         14    1    1    0    0    0  0.19882329097E-04 -0.12746238329E-02 -0.16824276545E-02  0.21108349142E-02  0.00000000000E+00 0.  1.
     999901    1    1    0    0    0  0.10572332080E-01 -0.37102043507E-02 -0.95784912047E-02  0.90012070708E+00  0.90000000000E+00 0. -1.
     999903    1    1    0    0    0 -0.63241139839E-02  0.20451993564E-02  0.95377996704E-02  0.23133241896E-01  0.20000000000E-01 0.  0.
</event>
<event>
 7    1  0.4717691E-066  0.9118800E+02  0.7957747E-01            NaN
     999900   -1    0    0    0    0  0.00000000000E+00  0.00000000000E+00  0.99999998245E-14  0.93827000000E+00  0.93827000000E+00 0. -1.
        -11    1    1    0    0    0  0.10021023426E-02 -0.95070121283E-03  0.22070117829E-02  0.26533118760E-02  0.51100000000E-03 0. -1.
        -14    1    1    0    0    0  0.23595798758E-02  0.14065932326E-02 -0.27646938158E-02  0.38973906152E-02  0.00000000000E+00 0. -1.
         12    1    1    0    0    0 -0.21314178100E-02 -0.22931190332E-02  0.48973838573E-02  0.58125472408E-02  0.00000000000E+00 0.  1.
         14    1    1    0    0    0  0.14070101801E-02  0.50017052078E-03 -0.98000824071E-03  0.17861311118E-02  0.00000000000E+00 0.  1.
     999901    1    1    0    0    0  0.16246578147E-02 -0.84774793392E-02 -0.11230572929E-01  0.90011145584E+00  0.90000000000E+00 0.  1.
     999903    1    1    0    0    0 -0.42619324032E-02  0.98145358318E-02  0.78708793450E-02  0.24009163315E-01  0.20000000000E-01 0.  0.
</event>
<event>
 7    1  0.4717691E-066  0.9118800E+02  0.7957747E-01            NaN
     999900   -1    0    0    0    0  0.00000000000E+00  0.00000000000E+00  0.99999998245E-14  0.93827000000E+00  0.93827000000E+00 0.  1.
        -11    1    1    0    0    0  0.62136567362E-03  0.31837797913E-02 -0.70612843403E-03  0.33589116429E-02  0.51100000000E-03 0. -1.
        -14    1    1    0    0    0 -0.10794490455E-02  0.47114947282E-03  0.14284603446E-02  0.18514024478E-02  0.00000000000E+00 0. -1.
         12    1    1    0    0    0  0.12996786764E-02  0.47143885609E-02 -0.41131414833E-02  0.63900357610E-02  0.00000000000E+00 0.  1.
         14    1    1    0    0    0  0.81441657434E-03 -0.11480673457E-02  0.56176387169E-03  0.15155565427E-02  0.00000000000E+00 0.  1.
     999901    1    1    0    0    0  0.11479550246E-01 -0.80111643731E-02  0.99929426584E-02  0.90016432818E+00  0.90000000000E+00 0.  1.
     999903    1    1    0    0    0 -0.13135562125E-01  0.78991389381E-03 -0.71638969575E-02  0.24989765424E-01  0.20000000000E-01 0.  0.
</event>
<event>
 7    1  0.4717691E-066  0.9118800E+02  0.7957747E-01            NaN
     999900   -1    0    0    0    0  0.00000000000E+00  0.00000000000E+00  0.99999998245E-14  0.93827000000E+00  0.93827000000E+00 0. -1.
        -11    1    1    0    0    0 -0.28549021248E-02  0.15403128328E-02  0.47683241175E-02  0.57897379608E-02  0.51100000000E-03 0. -1.
        -14    1    1    0    0    0  0.55346473049E-02 -0.19951631152E-02 -0.45217792663E-02  0.74202078393E-02  0.00000000000E+00 0. -1.
         12    1    1    0    0    0 -0.41676381568E-03  0.55164898159E-03 -0.18973952003E-03  0.71694474153E-03  0.00000000000E+00 0.  1.
         14    1    1    0    0    0  0.30530269015E-02  0.12776766667E-02 -0.69515567235E-03  0.33818149468E-02  0.00000000000E+00 0.  1.
     999901    1    1    0    0    0 -0.94247880259E-02 -0.58041851657E-02  0.73892147173E-03  0.90006836474E+00  0.90000000000E+00 0.  1.
     999903    1    1    0    0    0  0.41087797599E-02  0.44297097998E-02 -0.10057113049E-03  0.20892929775E-01  0.20000000000E-01 0.  0.
</event>
<event>
 7    1  0.4717691E-066  0.9118800E+02  0.7957747E-01            NaN
     999900   -1    0    0    0    0  0.00000000000E+00  0.00000000000E+00  0.99999998245E-14  0.93827000000E+00  0.93827000000E+00 0. -1.
        -11    1    1    0    0    0 -0.29535034536E-02  0.30655174258E-02 -0.22026434529E-03  0.42930428742E-02  0.51100000000E-03 0. -1.
        -14    1    1    0    0    0  0.18526644527E-02 -0.90438867945E-03  0.43188358819E-03  0.21063731605E-02  0.00000000000E+00 0. -1.
         12    1    1    0    0    0  0.30675476726E-02  0.13361963970E-02 -0.11185539279E-02  0.35279501732E-02  0.00000000000E+00 0.  1.
         14    1    1    0    0    0  0.36122875319E-03  0.25588379114E-02  0.62614121008E-03  0.26589829792E-02  0.00000000000E+00 0.  1.
     999901    1    1    0    0    0  0.10913891519E-02  0.84695422458E-02  0.60966409739E-02  0.90006116087E+00  0.90000000000E+00 0. -1.
     999903    1    1    0    0    0 -0.34193265768E-02 -0.14525705301E-01 -0.58158474989E-02  0.25622489942E-01  0.20000000000E-01 0.  0.
</event>
<event>
 7    1  0.4717691E-066  0.9118800E+02  0.7957747E-01            NaN
     999900   -1    0    0    0    0  0.00000000000E+00  0.00000000000E+00  0.99999998245E-14  0.93827000000E+00  0.93827000000E+00 0. -1.
        -11    1    1    0    0    0  0.41931196068E-02 -0.38724409070E-02  0.11790084323E-02  0.58505753989E-02  0.51100000000E-03 0. -1.
        -14    1    1    0    0    0  0.40468062890E-02  0.55350298418E-02 -0.50209771669E-02  0.84984356326E-02  0.00000000000E+00 0. -1.
         12    1    1    0    0    0 -0.67928662146E-03  0.12575678785E-03 -0.17960238642E-03  0.71379415870E-03  0.00000000000E+00 0.  1.
         14    1    1    0    0    0  0.12993422127E-02  0.20093380250E-03 -0.14295786229E-03  0.13225360218E-02  0.00000000000E+00 0.  1.
     999901    1    1    0    0    0 -0.67477684027E-02  0.30875650702E-02  0.10836663069E-01  0.90009582751E+00  0.90000000000E+00 0. -1.
     999903    1    1    0    0    0 -0.21122130843E-02 -0.50768445953E-02 -0.66721340855E-02  0.21788831277E-01  0.20000000000E-01 0.  0.
</event>
<event>
 7    1  0.4717691E-066  0.9118800E+02  0.7957747E-01            NaN
     999900   -1    0    0    0    0  0.00000000000E+00  0.00000000000E+00  0.99999998245E-14  0.93827000000E+00  0.93827000000E+00 0. -1.
        -11    1    1    0    0    0  0.53100310501E-02 -0.18899566900E-03 -0.20404075818E-02  0.57145895054E-02  0.51100000000E-03 0. -1.
        -14    1    1    0    0    0  0.65063280806E-03 -0.36580680614E-02 -0.18648015094E-02  0.41571949272E-02  0.00000000000E+00 0. -1.
         12    1    1    0    0    0  0.20484587913E-03 -0.20648381656E-02 -0.82038393087E-03  0.22312660707E-02  0.00000000000E+00 0.  1.
         14    1    1    0    0    0 -0.17863133363E-02 -0.95424533377E-03 -0.96057643133E-04  0.20274926790E-02  0.00000000000E+00 0.  1.
     999901    1    1    0    0    0  0.47987302980E-03 -0.56495907932E-02  0.56780570498E-02  0.90003577067E+00  0.90000000000E+00 0. -1.
     999903    1    1    0    0    0 -0.48590694308E-02  0.12515738023E-01 -0.85640638457E-03  0.24103686147E-01  0.20000000000E-01 0.  0.
</event>
<event>
 7    1  0.4717691E-066  0.9118800E+02  0.7957747E-01            NaN
     999900   -1    0    0    0    0  0.00000000000E+00  0.00000000000E+00  0.99999998245E-14  0.93827000000E+00  0.93827000000E+00 0.  1.
        -11    1    1    0    0    0  0.29838396707E-02 -0.20744814350E-02  0.48240378591E-02  0.60612898520E-02  0.51100000000E-03 0. -1.
        -14    1    1    0    0    0 -0.77474324393E-03  0.14086491408E-03  0.31300774349E-02  0.32276082114E-02  0.00000000000E+00 0. -1.
         12    1    1    0    0    0 -0.13966559985E-02 -0.32819867693E-02 -0.12754045666E-02  0.37879733289E-02  0.00000000000E+00 0.  1.
         14    1    1    0    0    0  0.70517281103E-03  0.73021352023E-03 -0.27211597111E-03  0.10509650709E-02  0.00000000000E+00 0.  1.
     999901    1    1    0    0    0 -0.29942584072E-02  0.13117745140E-01  0.36405987664E-02  0.90010793507E+00  0.90000000000E+00 0. -1.
     999903    1    1    0    0    0  0.14766451678E-02 -0.86323553704E-02 -0.10047193523E-01  0.24034228464E-01  0.20000000000E-01 0.  0.
</event>
<event>
 7    1  0.4717691E-066  0.9118800E+02  0.7957747E-01            NaN
     999900   -1    0    0    0    0  0.00000000000E+00  0.00000000000E+00  0.99999998245E-14  0.93827000000E+00  0.93827000000E+00 0.  1.
        -11    1    1    0    0    0 -0.22706401891E-02  0.65828332705E-03  0.11413385384E-02  0.26744940580E-02  0.51100000000E-03 0. -1.
        -14    1    1    0    0    0  0.14600224721E-02 -0.24170028387E-02  0.48601513723E-02  0.56209109318E-02  0.00000000000E+00 0. -1.
         12    1    1    0    0    0 -0.24056348064E-02  0.20422569605E-02  0.23620392018E-02  0.39417155536E-02  0.00000000000E+00 0.  1.
         14    1    1    0    0    0  0.26661282325E-02  0.23938239443E-02  0.16748218503E-02  0.39552068289E-02  0.00000000000E+00 0.  1.
     999901    1    1    0    0    0 -0.29878298004E-02  0.20235609916E-02 -0.28068032712E-02  0.90001161108E+00  0.90000000000E+00 0. -1.
     999903    1    1    0    0    0  0.35379540911E-02 -0.47009223848E-02 -0.72315476916E-02  0.22066061552E-01  0.20000000000E-01 0.  0.
</event>
<event>
 7    1  0.4717691E-066  0.9118800E+02  0.7957747E-01            NaN
     999900   -1    0    0    0    0  0.00000000000E+00  0.00000000000E+00  0.99999998245E-14  0.93827000000E+00  0.93827000000E+00 0.  1.
        -11    1    1    0    0    0  0.40043508391E-03  0.27887906984E-05 -0.37882645101E-03  0.75165584796E-03  0.51100000000E-03 0. -1.
        -14    1    1    0    0    0 -0.19787160759E-02  0.15216819407E-02 -0.14349466803E-02  0.28792195493E-02  0.00000000000E+00 0. -1.
         12    1    1    0    0    0 -0.20546087753E-02  0.31730375061E-02  0.15174701049E-02  0.40733646723E-02  0.00000000000E+00 0.  1.
         14    1    1    0    0    0  0.40863575526E-02 -0.54207219501E-02  0.55289344165E-04  0.67886376704E-02  0.00000000000E+00 0.  1.
     999901    1    1    0    0    0  0.66903390309E-02 -0.22762422758E-02  0.10301119295E-01  0.90008669303E+00  0.90000000000E+00 0.  1.
     999903    1    1    0    0    0 -0.71438068162E-02  0.29994559884E-02 -0.10060105613E-01  0.23690429228E-01  0.20000000000E-01 0.  0.
</event>
<event>
 7    1  0.4717691E-066  0.9118800E+02  0.7957747E-01            NaN
     999900   -1    0    0    0    0  0.00000000000E+00  0.00000000000E+00  0.99999998245E-14  0.93827000000E+00  0.93827000000E+00 0. -1.
        -11    1    1    0    0    0 -0.22968783512E-02  0.27132588582E-04 -0.25950297903E-02  0.35030967658E-02  0.51100000000E-03 0. -1.
        -14    1    1    0    0    0 -0.10027639358E-03  0.32446165062E-03  0.11362402759E-02  0.11859058489E-02  0.00000000000E+00 0. -1.
         12    1    1    0    0    0 -0.59392940981E-03  0.12194501501E-02  0.12533382827E-03  0.13621745045E-02  0.00000000000E+00 0.  1.
         14    1    1    0    0    0 -0.73535652805E-02 -0.47899522602E-02  0.14405188504E-02  0.88934616178E-02  0.00000000000E+00 0.  1.
     999901    1    1    0    0    0  0.16125772947E-01  0.13111182890E-01 -0.13758387837E-02  0.90024098807E+00  0.90000000000E+00 0. -1.
     999903    1    1    0    0    0 -0.57811235120E-02 -0.98922750190E-02  0.12687756195E-02  0.23084373192E-01  0.20000000000E-01 0.  0.
</event>
<event>
 7    1  0.4717691E-066  0.9118800E+02  0.7957747E-01            NaN
     999900   -1    0    0    0    0  0.00000000000E+00  0.00000000000E+00  0.99999998245E-14  0.93827000000E+00  0.93827000000E+00 0. -1.
        -11    1    1    0    0    0 -0.22866280181E-03  0.30556702400E-02 -0.39031465892E-02  0.49884949223E-02  0.51100000000E-03 0. -1.
        -14    1    1    0    0    0 -0.17831204399E-02  0.35847988133E-02  0.33849155267E-03  0.40180688852E-02  0.00000000000E+00 0. -1.
         12    1    1    0    0    0  0.14020673845E-02 -0.70851638326E-03  0.15371231734E-02  0.21978480535E-02  0.00000000000E+00 0.  1.
         14    1    1    0    0    0 -0.81557373090E-03  0.14179841725E-02  0.11019751431E-02  0.19723561646E-02  0.00000000000E+00 0.  1.
     999901    1    1    0    0    0  0.15422748809E-01 -0.82195142257E-02 -0.39796298403E-02  0.90017845956E+00  0.90000000000E+00 0.  1.
     999903    1    1    0    0    0 -0.13997459221E-01  0.86957738310E-03  0.49051865603E-02  0.24914772418E-01  0.20000000000E-01 0.  0.
</event>
<event>
 7    1  0.4717691E-066  0.9118800E+02  0.7957747E-01            NaN
     999900   -1    0    0    0    0  0.00000000000E+00  0.00000000000E+00  0.99999998245E-14  0.93827000000E+00  0.93827000000E+00 0.  1.
        -11    1    1    0    0    0 -0.27364444723E-02  0.66594660718E-03 -0.14880785754E-03  0.28661608490E-02  0.51100000000E-03 0. -1.
        -14    1    1    0    0    0  0.87309929765E-03 -0.56228713714E-03 -0.18071390509E-03  0.10540999590E-02  0.00000000000E+00 0. -1.
         12    1    1    0    0    0 -0.18440280151E-02  0.52230078583E-03  0.25421540827E-02  0.31836747339E-02  0.00000000000E+00 0.  1.
         14    1    1    0    0    0 -0.75839694164E-02  0.31493409683E-03  0.10633107622E-02  0.76646203670E-02  0.00000000000E+00 0.  1.
     999901    1    1    0    0    0  0.24957363037E-02 -0.93475942275E-02 -0.19563468743E-02  0.90005412810E+00  0.90000000000E+00 0. -1.
     999903    1    1    0    0    0  0.87956063024E-02  0.84066998748E-02 -0.13195962080E-02  0.23447315991E-01  0.20000000000E-01 0.  0.
</event>
<event>
 7    1  0.4717691E-066  0.9118800E+02  0.7957747E-01            NaN
     999900   -1    0    0    0    0  0.00000000000E+00  0.00000000000E+00  0.99999998245E-14  0.93827000000E+00  0.93827000000E+00 0.  1.
        -11    1    1    0    0    0  0.48345316958E-03  0.78946728997E-03  0.16824167623E-03  0.10707062299E-02  0.51100000000E-03 0. -1.
        -14    1    1    0    0    0 -0.64502655482E-02 -0.38242932250E-02 -0.13776101555E-02  0.76242346537E-02  0.00000000000E+00 0. -1.
         12    1    1    0    0    0 -0.14437410690E-02  0.40238563596E-02  0.81322998035E-03  0.43516837291E-02  0.00000000000E+00 0.  1.
         14    1    1    0    0    0  0.16690407240E-02 -0.13248043164E-02  0.17408140649E-03  0.21380149090E-02  0.00000000000E+00 0.  1.
     999901    1    1    0    0    0  0.11593579447E-03 -0.27151636786E-02  0.96767094079E-02  0.90005612284E+00  0.90000000000E+00 0.  1.
     999903    1    1    0    0    0  0.56255769292E-02  0.30509375704E-02 -0.94546523155E-02  0.23029237639E-01  0.20000000000E-01 0.  0.
</event>
<event>
 7    1  0.4717691E-066  0.9118800E+02  0.7957747E-01            NaN
     999900   -1    0    0    0    0  0.00000000000E+00  0.00000000000E+00  0.99999998245E-14  0.93827000000E+00  0.93827000000E+00 0.  1.
        -11    1    1    0    0    0 -0.22596747728E-02 -0.15299120667E-02 -0.20855521482E-02  0.34723781150E-02  0.51100000000E-03 0. -1.
        -14    1    1    0    0    0  0.13248331703E-02  0.87926812709E-03  0.83406930666E-03  0.17955408591E-02  0.00000000000E+00 0. -1.
         12    1    1    0    0    0 -0.13271755791E-02 -0.26197030466E-02  0.23139011843E-02  0.37387668770E-02  0.00000000000E+00 0.  1.
         14    1    1    0    0    0  0.11517196248E-02  0.15010226352E-02  0.18530450862E-02  0.26482641743E-02  0.00000000000E+00 0.  1.
     999901    1    1    0    0    0 -0.15800955118E-02  0.18335316696E-01 -0.68323168988E-02  0.90021406404E+00  0.90000000000E+00 0. -1.
     999903    1    1    0    0    0  0.26903930686E-02 -0.16565992345E-01  0.39168534698E-02  0.26400985935E-01  0.20000000000E-01 0.  0.
</event>
<event>
 7    1  0.4717691E-066  0.9118800E+02  0.7957747E-01            NaN
     999900   -1    0    0    0    0  0.00000000000E+00  0.00000000000E+00  0.99999998245E-14  0.93827000000E+00  0.93827000000E+00 0. -1.
        -11    1    1    0    0    0 -0.27095745984E-03  0.10234613259E-02 -0.35071174295E-02  0.36989031746E-02  0.51100000000E-03 0. -1.
        -14    1    1    0    0    0  0.12557345132E-03 -0.24195152147E-02  0.45928753909E-02  0.51927186446E-02  0.00000000000E+00 0. -1.
         12    1    1    0    0    0  0.36308754368E-03 -0.30181215265E-03 -0.14439895914E-02  0.15192198919E-02  0.00000000000E+00 0.  1.
         14    1    1    0    0    0 -0.56888164400E-02 -0.14590785398E-02  0.18117903726E-02  0.61460659797E-02  0.00000000000E+00 0.  1.
     999901    1    1    0    0    0  0.94895266388E-02  0.10168696554E-01 -0.26058266767E-02  0.90011123970E+00  0.90000000000E+00 0. -1.
     999903    1    1    0    0    0 -0.40184137340E-02 -0.70117519726E-02  0.11522679341E-02  0.21601852607E-01  0.20000000000E-01 0.  0.
</event>
<event>
 7    1  0.4717691E-066  0.9118800E+02  0.7957747E-01            NaN
     999900   -1    0    0    0    0  0.00000000000E+00  0.00000000000E+00  0.99999998245E-14  0.93827000000E+00  0.93827000000E+00 0.  1.
        -11    1    1    0    0    0  0.26814055721E-02 -0.60318635872E-03  0.17528824982E-02  0.32996193232E-02  0.51100000000E-03 0. -1.
        -14    1    1    0    0    0 -0.58545975599E-03  0.64486337657E-03  0.19841359454E-05  0.87098555505E-03  0.00000000000E+00 0. -1.
         12    1    1    0    0    0  0.28872205770E-02  0.75973021546E-03 -0.58842484880E-03  0.30429387873E-02  0.00000000000E+00 0.  1.
         14    1    1    0    0    0 -0.17376464687E-02  0.17951652615E-02  0.56980296017E-02  0.62217019302E-02  0.00000000000E+00 0.  1.
     999901    1    1    0    0    0  0.30917449903E-03  0.11121787826E-01 -0.99918983207E-02  0.90012422908E+00  0.90000000000E+00 0. -1.
     999903    1    1    0    0    0 -0.35546944234E-02 -0.13718360321E-01  0.31274269336E-02  0.24710525320E-01  0.20000000000E-01 0.  0.
</event>
<event>
 7    1  0.4717691E-066  0.9118800E+02  0.7957747E-01            NaN
     999900   -1    0    0    0    0  0.00000000000E+00  0.00000000000E+00  0.99999998245E-14  0.93827000000E+00  0.93827000000E+00 0. -1.
        -11    1    1    0    0    0 -0.16149992629E-02  0.15731742681E-02  0.12278320464E-02  0.26175928697E-02  0.51100000000E-03 0. -1.
        -14    1    1    0    0    0 -0.43652401306E-02 -0.64403211890E-02  0.46127446621E-02  0.90449141363E-02  0.00000000000E+00 0. -1.
         12    1    1    0    0    0 -0.13828118629E-03  0.33798716723E-02 -0.89340928289E-03  0.34986903771E-02  0.00000000000E+00 0.  1.
         14    1    1    0    0    0 -0.60959513790E-03  0.10239104726E-02  0.43442333625E-03  0.12683542578E-02  0.00000000000E+00 0.  1.
     999901    1    1    0    0    0  0.92175605577E-02  0.52240449865E-02 -0.11864190313E-01  0.90014055185E+00  0.90000000000E+00 0.  1.
     999903    1    1    0    0    0 -0.24894448400E-02 -0.47606802106E-02  0.64825995508E-02  0.21699896512E-01  0.20000000000E-01 0.  0.
</event>
<event>
 7    1  0.4717691E-066  0.9118800E+02  0.7957747E-01            NaN
     999900   -1    0    0    0    0  0.00000000000E+00  0.00000000000E+00  0.99999998245E-14  0.93827000000E+00  0.93827000000E+00 0.  1.
        -11    1    1    0    0    0  0.71914155548E-03 -0.20771766918E-02 -0.20702718164E-02  0.30625110578E-02  0.51100000000E-03 0. -1.
        -14    1    1    0    0    0 -0.36102927559E-03 -0.91792669795E-04 -0.90211114948E-03  0.97599823672E-03  0.00000000000E+00 0. -1.
         12    1    1    0    0    0 -0.66877591466E-02 -0.17115539728E-02 -0.40093453945E-02  0.79831315846E-02  0.00000000000E+00 0.  1.
         14    1    1    0    0    0  0.18212387824E-02  0.14188141093E-02  0.39438940856E-02  0.45699283077E-02  0.00000000000E+00 0.  1.
     999901    1    1    0    0    0 -0.30227696955E-02  0.19053897612E-02 -0.51355941087E-03  0.90000723963E+00  0.90000000000E+00 0. -1.
     999903    1    1    0    0    0  0.75311777798E-02  0.55631946390E-03  0.35513936856E-02  0.21671191181E-01  0.20000000000E-01 0.  0.
</event>
<event>
 7    1  0.4717691E-066  0.9118800E+02  0.7957747E-01            NaN
     999900   -1    0    0    0    0  0.00000000000E+00  0.00000000000E+00  0.99999998245E-14  0.93827000000E+00  0.93827000000E+00 0.  1.
        -11    1    1    0    0    0 -0.19795261659E-03 -0.23147722222E-02  0.28275098238E-02  0.36950356538E-02  0.51100000000E-03 0. -1.
        -14    1    1    0    0    0 -0.43676684588E-03  0.25303914072E-03 -0.20541345038E-03  0.54496676045E-03  0.00000000000E+00 0. -1.
         12    1    1    0    0    0  0.24136103148E-02 -0.14902983475E-02 -0.72424001630E-03  0.29276317250E-02  0.00000000000E+00 0.  1.
         14    1    1    0    0    0 -0.82842297782E-02 -0.24352718597E-02  0.98538515541E-03  0.86907995002E-02  0.00000000000E+00 0.  1.
     999901    1    1    0    0    0 -0.31523380105E-02  0.41486663783E-02 -0.66055770068E-03  0.90001532487E+00  0.90000000000E+00 0.  1.
     999903    1    1    0    0    0  0.96576769363E-02  0.18386369103E-02 -0.22226838119E-02  0.22396241489E-01  0.20000000000E-01 0.  0.
</event>
<event>
 7    1  0.4717691E-066  0.9118800E+02  0.7957747E-01            NaN
     999900   -1    0    0    0    0  0.00000000000E+00  0.00000000000E+00  0.99999998245E-14  0.93827000000E+00  0.93827000000E+00 0.  1.
        -11    1    1    0    0    0 -0.10748839421E-02 -0.28342569072E-02 -0.18926566642E-02  0.36099387742E-02  0.51100000000E-03 0. -1.
        -14    1    1    0    0    0  0.13988751539E-02 -0.18996844360E-03 -0.26723871825E-03  0.14367867756E-02  0.00000000000E+00 0. -1.
         12    1    1    0    0    0  0.23327921731E-02 -0.64637740156E-03  0.39970439554E-02  0.46729095272E-02  0.00000000000E+00 0.  1.
         14    1    1    0    0    0  0.38054722953E-03  0.52132525873E-02 -0.40110681201E-02  0.65887393481E-02  0.00000000000E+00 0.  1.
     999901    1    1    0    0    0 -0.99732433725E-02  0.60587396855E-03  0.72606499665E-02  0.90008474585E+00  0.90000000000E+00 0.  1.
     999903    1    1    0    0    0  0.69359127579E-02 -0.21485238035E-02 -0.50867304193E-02  0.21876879729E-01  0.20000000000E-01 0.  0.
</event>
<event>
 7    1  0.4717691E-066  0.9118800E+02  0.7957747E-01            NaN
     999900   -1    0    0    0    0  0.00000000000E+00  0.00000000000E+00  0.99999998245E-14  0.93827000000E+00  0.93827000000E+00 0. -1.
        -11    1    1    0    0    0 -0.10082850732E-04 -0.11219935156E-02  0.41289372818E-03  0.13002204981E-02  0.51100000000E-03 0. -1.
        -14    1    1    0    0    0  0.51234812875E-03  0.14817732110E-02 -0.24950985908E-03  0.15875791709E-02  0.00000000000E+00 0. -1.
         12    1    1    0    0    0 -0.76746903294E-03 -0.16358342026E-02 -0.35446401409E-02  0.39786223726E-02  0.00000000000E+00 0.  1.
         14    1    1    0    0    0 -0.53383442255E-02 -0.23657330735E-02  0.26740182222E-03  0.58451788493E-02  0.00000000000E+00 0.  1.
     999901    1    1    0    0    0  0.11287269579E-02  0.21844378750E-03  0.17694358119E-01  0.90017465641E+00  0.90000000000E+00 0. -1.
     999903    1    1    0    0    0  0.44748210225E-02  0.34233437931E-02 -0.14580503670E-01  0.25383742694E-01  0.20000000000E-01 0.  0.
</event>
<event>
 7    1  0.4717691E-066  0.9118800E+02  0.7957747E-01            NaN
     999900   -1    0    0    0    0  0.00000000000E+00  0.00000000000E+00  0.99999998245E-14  0.93827000000E+00  0.93827000000E+00 0.  1.
        -11    1    1    0    0    0  0.87587014200E-03  0.21480067481E-02 -0.14506706052E-02  0.27832800255E-02  0.51100000000E-03 0. -1.
        -14    1    1    0    0    0 -0.90064271081E-03 -0.17758127342E-02  0.16189930779E-02  0.25662826707E-02  0.00000000000E+00 0. -1.
         12    1    1    0    0    0 -0.30706702082E-03 -0.75799608083E-03 -0.18597690050E-02  0.20316468605E-02  0.00000000000E+00 0.  1.
         14    1    1    0    0    0  0.31610937881E-03 -0.18584395275E-03  0.37356322728E-02  0.37535864972E-02  0.00000000000E+00 0.  1.
     999901    1    1    0    0    0 -0.99816094403E-02 -0.13159306522E-01  0.42089077775E-02  0.90016138263E+00  0.90000000000E+00 0. -1.
     999903    1    1    0    0    0  0.99973396512E-02  0.13730952542E-01 -0.62530935180E-02  0.26973821315E-01  0.20000000000E-01 0.  0.
</event>
<event>
 7    1  0.4717691E-066  0.9118800E+02  0.7957747E-01            NaN
     999900   -1    0    0    0    0  0.00000000000E+00  0.00000000000E+00  0.99999998245E-14  0.93827000000E+00  0.93827000000E+00 0.  1.
        -11    1    1    0    0    0 -0.28342838665E-03 -0.10793896127E-02  0.77288685384E-03  0.14504787745E-02  0.51100000000E-03 0. -1.
        -14    1    1    0    0    0  0.17357147167E-03  0.24335185008E-02 -0.57881517294E-03  0.25074222528E-02  0.00000000000E+00 0. -1.
         12    1    1    0    0    0  0.96255293094E-03 -0.35352362461E-02 -0.52560060415E-02  0.64070276235E-02  0.00000000000E+00 0.  1.
         14    1    1    0    0    0  0.14015762304E-02  0.40300094631E-02  0.62883224625E-03  0.43128670506E-02  0.00000000000E+00 0.  1.
     999901    1    1    0    0    0 -0.12830255838E-01  0.79659200112E-03  0.99846048323E-02  0.90014717816E+00  0.90000000000E+00 0. -1.
     999903    1    1    0    0    0  0.10575983592E-01 -0.26454941063E-02 -0.55515027180E-02  0.23445026134E-01  0.20000000000E-01 0.  0.
</event>
<event>
 7    1  0.4717691E-066  0.9118800E+02  0.7957747E-01            NaN
     999900   -1    0    0    0    0  0.00000000000E+00  0.00000000000E+00  0.99999998245E-14  0.93827000000E+00  0.93827000000E+00 0.  1.
        -11    1    1    0    0    0  0.99568349687E-03 -0.21666541501E-02  0.19269849457E-02  0.31080810500E-02  0.51100000000E-03 0. -1.
        -14    1    1    0    0    0 -0.57511798638E-02 -0.55792861332E-02 -0.53763907925E-02  0.96493565348E-02  0.00000000000E+00 0. -1.
         12    1    1    0    0    0 -0.38279544787E-03  0.18940144332E-02  0.73622884267E-03  0.20678142898E-02  0.00000000000E+00 0.  1.
         14    1    1    0    0    0 -0.15308447954E-02  0.79994348051E-04 -0.92352870472E-03  0.17896340832E-02  0.00000000000E+00 0.  1.
     999901    1    1    0    0    0  0.64698493860E-02  0.54840638639E-02 -0.45242232158E-02  0.90005133326E+00  0.90000000000E+00 0. -1.
     999903    1    1    0    0    0  0.19928722418E-03  0.28786763805E-03  0.81609289246E-02  0.21603780782E-01  0.20000000000E-01 0.  0.
</event>
<event>
 7    1  0.4717691E-066  0.9118800E+02  0.7957747E-01            NaN
     999900   -1    0    0    0    0  0.00000000000E+00  0.00000000000E+00  0.99999998245E-14  0.93827000000E+00  0.93827000000E+00 0. -1.
        -11    1    1    0    0    0  0.40950632401E-02  0.88370907909E-03 -0.92139260473E-03  0.43197881903E-02  0.51100000000E-03 0. -1.
        -14    1    1    0    0    0 -0.16626959585E-03 -0.10500620677E-02  0.40798443377E-03  0.11387393129E-02  0.00000000000E+00 0. -1.
         12    1    1    0    0    0 -0.18484173705E-02 -0.86369942645E-03 -0.20605701355E-04  0.20403548882E-02  0.00000000000E+00 0.  1.
         14    1    1    0    0    0  0.15104763202E-02 -0.30582631906E-02 -0.28990009974E-02  0.44764628044E-02  0.00000000000E+00 0.  1.
     999901    1    1    0    0    0  0.12346055116E-01  0.78020634678E-02 -0.73816861688E-03  0.90011879336E+00  0.90000000000E+00 0. -1.
     999903    1    1    0    0    0 -0.15936907710E-01 -0.37137478621E-02  0.41711834866E-02  0.26175861442E-01  0.20000000000E-01 0.  0.
</event>
<event>
 7    1  0.4717691E-066  0.9118800E+02  0.7957747E-01            NaN
     999900   -1    0    0    0    0  0.00000000000E+00  0.00000000000E+00  0.99999998245E-14  0.93827000000E+00  0.93827000000E+00 0.  1.
        -11    1    1    0    0    0 -0.88115743794E-03  0.32677799443E-02 -0.80276291021E-04  0.34237975229E-02  0.51100000000E-03 0. -1.
        -14    1    1    0    0    0 -0.65945258303E-03 -0.18549882512E-03 -0.15685748138E-02  0.17116408706E-02  0.00000000000E+00 0. -1.
         12    1    1    0    0    0 -0.78490862481E-02  0.95311202494E-03  0.26195924389E-02  0.83293962571E-02  0.00000000000E+00 0.  1.
         14    1    1    0    0    0  0.16969786841E-02  0.18586711301E-02 -0.67219312810E-03  0.26050410027E-02  0.00000000000E+00 0.  1.
     999901    1    1    0    0    0  0.14379865446E-01 -0.10788710762E-01  0.36887437513E-02  0.90018708258E+00  0.90000000000E+00 0. -1.
     999903    1    1    0    0    0 -0.66871478609E-02  0.48946464873E-02 -0.39872919573E-02  0.22013041769E-01  0.20000000000E-01 0.  0.
</event>
<event>
 7    1  0.4717691E-066  0.9118800E+02  0.7957747E-01            NaN
     999900   -1    0    0    0    0  0.00000000000E+00  0.00000000000E+00  0.99999998245E-14  0.93827000000E+00  0.93827000000E+00 0. -1.
        -11    1    1    0    0    0  0.13825900680E-02 -0.16254645948E-02 -0.11418814345E-02  0.24736015555E-02  0.51100000000E-03 0. -1.
        -14    1    1    0    0    0 -0.67015461574E-03  0.76746886602E-02 -0.14520797360E-02  0.78395464664E-02  0.00000000000E+00 0. -1.
         12    1    1    0    0    0 -0.71733740581E-03  0.29129601847E-03  0.14310167209E-02  0.16270326302E-02  0.00000000000E+00 0.  1.
         14    1    1    0    0    0 -0.95619202591E-03 -0.41229745895E-02 -0.41098463141E-03  0.42523089049E-02  0.00000000000E+00 0.  1.
     999901    1    1    0    0    0 -0.27447856662E-03  0.62353549574E-02 -0.20835043873E-02  0.90002405300E+00  0.90000000000E+00 0.  1.
     999903    1    1    0    0    0  0.12355725461E-02 -0.84529004518E-02  0.36574334683E-02  0.22053457442E-01  0.20000000000E-01 0.  0.
</event>
<event>
 7    1  0.4717691E-066  0.9118800E+02  0.7957747E-01            NaN
     999900   -1    0    0    0    0  0.00000000000E+00  0.00000000000E+00  0.99999998245E-14  0.93827000000E+00  0.93827000000E+00 0. -1.
        -11    1    1    0    0    0  0.17733075927E-03 -0.17455828867E-02  0.96333236402E-03  0.20658257565E-02  0.51100000000E-03 0. -1.
        -14    1    1    0    0    0 -0.60905821420E-02  0.54481905177E-03 -0.19109017529E-02  0.64065251218E-02  0.00000000000E+00 0. -1.
         12    1    1    0    0    0  0.34906000586E-02 -0.18719636296E-03 -0.14198163207E-03  0.34984982537E-02  0.00000000000E+00 0.  1.
         14    1    1    0    0    0 -0.95545297367E-03  0.47934673946E-03  0.16542115507E-02  0.19695378991E-02  0.00000000000E+00 0.  1.
     999901    1    1    0    0    0  0.33106065420E-02  0.44741600725E-02  0.12629083329E-01  0.90010581154E+00  0.90000000000E+00 0. -1.
     999903    1    1    0    0    0  0.67497755788E-04 -0.35655466140E-02 -0.13193743859E-01  0.24223801428E-01  0.20000000000E-01 0.  0.
</event>
<event>
 7    1  0.4717691E-066  0.9118800E+02  0.7957747E-01            NaN
     999900   -1    0    0    0    0  0.00000000000E+00  0.00000000000E+00  0.99999998245E-14  0.93827000000E+00  0.93827000000E+00 0.  1.
        -11    1    1    0    0    0  0.34969371209E-03  0.51450314320E-02 -0.19840152047E-02  0.55489703064E-02  0.51100000000E-03 0. -1.
        -14    1    1    0    0    0  0.11070096985E-03 -0.99684902215E-03 -0.16523530180E-02  0.19329338255E-02  0.00000000000E+00 0. -1.
         12    1    1    0    0    0 -0.18461913939E-02 -0.53193623728E-02 -0.32938907196E-02  0.65233239065E-02  0.00000000000E+00 0.  1.
         14    1    1    0    0    0 -0.20930642231E-02  0.62527187287E-03 -0.11988590545E-02  0.24918157616E-02  0.00000000000E+00 0.  1.
     999901    1    1    0    0    0  0.68975513083E-02  0.81651123480E-02  0.80210881778E-02  0.90009920738E+00  0.90000000000E+00 0.  1.
     999903    1    1    0    0    0 -0.34186903732E-02 -0.76192042579E-02  0.10802981916E-03  0.21673748818E-01  0.20000000000E-01 0.  0.
</event>
<event>
 7    1  0.4717691E-066  0.9118800E+02  0.7957747E-01            NaN
     999900   -1    0    0    0    0  0.00000000000E+00  0.00000000000E+00  0.99999998245E-14  0.93827000000E+00  0.93827000000E+00 0.  1.
        -11    1    1    0    0    0 -0.15391181948E-02 -0.47686714596E-03  0.20626415010E-02  0.26668142144E-02  0.51100000000E-03 0. -1.
        -14    1    1    0    0    0 -0.94197602558E-03  0.16974232634E-02 -0.85789437587E-03  0.21223918884E-02  0.00000000000E+00 0. -1.
         12    1    1    0    0    0  0.59693110069E-03 -0.26536201172E-02  0.21278136513E-02  0.34533487226E-02  0.00000000000E+00 0.  1.
         14    1    1    0    0    0 -0.10781840269E-02 -0.83513447093E-02 -0.33077767154E-02  0.90470341023E-02  0.00000000000E+00 0.  1.
     999901    1    1    0    0    0  0.74024636106E-02  0.11971240167E-01  0.32657686663E-02  0.90011597714E+00  0.90000000000E+00 0. -1.
     999903    1    1    0    0    0 -0.44401164640E-02 -0.21868314575E-02 -0.32905527275E-02  0.20864433932E-01  0.20000000000E-01 0.  0.
</event>
<event>
 7    1  0.4717691E-066  0.9118800E+02  0.7957747E-01            NaN
     999900   -1    0    0    0    0  0.00000000000E+00  0.00000000000E+00  0.99999998245E-14  0.93827000000E+00  0.93827000000E+00 0.  1.
        -11    1    1    0    0    0  0.30012019227E-02  0.28270063588E-02  0.28571591340E-02  0.50421877445E-02  0.51100000000E-03 0. -1.
        -14    1    1    0    0    0 -0.49644576049E-03 -0.98464667143E-03 -0.28297545011E-02  0.30370212375E-02  0.00000000000E+00 0. -1.
         12    1    1    0    0    0 -0.24144630215E-02 -0.38105546995E-02 -0.51836375331E-04  0.45113906736E-02  0.00000000000E+00 0.  1.
         14    1    1    0    0    0  0.82997583142E-03  0.16842016984E-02 -0.29199581943E-04  0.18778306253E-02  0.00000000000E+00 0.  1.
     999901    1    1    0    0    0 -0.12546592196E-02 -0.12394173121E-01 -0.11847038581E-02  0.90008699203E+00  0.90000000000E+00 0. -1.
     999903    1    1    0    0    0  0.33439024744E-03  0.12678166435E-01  0.12383351824E-02  0.23714577690E-01  0.20000000000E-01 0.  0.
</event>
<event>
 7    1  0.4717691E-066  0.9118800E+02  0.7957747E-01            NaN
     999900   -1    0    0    0    0  0.00000000000E+00  0.00000000000E+00  0.99999998245E-14  0.93827000000E+00  0.93827000000E+00 0.  1.
        -11    1    1    0    0    0  0.33726829569E-02  0.39576083304E-03 -0.51993615271E-02  0.62310591599E-02  0.51100000000E-03 0. -1.
        -14    1    1    0    0    0 -0.18042505480E-03 -0.27237145847E-02  0.30979280983E-02  0.41289626834E-02  0.00000000000E+00 0. -1.
         12    1    1    0    0    0  0.71166840725E-03  0.60980743972E-03  0.35281471335E-02  0.36505012301E-02  0.00000000000E+00 0.  1.
         14    1    1    0    0    0 -0.11168667735E-02 -0.87937520378E-03 -0.68433662953E-03  0.15776592665E-02  0.00000000000E+00 0.  1.
     999901    1    1    0    0    0 -0.64819352732E-02  0.47740476984E-02 -0.10321858200E-01  0.90009518817E+00  0.90000000000E+00 0. -1.
     999903    1    1    0    0    0  0.36948757373E-02 -0.21765261827E-02  0.95794811249E-02  0.22586629487E-01  0.20000000000E-01 0.  0.
</event>
<event>
 7    1  0.4717691E-066  0.9118800E+02  0.7957747E-01            NaN
     999900   -1    0    0    0    0  0.00000000000E+00  0.00000000000E+00  0.99999998245E-14  0.93827000000E+00  0.93827000000E+00 0.  1.
        -11    1    1    0    0    0  0.18302284400E-02 -0.34123346023E-02  0.73673227157E-03  0.39746269033E-02  0.51100000000E-03 0. -1.
        -14    1    1    0    0    0 -0.34548698152E-02  0.36057860913E-03 -0.14049972784E-02  0.37470201128E-02  0.00000000000E+00 0. -1.
         12    1    1    0    0    0  0.11914785719E-03 -0.26242598512E-02 -0.14218335859E-02  0.29870632274E-02  0.00000000000E+00 0.  1.
         14    1    1    0    0    0 -0.12809609303E-02 -0.30136150901E-03  0.16370386031E-02  0.21003749790E-02  0.00000000000E+00 0.  1.
     999901    1    1    0    0    0 -0.83436970261E-02 -0.21287914433E-02  0.78577470827E-02  0.90007549307E+00  0.90000000000E+00 0.  1.
     999903    1    1    0    0    0  0.11130151474E-01  0.81061687967E-02 -0.74046870931E-02  0.25385421709E-01  0.20000000000E-01 0.  0.
</event>
<event>
 7    1  0.4717691E-066  0.9118800E+02  0.7957747E-01            NaN
     999900   -1    0    0    0    0  0.00000000000E+00  0.00000000000E+00  0.99999998245E-14  0.93827000000E+00  0.93827000000E+00 0.  1.
        -11    1    1    0    0    0  0.20471134976E-02 -0.83743554701E-03  0.24737309716E-02  0.33574451429E-02  0.51100000000E-03 0. -1.
        -14    1    1    0    0    0 -0.40804294003E-02  0.21931924176E-03 -0.80980062042E-03  0.41657870884E-02  0.00000000000E+00 0. -1.
         12    1    1    0    0    0 -0.14760024537E-02 -0.43792054368E-02 -0.10139970776E-02  0.47311957870E-02  0.00000000000E+00 0.  1.
         14    1    1    0    0    0  0.24084135091E-03  0.39785514277E-04  0.11678629844E-02  0.11931015857E-02  0.00000000000E+00 0.  1.
     999901    1    1    0    0    0 -0.18716084309E-02 -0.70245844229E-02  0.48204807768E-02  0.90004226831E+00  0.90000000000E+00 0.  1.
     999903    1    1    0    0    0  0.51400854365E-02  0.11982120651E-01 -0.66382770347E-02  0.24780202089E-01  0.20000000000E-01 0.  0.
</event>
<event>
 7    1  0.4717691E-066  0.9118800E+02  0.7957747E-01            NaN
     999900   -1    0    0    0    0  0.00000000000E+00  0.00000000000E+00  0.99999998245E-14  0.93827000000E+00  0.93827000000E+00 0. -1.
        -11    1    1    0    0    0 -0.31125878838E-02  0.33599077702E-03 -0.60313826643E-03  0.32289301487E-02  0.51100000000E-03 0. -1.
        -14    1    1    0    0    0  0.25796514551E-02 -0.21143118961E-03  0.55623678872E-02  0.61350828267E-02  0.00000000000E+00 0. -1.
         12    1    1    0    0    0 -0.18079647657E-02 -0.13563215163E-02 -0.21524441696E-02  0.31211152738E-02  0.00000000000E+00 0.  1.
         14    1    1    0    0    0  0.21140178915E-02 -0.50066288834E-03  0.18089193980E-02  0.28269991796E-02  0.00000000000E+00 0.  1.
     999901    1    1    0    0    0  0.33122106611E-03 -0.35558319528E-02  0.52863010198E-02  0.90002261006E+00  0.90000000000E+00 0. -1.
     999903    1    1    0    0    0 -0.10433776318E-03  0.52882567700E-02 -0.99020058690E-02  0.22935262507E-01  0.20000000000E-01 0.  0.
</event>
<event>
 7    1  0.4717691E-066  0.9118800E+02  0.7957747E-01            NaN
     999900   -1    0    0    0    0  0.00000000000E+00  0.00000000000E+00  0.99999998245E-14  0.93827000000E+00  0.93827000000E+00 0. -1.
        -11    1    1    0    0    0  0.29904702686E-02 -0.30609542491E-02  0.30571842318E-02  0.52839237096E-02  0.51100000000E-03 0. -1.
        -14    1    1    0    0    0  0.17873833336E-03  0.21740409547E-02  0.14675465869E-02  0.26290862384E-02  0.00000000000E+00 0. -1.
         12    1    1    0    0    0  0.21468568245E-03 -0.29566952324E-02 -0.11019069600E-02  0.31626469275E-02  0.00000000000E+00 0.  1.
         14    1    1    0    0    0  0.14286142871E-03 -0.81107230571E-03  0.20888960302E-03  0.84963671010E-03  0.00000000000E+00 0.  1.
     999901    1    1    0    0    0 -0.19008694336E-01 -0.13125045308E-03  0.93846758430E-03  0.90020121551E+00  0.90000000000E+00 0. -1.
     999903    1    1    0    0    0  0.15481938623E-01  0.47859312855E-02 -0.45701810461E-02  0.26143490903E-01  0.20000000000E-01 0.  0.
</event>
<event>
 7    1  0.4717691E-066  0.9118800E+02  0.7957747E-01            NaN
     999900   -1    0    0    0    0  0.00000000000E+00  0.00000000000E+00  0.99999998245E-14  0.93827000000E+00  0.93827000000E+00 0. -1.
        -11    1    1    0    0    0 -0.28162674398E-02 -0.32161513858E-03  0.16599595912E-02  0.33243624102E-02  0.51100000000E-03 0. -1.
        -14    1    1    0    0    0  0.13250636823E-02 -0.34400396784E-03 -0.99893398307E-03  0.16946980836E-02  0.00000000000E+00 0. -1.
         12    1    1    0    0    0 -0.41821608535E-02 -0.31475999502E-02 -0.10793083815E-02  0.53444140402E-02  0.00000000000E+00 0.  1.
         14    1    1    0    0    0 -0.43317266498E-02  0.37770538799E-02  0.20904538959E-02  0.61155530634E-02  0.00000000000E+00 0.  1.
     999901    1    1    0    0    0  0.18168878022E-01  0.31511356588E-03 -0.19377655736E-02  0.90018551552E+00  0.90000000000E+00 0.  1.
     999903    1    1    0    0    0 -0.81637867614E-02 -0.27894838910E-03  0.26559445113E-03  0.21605456878E-01  0.20000000000E-01 0.  0.
</event>
<event>
 7    1  0.4717691E-066  0.9118800E+02  0.7957747E-01            NaN
     999900   -1    0    0    0    0  0.00000000000E+00  0.00000000000E+00  0.99999998245E-14  0.93827000000E+00  0.93827000000E+00 0. -1.
        -11    1    1    0    0    0  0.31291096141E-03 -0.45659497489E-02  0.22601705992E-02  0.51298442975E-02  0.51100000000E-03 0. -1.
        -14    1    1    0    0    0  0.15443159433E-02 -0.32579585212E-03  0.21422634674E-02  0.26608922252E-02  0.00000000000E+00 0. -1.
         12    1    1    0    0    0  0.94680804094E-03  0.16300686805E-02 -0.22803693556E-02  0.29586574266E-02  0.00000000000E+00 0.  1.
         14    1    1    0    0    0 -0.42759001536E-02 -0.19798124043E-02  0.72580301500E-03  0.47675747814E-02  0.00000000000E+00 0.  1.
     999901    1    1    0    0    0 -0.30018756694E-03  0.78349527178E-02 -0.12950184133E-01  0.90012731536E+00  0.90000000000E+00 0.  1.
     999903    1    1    0    0    0  0.17720527749E-02 -0.25934633930E-02  0.10102316407E-01  0.22625715905E-01  0.20000000000E-01 0.  0.
</event>
<event>
 7    1  0.4717691E-066  0.9118800E+02  0.7957747E-01            NaN
     999900   -1    0    0    0    0  0.00000000000E+00  0.00000000000E+00  0.99999998245E-14  0.93827000000E+00  0.93827000000E+00 0. -1.
        -11    1    1    0    0    0  0.25019523559E-02  0.12916920926E-02  0.89392639143E-03  0.29980759574E-02  0.51100000000E-03 0. -1.
        -14    1    1    0    0    0  0.20038958119E-03 -0.26907960597E-02 -0.20528170369E-02  0.33903682995E-02  0.00000000000E+00 0. -1.
         12    1    1    0    0    0 -0.29294949574E-02 -0.28450752320E-02  0.38243442105E-04  0.40838531245E-02  0.00000000000E+00 0.  1.
         14    1    1    0    0    0 -0.31929108867E-03  0.49832960524E-02  0.39985555375E-02  0.63971581762E-02  0.00000000000E+00 0.  1.
     999901    1    1    0    0    0 -0.64897247051E-02 -0.33692207363E-02 -0.31167937514E-02  0.90003510075E+00  0.90000000000E+00 0. -1.
     999903    1    1    0    0    0  0.70361688141E-02  0.26301038832E-02  0.23888541729E-03  0.21365443694E-01  0.20000000000E-01 0.  0.
</event>
<event>
 7    1  0.4717691E-066  0.9118800E+02  0.7957747E-01            NaN
     999900   -1    0    0    0    0  0.00000000000E+00  0.00000000000E+00  0.99999998245E-14  0.93827000000E+00  0.93827000000E+00 0. -1.
        -11    1    1    0    0    0 -0.42381151137E-04 -0.18362115676E-02  0.43394565204E-02  0.47397756251E-02  0.51100000000E-03 0. -1.
        -14    1    1    0    0    0  0.17794485332E-02 -0.42857364871E-03 -0.26015078229E-02  0.31808733718E-02  0.00000000000E+00 0. -1.
         12    1    1    0    0    0 -0.75835070990E-04  0.18546258414E-03  0.30204130190E-03  0.36245865442E-03  0.00000000000E+00 0.  1.
         14    1    1    0    0    0 -0.69678378322E-03  0.19405718648E-02  0.25751788430E-03  0.20778937084E-02  0.00000000000E+00 0.  1.
     999901    1    1    0    0    0  0.96499662809E-02  0.11325848352E-01 -0.13634090802E-01  0.90022624108E+00  0.90000000000E+00 0.  1.
     999903    1    1    0    0    0 -0.10614414809E-01 -0.11187097584E-01  0.11336582918E-01  0.27682757564E-01  0.20000000000E-01 0.  0.
</event>
<event>
 7    1  0.4717691E-066  0.9118800E+02  0.7957747E-01            NaN
     999900   -1    0    0    0    0  0.00000000000E+00  0.00000000000E+00  0.99999998245E-14  0.93827000000E+00  0.93827000000E+00 0. -1.
        -11    1    1    0    0    0  0.40922730748E-03  0.10413903452E-02 -0.16041749089E-02  0.20214991909E-02  0.51100000000E-03 0. -1.
        -14    1    1    0    0    0 -0.18002511901E-02 -0.28857814610E-02 -0.50536030841E-03  0.34386084438E-02  0.00000000000E+00 0. -1.
         12    1    1    0    0    0 -0.19220127496E-02  0.18505559315E-02  0.55867288406E-03  0.27259504134E-02  0.00000000000E+00 0.  1.
         14    1    1    0    0    0  0.16669877720E-02  0.78949885626E-03  0.28383606189E-02  0.33850328919E-02  0.00000000000E+00 0.  1.
     999901    1    1    0    0    0 -0.14573168385E-01  0.49326771997E-02 -0.43520808796E-02  0.90014201610E+00  0.90000000000E+00 0. -1.
     999903    1    1    0    0    0  0.16219217246E-01 -0.57283408717E-02  0.30645825939E-02  0.26556892960E-01  0.20000000000E-01 0.  0.
</event>
<event>
 7    1  0.4717691E-066  0.9118800E+02  0.7957747E-01            NaN
     999900   -1    0    0    0    0  0.00000000000E+00  0.00000000000E+00  0.99999998245E-14  0.93827000000E+00  0.93827000000E+00 0. -1.
        -11    1    1    0    0    0  0.11366197000E-02  0.33132975432E-04 -0.30963399796E-02  0.33378802264E-02  0.51100000000E-03 0. -1.
        -14    1    1    0    0    0 -0.19863305571E-02 -0.48559792544E-03  0.46041392733E-03  0.20960189436E-02  0.00000000000E+00 0. -1.
         12    1    1    0    0    0  0.16419478313E-02 -0.45717178827E-02 -0.31583404164E-02  0.57941100495E-02  0.00000000000E+00 0.  1.
         14    1    1    0    0    0 -0.13343645646E-02  0.15951520025E-02  0.14671063037E-02  0.25450814542E-02  0.00000000000E+00 0.  1.
     999901    1    1    0    0    0  0.93652634798E-02 -0.72036162918E-02  0.63992639493E-02  0.90010030043E+00  0.90000000000E+00 0. -1.
     999903    1    1    0    0    0 -0.88231358894E-02  0.10632647122E-01 -0.20721037843E-02  0.24396608900E-01  0.20000000000E-01 0.  0.
</event>
<event>
 7    1  0.4717691E-066  0.9118800E+02  0.7957747E-01            NaN
     999900   -1    0    0    0    0  0.00000000000E+00  0.00000000000E+00  0.99999998245E-14  0.93827000000E+00  0.93827000000E+00 0.  1.
        -11    1    1    0    0    0 -0.23644132068E-02 -0.26639473746E-02 -0.17326585762E-03  0.36025279297E-02  0.51100000000E-03 0. -1.
        -14    1    1    0    0    0  0.38280066342E-02 -0.14499018084E-02  0.11681972314E-02  0.42568221500E-02  0.00000000000E+00 0. -1.
         12    1    1    0    0    0 -0.49336218319E-02 -0.33794681920E-02  0.52413406087E-03  0.60030114238E-02  0.00000000000E+00 0.  1.
         14    1    1    0    0    0  0.33752524084E-03  0.28047192546E-02  0.30709939942E-03  0.28415987448E-02  0.00000000000E+00 0.  1.
     999901    1    1    0    0    0 -0.10699559662E-02  0.11052173565E-01  0.17082950871E-03  0.90006851102E+00  0.90000000000E+00 0.  1.
     999903    1    1    0    0    0  0.42024591300E-02 -0.63635754449E-02 -0.19969943428E-02  0.21497528732E-01  0.20000000000E-01 0.  0.
</event>
<event>
 7    1  0.4717691E-066  0.9118800E+02  0.7957747E-01            NaN
     999900   -1    0    0    0    0  0.00000000000E+00  0.00000000000E+00  0.99999998245E-14  0.93827000000E+00  0.93827000000E+00 0. -1.
        -11    1    1    0    0    0  0.40681519610E-02  0.19359949733E-02  0.30527947526E-03  0.45444750492E-02  0.51100000000E-03 0. -1.
        -14    1    1    0    0    0 -0.18681191916E-02  0.38232676656E-03 -0.97854490441E-03  0.21432669457E-02  0.00000000000E+00 0. -1.
         12    1    1    0    0    0 -0.19454985022E-02  0.41259934631E-02  0.94023351434E-03  0.46575557475E-02  0.00000000000E+00 0.  1.
         14    1    1    0    0    0 -0.45872077159E-02 -0.28545914939E-02  0.18268692538E-02  0.57033865813E-02  0.00000000000E+00 0.  1.
     999901    1    1    0    0    0 -0.11341782112E-02 -0.64000870377E-02 -0.53922425701E-02  0.90003962344E+00  0.90000000000E+00 0. -1.
     999903    1    1    0    0    0  0.54668516598E-02  0.28103633287E-02  0.32984052311E-02  0.21181692241E-01  0.20000000000E-01 0.  0.
</event>
<event>
 7    1  0.4717691E-066  0.9118800E+02  0.7957747E-01            NaN
     999900   -1    0    0    0    0  0.00000000000E+00  0.00000000000E+00  0.99999998245E-14  0.93827000000E+00  0.93827000000E+00 0. -1.
        -11    1    1    0    0    0  0.24831631622E-02 -0.22932309019E-02 -0.58854864837E-03  0.34687919758E-02  0.51100000000E-03 0. -1.
        -14    1    1    0    0    0  0.48190776730E-03  0.29801117715E-02 -0.48987766461E-02  0.57542431210E-02  0.00000000000E+00 0. -1.
         12    1    1    0    0    0  0.71011149840E-03 -0.14445035255E-02  0.93581858450E-03  0.18618821656E-02  0.00000000000E+00 0.  1.
         14    1    1    0    0    0  0.25592932228E-02  0.25530790324E-02 -0.37247076330E-03  0.36341338467E-02  0.00000000000E+00 0.  1.
     999901    1    1    0    0    0 -0.12403729543E-02 -0.51325633522E-03  0.15941493066E-01  0.90014217386E+00  0.90000000000E+00 0. -1.
     999903    1    1    0    0    0 -0.49941026964E-02 -0.12822000413E-02 -0.11017515593E-01  0.23408775033E-01  0.20000000000E-01 0.  0.
</event>
<event>
 7    1  0.4717691E-066  0.9118800E+02  0.7957747E-01            NaN
     999900   -1    0    0    0    0  0.00000000000E+00  0.00000000000E+00  0.99999998245E-14  0.93827000000E+00  0.93827000000E+00 0. -1.
        -11    1    1    0    0    0 -0.62051043876E-03  0.14358204569E-02  0.44385218875E-03  0.17043295910E-02  0.51100000000E-03 0. -1.
        -14    1    1    0    0    0  0.11904728265E-02 -0.71320105193E-03 -0.13000551440E-02  0.19015847782E-02  0.00000000000E+00 0. -1.
         12    1    1    0    0    0 -0.33664569052E-02 -0.25909571415E-02 -0.74197327049E-02  0.85497675065E-02  0.00000000000E+00 0.  1.
         14    1    1    0    0    0  0.13375119812E-02 -0.57766087245E-03  0.28566866736E-02  0.32067567938E-02  0.00000000000E+00 0.  1.
     999901    1    1    0    0    0  0.80427041534E-02  0.45587232707E-02  0.13783479902E-01  0.90015301553E+00  0.90000000000E+00 0.  1.
     999903    1    1    0    0    0 -0.65837216172E-02 -0.21127246618E-02 -0.83642309151E-02  0.22754545801E-01  0.20000000000E-01 0.  0.
</event>
<event>
 7    1  0.4717691E-066  0.9118800E+02  0.7957747E-01            NaN
     999900   -1    0    0    0    0  0.00000000000E+00  0.00000000000E+00  0.99999998245E-14  0.93827000000E+00  0.93827000000E+00 0.  1.
        -11    1    1    0    0    0  0.18905690152E-02  0.73763700080E-02 -0.24741664763E-02  0.80229487378E-02  0.51100000000E-03 0. -1.
        -14    1    1    0    0    0 -0.64308858720E-03 -0.21315828335E-02  0.39563531054E-03  0.22613570275E-02  0.00000000000E+00 0. -1.
         12    1    1    0    0    0  0.10886755890E-02 -0.13154157930E-03  0.24368596840E-02  0.26722280675E-02  0.00000000000E+00 0.  1.
         14    1    1    0    0    0  0.41830162875E-03 -0.42009287872E-03 -0.24835414101E-03  0.64275505344E-03  0.00000000000E+00 0. -1.
     999901    1    1    0    0    0 -0.11232442677E-01 -0.10988422256E-01 -0.94874773176E-02  0.90018716133E+00  0.90000000000E+00 0.  1.
     999903    1    1    0    0    0  0.84779850309E-02  0.62952695398E-02  0.93775029404E-02  0.24483549787E-01  0.20000000000E-01 0.  0.
</event>
<event>
 7    1  0.4717691E-066  0.9118800E+02  0.7957747E-01            NaN
     999900   -1    0    0    0    0  0.00000000000E+00  0.00000000000E+00  0.99999998245E-14  0.93827000000E+00  0.93827000000E+00 0. -1.
        -11    1    1    0    0    0 -0.14252058203E-02  0.47119722281E-02  0.47879002743E-02  0.68861457975E-02  0.51100000000E-03 0. -1.
        -14    1    1    0    0    0 -0.25847683784E-03  0.37036266471E-03 -0.27728664981E-03  0.52996855122E-03  0.00000000000E+00 0. -1.
         12    1    1    0    0    0  0.18090590028E-02  0.63718286543E-04 -0.54817504449E-04  0.18110106168E-02  0.00000000000E+00 0.  1.
         14    1    1    0    0    0 -0.37708133725E-02 -0.20627863442E-02  0.66065121531E-03  0.43486297865E-02  0.00000000000E+00 0.  1.
     999901    1    1    0    0    0 -0.24859273758E-02  0.92763917793E-02 -0.89543801832E-02  0.90009577946E+00  0.90000000000E+00 0.  1.
     999903    1    1    0    0    0  0.61313644037E-02 -0.12359658614E-01  0.38379328479E-02  0.24598465787E-01  0.20000000000E-01 0.  0.
</event>
<event>
 7    1  0.4717691E-066  0.9118800E+02  0.7957747E-01            NaN
     999900   -1    0    0    0    0  0.00000000000E+00  0.00000000000E+00  0.99999998245E-14  0.93827000000E+00  0.93827000000E+00 0.  1.
        -11    1    1    0    0    0 -0.17392514259E-02  0.85372446225E-03  0.16296693550E-02  0.25827861287E-02  0.51100000000E-03 0. -1.
        -14    1    1    0    0    0  0.13197374035E-02 -0.10994335821E-02 -0.54334091084E-03  0.18015771871E-02  0.00000000000E+00 0. -1.
         12    1    1    0    0    0 -0.16702093056E-03 -0.27668347620E-02  0.46683125436E-03  0.28109076846E-02  0.00000000000E+00 0.  1.
         14    1    1    0    0    0 -0.42101436182E-02  0.44021755669E-02 -0.22111313400E-02  0.64802438851E-02  0.00000000000E+00 0.  1.
     999901    1    1    0    0    0 -0.14636770978E-02 -0.14029699883E-01  0.13305007847E-02  0.90011151813E+00  0.90000000000E+00 0. -1.
     999903    1    1    0    0    0  0.62603556689E-02  0.12640068198E-01 -0.67252914319E-03  0.24482966989E-01  0.20000000000E-01 0.  0.
</event>
<event>
 7    1  0.4717691E-066  0.9118800E+02  0.7957747E-01            NaN
     999900   -1    0    0    0    0  0.00000000000E+00  0.00000000000E+00  0.99999998245E-14  0.93827000000E+00  0.93827000000E+00 0. -1.
        -11    1    1    0    0    0 -0.14721251941E-03 -0.19075096242E-02 -0.22406490041E-02  0.29902998933E-02  0.51100000000E-03 0. -1.
        -14    1    1    0    0    0 -0.32839302551E-02  0.18966610005E-03 -0.25259294064E-03  0.32990868955E-02  0.00000000000E+00 0. -1.
         12    1    1    0    0    0  0.24536397455E-02  0.53475637508E-03 -0.15069367037E-02  0.29286806945E-02  0.00000000000E+00 0.  1.
         14    1    1    0    0    0 -0.57751786407E-02 -0.80168363153E-03  0.40110374946E-02  0.70769913636E-02  0.00000000000E+00 0.  1.
     999901    1    1    0    0    0  0.13647787128E-01 -0.35130619903E-02 -0.54510480629E-03  0.90011049368E+00  0.90000000000E+00 0. -1.
     999903    1    1    0    0    0 -0.68951054581E-02  0.54978327709E-02  0.53424596015E-03  0.21864447471E-01  0.20000000000E-01 0.  0.
</event>
<event>
 7    1  0.4717691E-066  0.9118800E+02  0.7957747E-01            NaN
     999900   -1    0    0    0    0  0.00000000000E+00  0.00000000000E+00  0.99999998245E-14  0.93827000000E+00  0.93827000000E+00 0.  1.
        -11    1    1    0    0    0  0.39936678503E-03 -0.73281559779E-03 -0.20773942404E-02  0.22963450001E-02  0.51100000000E-03 0. -1.
        -14    1    1    0    0    0 -0.83600301954E-03  0.61418569035E-04  0.28508850397E-03  0.88540880073E-03  0.00000000000E+00 0. -1.
         12    1    1    0    0    0  0.49307177267E-02 -0.57575574326E-02 -0.16927342094E-02  0.77670325089E-02  0.00000000000E+00 0.  1.
         14    1    1    0    0    0 -0.11247684524E-03  0.73760497969E-03  0.27617485516E-02  0.28607633962E-02  0.00000000000E+00 0.  1.
     999901    1    1    0    0    0  0.81733381173E-02  0.25821801195E-02 -0.46104158812E-02  0.90005262460E+00  0.90000000000E+00 0. -1.
     999903    1    1    0    0    0 -0.12554942764E-01  0.31091693622E-02  0.53337072754E-02  0.24407825697E-01  0.20000000000E-01 0.  0.
</event>
<event>
 7    1  0.4717691E-066  0.9118800E+02  0.7957747E-01            NaN
     999900   -1    0    0    0    0  0.00000000000E+00  0.00000000000E+00  0.99999998245E-14  0.93827000000E+00  0.93827000000E+00 0. -1.
        -11    1    1    0    0    0  0.12839281919E-02 -0.69780855112E-03 -0.21402674286E-02  0.26414530172E-02  0.51100000000E-03 0. -1.
        -14    1    1    0    0    0 -0.62916340102E-03 -0.10475060344E-02  0.11080918065E-03  0.12269450484E-02  0.00000000000E+00 0. -1.
         12    1    1    0    0    0 -0.33941886850E-02  0.32046469997E-02 -0.66001300670E-03  0.47144348963E-02  0.00000000000E+00 0.  1.
         14    1    1    0    0    0  0.13607647396E-02  0.20765121143E-03  0.32493686487E-02  0.35289086581E-02  0.00000000000E+00 0.  1.
     999901    1    1    0    0    0  0.16429367271E-01 -0.80957552909E-03 -0.74555067038E-02  0.90018118404E+00  0.90000000000E+00 0.  1.
     999903    1    1    0    0    0 -0.15050708117E-01 -0.85740809652E-03  0.68956093098E-02  0.25977074339E-01  0.20000000000E-01 0.  0.
</event>
<event>
 7    1  0.4717691E-066  0.9118800E+02  0.7957747E-01            NaN
     999900   -1    0    0    0    0  0.00000000000E+00  0.00000000000E+00  0.99999998245E-14  0.93827000000E+00  0.93827000000E+00 0. -1.
        -11    1    1    0    0    0  0.23775337062E-02 -0.15441954009E-02 -0.24206646777E-02  0.37627044053E-02  0.51100000000E-03 0. -1.
        -14    1    1    0    0    0 -0.37635240438E-02 -0.74434493212E-03  0.12208571725E-02  0.40259973723E-02  0.00000000000E+00 0. -1.
         12    1    1    0    0    0  0.39215736666E-02 -0.36916985306E-02  0.33096030114E-03  0.53960089682E-02  0.00000000000E+00 0.  1.
         14    1    1    0    0    0  0.35177243498E-03  0.53527399564E-04  0.12540249907E-02  0.13035289433E-02  0.00000000000E+00 0.  1.
     999901    1    1    0    0    0  0.18232073602E-02  0.31366827215E-02 -0.11854474659E-01  0.90008538008E+00  0.90000000000E+00 0.  1.
     999903    1    1    0    0    0 -0.47105631241E-02  0.27900287425E-02  0.11469296872E-01  0.23696380231E-01  0.20000000000E-01 0.  0.
</event>
<event>
 7    1  0.4717691E-066  0.9118800E+02  0.7957747E-01            NaN
     999900   -1    0    0    0    0  0.00000000000E+00  0.00000000000E+00  0.99999998245E-14  0.93827000000E+00  0.93827000000E+00 0. -1.
        -11    1    1    0    0    0  0.55456923706E-02 -0.27776119991E-03  0.51332929444E-02  0.75791604157E-02  0.51100000000E-03 0. -1.
        -14    1    1    0    0    0 -0.57662518511E-03  0.96365333736E-03 -0.39253391454E-03  0.11896248286E-02  0.00000000000E+00 0. -1.
         12    1    1    0    0    0 -0.14904331283E-02  0.18692873967E-02 -0.32993973595E-02  0.40745121447E-02  0.00000000000E+00 0.  1.
         14    1    1    0    0    0  0.24677527324E-02  0.67765918283E-03 -0.35636034054E-03  0.25837991812E-02  0.00000000000E+00 0.  1.
     999901    1    1    0    0    0  0.22158465291E-02  0.34689671513E-02 -0.41501517754E-02  0.90001898173E+00  0.90000000000E+00 0.  1.
     999903    1    1    0    0    0 -0.81622333189E-02 -0.67018058683E-02  0.30651504456E-02  0.22823921703E-01  0.20000000000E-01 0.  0.
</event>
<event>
 7    1  0.4717691E-066  0.9118800E+02  0.7957747E-01            NaN
     999900   -1    0    0    0    0  0.00000000000E+00  0.00000000000E+00  0.99999998245E-14  0.93827000000E+00  0.93827000000E+00 0.  1.
        -11    1    1    0    0    0  0.78397318701E-03  0.13297970566E-02 -0.12647983886E-02  0.20600510027E-02  0.51100000000E-03 0. -1.
        -14    1    1    0    0    0 -0.81873642924E-03 -0.10235204085E-02  0.37978007232E-03  0.13646084678E-02  0.00000000000E+00 0. -1.
         12    1    1    0    0    0  0.76952780061E-02  0.10862755259E-02  0.53699056654E-03  0.77900999337E-02  0.00000000000E+00 0.  1.
         14    1    1    0    0    0 -0.99233332743E-03 -0.58179966819E-03 -0.10034074409E-03  0.11546794151E-02  0.00000000000E+00 0.  1.
     999901    1    1    0    0    0 -0.18488440621E-01  0.97821437406E-02  0.29256669155E-02  0.90024778383E+00  0.90000000000E+00 0. -1.
     999903    1    1    0    0    0  0.11820259185E-01 -0.10592896246E-01 -0.24772984217E-02  0.25652777346E-01  0.20000000000E-01 0.  0.
</event>
<event>
 7    1  0.4717691E-066  0.9118800E+02  0.7957747E-01            NaN
     999900   -1    0    0    0    0  0.00000000000E+00  0.00000000000E+00  0.99999998245E-14  0.93827000000E+00  0.93827000000E+00 0. -1.
        -11    1    1    0    0    0 -0.46368629934E-02 -0.26412149465E-02 -0.12885260471E-03  0.53622979036E-02  0.51100000000E-03 0. -1.
        -14    1    1    0    0    0  0.58137223010E-03  0.90271360337E-03  0.38201287022E-03  0.11396575594E-02  0.00000000000E+00 0. -1.
         12    1    1    0    0    0  0.30243873787E-02 -0.10683786653E-02  0.48801876877E-03  0.32444590162E-02  0.00000000000E+00 0.  1.
         14    1    1    0    0    0 -0.31576616816E-02 -0.28368711597E-03  0.28461984075E-02  0.42605341273E-02  0.00000000000E+00 0.  1.
     999901    1    1    0    0    0 -0.37625681850E-02  0.13109177327E-01 -0.78804159345E-02  0.90013782745E+00  0.90000000000E+00 0.  1.
     999903    1    1    0    0    0  0.79513332512E-02 -0.10018610203E-01  0.42930384926E-02  0.24125223944E-01  0.20000000000E-01 0.  0.
</event>
<event>
 7    1  0.4717691E-066  0.9118800E+02  0.7957747E-01            NaN
     999900   -1    0    0    0    0  0.00000000000E+00  0.00000000000E+00  0.99999998245E-14  0.93827000000E+00  0.93827000000E+00 0.  1.
        -11    1    1    0    0    0  0.23890133934E-03  0.23054778110E-03  0.15656353066E-02  0.16800479287E-02  0.51100000000E-03 0. -1.
        -14    1    1    0    0    0 -0.38632873696E-02 -0.16547222148E-02 -0.23557532761E-02  0.48179527194E-02  0.00000000000E+00 0. -1.
         12    1    1    0    0    0  0.11342449975E-02  0.24886480439E-02  0.43467484631E-02  0.51355723150E-02  0.00000000000E+00 0.  1.
         14    1    1    0    0    0 -0.36496278856E-02 -0.15368567944E-02 -0.76188089503E-03  0.40326387153E-02  0.00000000000E+00 0.  1.
     999901    1    1    0    0    0 -0.36915751712E-02  0.22112400783E-02 -0.59414241729E-02  0.90002989830E+00  0.90000000000E+00 0. -1.
     999903    1    1    0    0    0  0.98313440895E-02 -0.17388568941E-02  0.31466745743E-02  0.22573890023E-01  0.20000000000E-01 0.  0.
</event>
<event>
 7    1  0.4717691E-066  0.9118800E+02  0.7957747E-01            NaN
     999900   -1    0    0    0    0  0.00000000000E+00  0.00000000000E+00  0.99999998245E-14  0.93827000000E+00  0.93827000000E+00 0.  1.
        -11    1    1    0    0    0  0.27806280379E-02  0.73217417458E-02 -0.20734267132E-02  0.81178823478E-02  0.51100000000E-03 0. -1.
        -14    1    1    0    0    0  0.64225191617E-04  0.25389789236E-03  0.10581163491E-02  0.10900455143E-02  0.00000000000E+00 0. -1.
         12    1    1    0    0    0  0.17417777732E-02 -0.24043080546E-03  0.15719428845E-02  0.23585167406E-02  0.00000000000E+00 0.  1.
         14    1    1    0    0    0  0.16698096192E-02  0.17813439873E-02 -0.13288964069E-02  0.27798230566E-02  0.00000000000E+00 0.  1.
     999901    1    1    0    0    0 -0.18905453557E-01 -0.91537114478E-02 -0.52071884169E-04  0.90024508292E+00  0.90000000000E+00 0.  1.
     999903    1    1    0    0    0  0.12649012935E-01  0.37158627771E-04  0.82433577072E-03  0.23678649422E-01  0.20000000000E-01 0.  0.
</event>
<event>
 7    1  0.4717691E-066  0.9118800E+02  0.7957747E-01            NaN
     999900   -1    0    0    0    0  0.00000000000E+00  0.00000000000E+00  0.99999998245E-14  0.93827000000E+00  0.93827000000E+00 0.  1.
        -11    1    1    0    0    0  0.27499801576E-02  0.26957945863E-02  0.18901439634E-03  0.38892861505E-02  0.51100000000E-03 0. -1.
        -14    1    1    0    0    0 -0.16542376413E-02 -0.13092365124E-02  0.20230237695E-02  0.29228800165E-02  0.00000000000E+00 0. -1.
         12    1    1    0    0    0  0.27244627278E-03  0.13956782038E-02  0.20183675245E-02  0.24689981944E-02  0.00000000000E+00 0.  1.
         14    1    1    0    0    0  0.34651296931E-02 -0.60596461905E-03 -0.33726357539E-02  0.48732934283E-02  0.00000000000E+00 0.  1.
     999901    1    1    0    0    0 -0.87569946987E-03 -0.10426828602E-01  0.87774723072E-02  0.90010362160E+00  0.90000000000E+00 0.  1.
     999903    1    1    0    0    0 -0.39576190123E-02  0.82505569429E-02 -0.96352422435E-02  0.24011920606E-01  0.20000000000E-01 0.  0.
</event>
<event>
 7    1  0.4717691E-066  0.9118800E+02  0.7957747E-01            NaN
     999900   -1    0    0    0    0  0.00000000000E+00  0.00000000000E+00  0.99999998245E-14  0.93827000000E+00  0.93827000000E+00 0. -1.
        -11    1    1    0    0    0  0.16594231480E-02 -0.17736547983E-02 -0.83716248463E-03  0.26194462303E-02  0.51100000000E-03 0. -1.
        -14    1    1    0    0    0 -0.25746094857E-02 -0.37526419013E-03  0.50313415590E-03  0.26500153198E-02  0.00000000000E+00 0. -1.
         12    1    1    0    0    0 -0.26206042199E-03  0.15110940605E-02 -0.33279717287E-02  0.36643521599E-02  0.00000000000E+00 0.  1.
         14    1    1    0    0    0 -0.23648762855E-02  0.23137351733E-02  0.15305661125E-02  0.36453590937E-02  0.00000000000E+00 0.  1.
     999901    1    1    0    0    0  0.76511192974E-02  0.12541791563E-01 -0.37378526739E-02  0.90012766189E+00  0.90000000000E+00 0. -1.
     999903    1    1    0    0    0 -0.41089962523E-02 -0.14217701809E-01  0.58692866189E-02  0.25563165303E-01  0.20000000000E-01 0.  0.
</event>
<event>
 7    1  0.4717691E-066  0.9118800E+02  0.7957747E-01            NaN
     999900   -1    0    0    0    0  0.00000000000E+00  0.00000000000E+00  0.99999998245E-14  0.93827000000E+00  0.93827000000E+00 0. -1.
        -11    1    1    0    0    0 -0.24444566668E-02 -0.36814485079E-03 -0.25375617042E-02  0.35792791774E-02  0.51100000000E-03 0. -1.
        -14    1    1    0    0    0 -0.18631830090E-02  0.13203916380E-02  0.12069886840E-02  0.25829647086E-02  0.00000000000E+00 0. -1.
         12    1    1    0    0    0 -0.53693403704E-02  0.25192667336E-02  0.52031464621E-02  0.78898196427E-02  0.00000000000E+00 0.  1.
         14    1    1    0    0    0  0.27464311753E-02  0.52424494004E-03  0.36484131740E-04  0.27962560773E-02  0.00000000000E+00 0.  1.
     999901    1    1    0    0    0  0.31462807093E-02 -0.99048911694E-02 -0.63822305308E-02  0.90008262888E+00  0.90000000000E+00 0.  1.
     999903    1    1    0    0    0  0.37842681617E-02  0.59091327085E-02  0.24731729572E-02  0.21339051510E-01  0.20000000000E-01 0.  0.
</event>
<event>
 7    1  0.4717691E-066  0.9118800E+02  0.7957747E-01            NaN
     999900   -1    0    0    0    0  0.00000000000E+00  0.00000000000E+00  0.99999998245E-14  0.93827000000E+00  0.93827000000E+00 0. -1.
        -11    1    1    0    0    0 -0.20668890364E-02  0.10351180221E-04  0.23647728811E-02  0.31820448166E-02  0.51100000000E-03 0. -1.
        -14    1    1    0    0    0  0.37456988588E-03  0.14744695035E-03 -0.11789165132E-02  0.12457477063E-02  0.00000000000E+00 0. -1.
         12    1    1    0    0    0  0.95337776492E-02  0.14853438457E-03  0.13462436344E-02  0.96295041747E-02  0.00000000000E+00 0.  1.
         14    1    1    0    0    0  0.33708847194E-03  0.35859779941E-02 -0.77618167161E-03  0.36844707625E-02  0.00000000000E+00 0.  1.
     999901    1    1    0    0    0 -0.91121398592E-02 -0.58245210656E-02  0.19923748499E-02  0.90006717844E+00  0.90000000000E+00 0.  1.
     999903    1    1    0    0    0  0.93359288860E-03  0.19322105563E-02 -0.37482931806E-02  0.20461054105E-01  0.20000000000E-01 0.  0.
</event>
<event>
 7    1  0.4717691E-066  0.9118800E+02  0.7957747E-01            NaN
     999900   -1    0    0    0    0  0.00000000000E+00  0.00000000000E+00  0.99999998245E-14  0.93827000000E+00  0.93827000000E+00 0. -1.
        -11    1    1    0    0    0 -0.48662774879E-03  0.11598405285E-02  0.21025683234E-03  0.13738142352E-02  0.51100000000E-03 0. -1.
        -14    1    1    0    0    0  0.56161322310E-02 -0.32216446268E-02 -0.18424174582E-02  0.67315999159E-02  0.00000000000E+00 0. -1.
         12    1    1    0    0    0 -0.11427896643E-02  0.35331764604E-02 -0.38571380573E-02  0.53541402774E-02  0.00000000000E+00 0.  1.
         14    1    1    0    0    0 -0.27167663554E-03 -0.14444908428E-02  0.82944720964E-03  0.16877039618E-02  0.00000000000E+00 0.  1.
     999901    1    1    0    0    0 -0.22829657234E-02 -0.66769870299E-02 -0.46436289218E-02  0.90003964211E+00  0.90000000000E+00 0.  1.
     999903    1    1    0    0    0 -0.14320724590E-02  0.66501055107E-02  0.93034803953E-02  0.23083099495E-01  0.20000000000E-01 0.  0.
</event>
<event>
 7    1  0.4717691E-066  0.9118800E+02  0.7957747E-01            NaN
     999900   -1    0    0    0    0  0.00000000000E+00  0.00000000000E+00  0.99999998245E-14  0.93827000000E+00  0.93827000000E+00 0.  1.
        -11    1    1    0    0    0 -0.14645785265E-02  0.81475086810E-03 -0.41414836075E-02  0.44968674328E-02  0.51100000000E-03 0. -1.
        -14    1    1    0    0    0  0.27897745397E-02 -0.81451017432E-03  0.14899147489E-02  0.32659018303E-02  0.00000000000E+00 0. -1.
         12    1    1    0    0    0 -0.17976962112E-02  0.12901043680E-02 -0.24984559398E-02  0.33374186179E-02  0.00000000000E+00 0.  1.
         14    1    1    0    0    0  0.13344265269E-02 -0.27107866284E-02  0.66917110631E-03  0.30946483273E-02  0.00000000000E+00 0.  1.
     999901    1    1    0    0    0 -0.65203575700E-02 -0.38331791402E-02 -0.63537170713E-02  0.90005420839E+00  0.90000000000E+00 0. -1.
     999903    1    1    0    0    0  0.56584312411E-02  0.52536207067E-02  0.10834570763E-01  0.24020955399E-01  0.20000000000E-01 0.  0.
</event>
<event>
 7    1  0.4717691E-066  0.9118800E+02  0.7957747E-01            NaN
     999900   -1    0    0    0    0  0.00000000000E+00  0.00000000000E+00  0.99999998245E-14  0.93827000000E+00  0.93827000000E+00 0. -1.
        -11    1    1    0    0    0 -0.22761958866E-02  0.14651945298E-02 -0.17853112473E-02  0.32827305668E-02  0.51100000000E-03 0. -1.
        -14    1    1    0    0    0 -0.30603134678E-02  0.75110375027E-03  0.33724013851E-02  0.46154920071E-02  0.00000000000E+00 0. -1.
         12    1    1    0    0    0  0.31885805205E-02  0.13262847267E-02 -0.80799377160E-03  0.35466788475E-02  0.00000000000E+00 0.  1.
         14    1    1    0    0    0 -0.19606077135E-02 -0.11192859058E-03 -0.70468433703E-04  0.19650639725E-02  0.00000000000E+00 0.  1.
     999901    1    1    0    0    0  0.12028588338E-01 -0.22378334770E-02 -0.12761386051E-01  0.90017362093E+00  0.90000000000E+00 0. -1.
     999903    1    1    0    0    0 -0.79200517905E-02 -0.11928209392E-02  0.12052758118E-01  0.24686413681E-01  0.20000000000E-01 0.  0.
</event>
<event>
 7    1  0.4717691E-066  0.9118800E+02  0.7957747E-01            NaN
     999900   -1    0    0    0    0  0.00000000000E+00  0.00000000000E+00  0.99999998245E-14  0.93827000000E+00  0.93827000000E+00 0. -1.
        -11    1    1    0    0    0  0.23398260645E-02  0.96308282026E-03 -0.43883630086E-02  0.50912832789E-02  0.51100000000E-03 0. -1.
        -14    1    1    0    0    0  0.45039820452E-03  0.15016406941E-02  0.14907074775E-02  0.21633289395E-02  0.00000000000E+00 0. -1.
         12    1    1    0    0    0 -0.15553122652E-02 -0.15342863779E-02 -0.10555512969E-02  0.24263593040E-02  0.00000000000E+00 0.  1.
         14    1    1    0    0    0  0.24672771166E-02 -0.11382201228E-02  0.14515598655E-02  0.30805888173E-02  0.00000000000E+00 0.  1.
     999901    1    1    0    0    0  0.13487047160E-02  0.14972928125E-01  0.16701800163E-02  0.90012710052E+00  0.90000000000E+00 0.  1.
     999903    1    1    0    0    0 -0.50508938365E-02 -0.14765145138E-01  0.83146694631E-03  0.25381339145E-01  0.20000000000E-01 0.  0.
</event>
<event>
 7    1  0.4717691E-066  0.9118800E+02  0.7957747E-01            NaN
     999900   -1    0    0    0    0  0.00000000000E+00  0.00000000000E+00  0.99999998245E-14  0.93827000000E+00  0.93827000000E+00 0.  1.
        -11    1    1    0    0    0 -0.24732210784E-02 -0.44378511404E-02  0.99892331430E-03  0.52029139946E-02  0.51100000000E-03 0. -1.
        -14    1    1    0    0    0 -0.17840375932E-02  0.24289066128E-02  0.39719176077E-03  0.30397596554E-02  0.00000000000E+00 0. -1.
         12    1    1    0    0    0  0.23669593651E-02 -0.64343232081E-02 -0.87724507224E-03  0.69117704461E-02  0.00000000000E+00 0.  1.
         14    1    1    0    0    0 -0.11501209956E-02  0.70238929736E-03  0.12703663651E-02  0.18520150461E-02  0.00000000000E+00 0.  1.
     999901    1    1    0    0    0 -0.53609537466E-03  0.10230975535E-01  0.37192977116E-02  0.90006599393E+00  0.90000000000E+00 0.  1.
     999903    1    1    0    0    0  0.35765156768E-02 -0.24900970964E-02 -0.55085340795E-02  0.21197546925E-01  0.20000000000E-01 0.  0.
</event>
<event>
 7    1  0.4717691E-066  0.9118800E+02  0.7957747E-01            NaN
     999900   -1    0    0    0    0  0.00000000000E+00  0.00000000000E+00  0.99999998245E-14  0.93827000000E+00  0.93827000000E+00 0. -1.
        -11    1    1    0    0    0 -0.40535294736E-02 -0.27439485152E-02 -0.12164821232E-02  0.50696453923E-02  0.51100000000E-03 0. -1.
        -14    1    1    0    0    0  0.16620634623E-02  0.27525699975E-02  0.31153626638E-03  0.32305032718E-02  0.00000000000E+00 0. -1.
         12    1    1    0    0    0 -0.16759527598E-02  0.16683989403E-02  0.15897065876E-02  0.28494806039E-02  0.00000000000E+00 0.  1.
         14    1    1    0    0    0  0.23131120865E-02  0.22585333190E-02 -0.86035042820E-03  0.33453943171E-02  0.00000000000E+00 0.  1.
     999901    1    1    0    0    0  0.10867192303E-01  0.38458787972E-02 -0.40340264208E-02  0.90008286286E+00  0.90000000000E+00 0. -1.
     999903    1    1    0    0    0 -0.91128856184E-02 -0.77814325389E-02  0.42096161182E-02  0.23692113551E-01  0.20000000000E-01 0.  0.
</event>
<event>
 7    1  0.4717691E-066  0.9118800E+02  0.7957747E-01            NaN
     999900   -1    0    0    0    0  0.00000000000E+00  0.00000000000E+00  0.99999998245E-14  0.93827000000E+00  0.93827000000E+00 0. -1.
        -11    1    1    0    0    0  0.23605079463E-02 -0.23991970167E-02  0.62112649261E-03  0.34605004276E-02  0.51100000000E-03 0. -1.
        -14    1    1    0    0    0  0.74042237222E-04  0.81104351307E-03 -0.55293823781E-03  0.98438535534E-03  0.00000000000E+00 0. -1.
         12    1    1    0    0    0 -0.80651789860E-03  0.64527759584E-02 -0.10329223604E-02  0.65845058503E-02  0.00000000000E+00 0.  1.
         14    1    1    0    0    0 -0.15531844864E-02 -0.24351383479E-02  0.14562652527E-02  0.32346544342E-02  0.00000000000E+00 0.  1.
     999901    1    1    0    0    0 -0.44713506576E-02 -0.12070229069E-01  0.71405187939E-02  0.90012036440E+00  0.90000000000E+00 0. -1.
     999903    1    1    0    0    0  0.43965028591E-02  0.96407449623E-02 -0.76320499409E-02  0.23885589528E-01  0.20000000000E-01 0.  0.
</event>
<event>
 7    1  0.4717691E-066  0.9118800E+02  0.7957747E-01            NaN
     999900   -1    0    0    0    0  0.00000000000E+00  0.00000000000E+00  0.99999998245E-14  0.93827000000E+00  0.93827000000E+00 0. -1.
        -11    1    1    0    0    0  0.12241599125E-02  0.30467829909E-02 -0.23623791906E-02  0.40771816890E-02  0.51100000000E-03 0. -1.
        -14    1    1    0    0    0 -0.10897166631E-02 -0.92379918653E-03  0.10120788573E-02  0.17507686759E-02  0.00000000000E+00 0. -1.
         12    1    1    0    0    0  0.99859625615E-03  0.14421814491E-03 -0.40990798925E-02  0.42214274033E-02  0.00000000000E+00 0.  1.
         14    1    1    0    0    0 -0.53584679951E-03 -0.43085659076E-02  0.14451667843E-02  0.45759566220E-02  0.00000000000E+00 0.  1.
     999901    1    1    0    0    0 -0.11011628589E-01 -0.43732566082E-02  0.16141662014E-02  0.90007943364E+00  0.90000000000E+00 0.  1.
     999903    1    1    0    0    0  0.10414435883E-01  0.64146205665E-02  0.23900472400E-02  0.23565231965E-01  0.20000000000E-01 0.  0.
</event>
<event>
 7    1  0.4717691E-066  0.9118800E+02  0.7957747E-01            NaN
     999900   -1    0    0    0    0  0.00000000000E+00  0.00000000000E+00  0.99999998245E-14  0.93827000000E+00  0.93827000000E+00 0. -1.
        -11    1    1    0    0    0 -0.54996643160E-03  0.13134022508E-02 -0.11163716699E-02  0.18801317118E-02  0.51100000000E-03 0. -1.
        -14    1    1    0    0    0 -0.20809064799E-02 -0.18123412495E-02 -0.32750053937E-02  0.42825708297E-02  0.00000000000E+00 0. -1.
         12    1    1    0    0    0  0.16416811962E-02 -0.27938415710E-02  0.30138704944E-03  0.32544587918E-02  0.00000000000E+00 0.  1.
         14    1    1    0    0    0  0.15930291764E-02  0.33469945722E-02  0.15454902850E-02  0.40160496566E-02  0.00000000000E+00 0.  1.
     999901    1    1    0    0    0  0.55389136204E-02  0.11356472713E-01  0.90470332024E-02  0.90013415547E+00  0.90000000000E+00 0. -1.
     999903    1    1    0    0    0 -0.61427510815E-02 -0.11410686716E-01 -0.65025334733E-02  0.24702633539E-01  0.20000000000E-01 0.  0.
</event>
<event>
 7    1  0.4717691E-066  0.9118800E+02  0.7957747E-01            NaN
     999900   -1    0    0    0    0  0.00000000000E+00  0.00000000000E+00  0.99999998245E-14  0.93827000000E+00  0.93827000000E+00 0.  1.
        -11    1    1    0    0    0  0.20633477652E-03 -0.22784528190E-02  0.86922239024E-03  0.25001179676E-02  0.51100000000E-03 0. -1.
        -14    1    1    0    0    0  0.31018303701E-03  0.62221650934E-03 -0.37286236739E-02  0.37928882666E-02  0.00000000000E+00 0. -1.
         12    1    1    0    0    0 -0.39827841013E-03  0.38324600804E-03 -0.30435762139E-02  0.30933572966E-02  0.00000000000E+00 0.  1.
         14    1    1    0    0    0  0.18863134502E-02  0.25335571089E-02  0.10199808625E-02  0.33192545874E-02  0.00000000000E+00 0.  1.
     999901    1    1    0    0    0  0.44065634951E-02  0.84202144684E-02  0.15347015344E-01  0.90018100885E+00  0.90000000000E+00 0.  1.
     999903    1    1    0    0    0 -0.64111163487E-02 -0.96807812758E-02 -0.10464018709E-01  0.25383373032E-01  0.20000000000E-01 0.  0.
</event>
<event>
 7    1  0.4717691E-066  0.9118800E+02  0.7957747E-01            NaN
     999900   -1    0    0    0    0  0.00000000000E+00  0.00000000000E+00  0.99999998245E-14  0.93827000000E+00  0.93827000000E+00 0. -1.
        -11    1    1    0    0    0 -0.11877218943E-02  0.22134445841E-02  0.20312745090E-02  0.32706600796E-02  0.51100000000E-03 0. -1.
        -14    1    1    0    0    0  0.35180082501E-02  0.29857050825E-03 -0.14462840304E-02  0.38153982614E-02  0.00000000000E+00 0. -1.
         12    1    1    0    0    0 -0.19264424930E-03 -0.61069374307E-02  0.22979214739E-02  0.65278051204E-02  0.00000000000E+00 0.  1.
         14    1    1    0    0    0 -0.54620069382E-03  0.69001183485E-03  0.15146924170E-02  0.17517832766E-02  0.00000000000E+00 0.  1.
     999901    1    1    0    0    0 -0.86678465199E-02 -0.52389844711E-02 -0.20531112501E-02  0.90005932793E+00  0.90000000000E+00 0. -1.
     999903    1    1    0    0    0  0.70764051073E-02  0.81438949746E-02 -0.23444931194E-02  0.22845025336E-01  0.20000000000E-01 0.  0.
</event>
<event>
 7    1  0.4717691E-066  0.9118800E+02  0.7957747E-01            NaN
     999900   -1    0    0    0    0  0.00000000000E+00  0.00000000000E+00  0.99999998245E-14  0.93827000000E+00  0.93827000000E+00 0.  1.
        -11    1    1    0    0    0 -0.33469792519E-02  0.24340535106E-02 -0.13142491660E-02  0.43721000075E-02  0.51100000000E-03 0. -1.
        -14    1    1    0    0    0  0.23640368404E-02 -0.17830203132E-02 -0.28212884579E-02  0.40899266720E-02  0.00000000000E+00 0. -1.
         12    1    1    0    0    0 -0.11832428492E-03 -0.15059043995E-02  0.19996040151E-02  0.25060257209E-02  0.00000000000E+00 0.  1.
         14    1    1    0    0    0  0.20093356634E-02 -0.10330174610E-02 -0.38625908259E-02  0.44748366195E-02  0.00000000000E+00 0.  1.
     999901    1    1    0    0    0 -0.67808327030E-02  0.10489594624E-01  0.86025693087E-02  0.90012777731E+00  0.90000000000E+00 0.  1.
     999903    1    1    0    0    0  0.58727637361E-02 -0.86017059605E-02 -0.26040448741E-02  0.22699333669E-01  0.20000000000E-01 0.  0.
</event>
<event>
 7    1  0.4717691E-066  0.9118800E+02  0.7957747E-01            NaN
     999900   -1    0    0    0    0  0.00000000000E+00  0.00000000000E+00  0.99999998245E-14  0.93827000000E+00  0.93827000000E+00 0. -1.
        -11    1    1    0    0    0  0.39989529702E-02  0.60114396736E-03 -0.13720641150E-02  0.43007766581E-02  0.51100000000E-03 0. -1.
        -14    1    1    0    0    0 -0.13060297140E-03  0.17536612477E-02 -0.14431305776E-02  0.22748650008E-02  0.00000000000E+00 0. -1.
         12    1    1    0    0    0 -0.45714345062E-02  0.15977558374E-02  0.91878620274E-03  0.49289963732E-02  0.00000000000E+00 0.  1.
         14    1    1    0    0    0  0.23747465665E-04  0.53565856019E-03 -0.10492379722E-02  0.11783014714E-02  0.00000000000E+00 0.  1.
     999901    1    1    0    0    0  0.28001509540E-02 -0.19535159155E-01  0.63555184326E-02  0.90023877716E+00  0.90000000000E+00 0. -1.
     999903    1    1    0    0    0 -0.21208139123E-02  0.15046939542E-01 -0.34098719706E-02  0.25348283336E-01  0.20000000000E-01 0.  0.
</event>
<event>
 7    1  0.4717691E-066  0.9118800E+02  0.7957747E-01            NaN
     999900   -1    0    0    0    0  0.00000000000E+00  0.00000000000E+00  0.99999998245E-14  0.93827000000E+00  0.93827000000E+00 0. -1.
        -11    1    1    0    0    0 -0.13815224293E-02  0.15008703131E-02 -0.25881980288E-02  0.33348322230E-02  0.51100000000E-03 0. -1.
        -14    1    1    0    0    0 -0.61784863918E-03 -0.20128046265E-02 -0.26284356951E-02  0.33677579499E-02  0.00000000000E+00 0. -1.
         12    1    1    0    0    0  0.81518315968E-03  0.40949347958E-02 -0.62993502688E-03  0.42225386563E-02  0.00000000000E+00 0.  1.
         14    1    1    0    0    0  0.18621683684E-04 -0.28716192267E-02  0.19198800281E-02  0.34543426398E-02  0.00000000000E+00 0.  1.
     999901    1    1    0    0    0 -0.52115095278E-02 -0.98168593375E-02  0.10336229125E-01  0.90012797323E+00  0.90000000000E+00 0. -1.
     999903    1    1    0    0    0  0.63770757530E-02  0.91054780818E-02 -0.64095404026E-02  0.23762555301E-01  0.20000000000E-01 0.  0.
</event>
<event>
 7    1  0.4717691E-066  0.9118800E+02  0.7957747E-01            NaN
     999900   -1    0    0    0    0  0.00000000000E+00  0.00000000000E+00  0.99999998245E-14  0.93827000000E+00  0.93827000000E+00 0.  1.
        -11    1    1    0    0    0 -0.23579324701E-02  0.12655207864E-02  0.40528786590E-02  0.48834756904E-02  0.51100000000E-03 0. -1.
        -14    1    1    0    0    0 -0.51950540637E-03  0.25611608809E-02  0.15267202102E-02  0.30265996638E-02  0.00000000000E+00 0. -1.
         12    1    1    0    0    0  0.15544066286E-02  0.15608523575E-02 -0.43978295279E-03  0.22462967512E-02  0.00000000000E+00 0.  1.
         14    1    1    0    0    0 -0.32361776352E-02  0.16131590267E-02 -0.80860713881E-03  0.37052629107E-02  0.00000000000E+00 0.  1.
     999901    1    1    0    0    0  0.49483127173E-02  0.36297070349E-02 -0.13103186806E-01  0.90011630031E+00  0.90000000000E+00 0. -1.
     999903    1    1    0    0    0 -0.38910383427E-03 -0.10630400086E-01  0.87719780284E-02  0.24292064678E-01  0.20000000000E-01 0.  0.
</event>
<event>
 7    1  0.4717691E-066  0.9118800E+02  0.7957747E-01            NaN
     999900   -1    0    0    0    0  0.00000000000E+00  0.00000000000E+00  0.99999998245E-14  0.93827000000E+00  0.93827000000E+00 0.  1.
        -11    1    1    0    0    0 -0.84517378073E-03 -0.64170960950E-04 -0.52607061781E-02  0.53529979566E-02  0.51100000000E-03 0. -1.
        -14    1    1    0    0    0 -0.24094500883E-02 -0.89257232021E-03  0.37281561511E-02  0.45278342904E-02  0.00000000000E+00 0. -1.
         12    1    1    0    0    0  0.13565990800E-02 -0.91478629135E-03  0.66951728185E-03  0.17678937789E-02  0.00000000000E+00 0.  1.
         14    1    1    0    0    0 -0.18572881657E-02 -0.26727662126E-02  0.24458744258E-02  0.40713020355E-02  0.00000000000E+00 0. -1.
     999901    1    1    0    0    0  0.10828020419E-01 -0.17687381042E-02 -0.54394443201E-02  0.90008330837E+00  0.90000000000E+00 0. -1.
     999903    1    1    0    0    0 -0.70727074642E-02  0.63130338893E-02  0.38566026395E-02  0.22466663564E-01  0.20000000000E-01 0.  0.
</event>
<event>
 7    1  0.4717691E-066  0.9118800E+02  0.7957747E-01            NaN
     999900   -1    0    0    0    0  0.00000000000E+00  0.00000000000E+00  0.99999998245E-14  0.93827000000E+00  0.93827000000E+00 0. -1.
        -11    1    1    0    0    0  0.33972511318E-02  0.49756957107E-02  0.10292156246E-02  0.61334548878E-02  0.51100000000E-03 0. -1.
        -14    1    1    0    0    0 -0.21316487612E-02  0.16643651431E-02  0.72095233382E-03  0.27988944314E-02  0.00000000000E+00 0. -1.
         12    1    1    0    0    0  0.20845930996E-02 -0.23472956455E-02  0.31278265991E-02  0.44315487668E-02  0.00000000000E+00 0.  1.
         14    1    1    0    0    0 -0.25605995923E-02  0.80610037242E-03 -0.10682654726E-02  0.28892315938E-02  0.00000000000E+00 0.  1.
     999901    1    1    0    0    0 -0.60576883176E-02 -0.19174447498E-02  0.29481439491E-02  0.90002725722E+00  0.90000000000E+00 0. -1.
     999903    1    1    0    0    0  0.52680924396E-02 -0.31814208309E-02 -0.67578730340E-02  0.21989613103E-01  0.20000000000E-01 0.  0.
</event>
<event>
 7    1  0.4717691E-066  0.9118800E+02  0.7957747E-01            NaN
     999900   -1    0    0    0    0  0.00000000000E+00  0.00000000000E+00  0.99999998245E-14  0.93827000000E+00  0.93827000000E+00 0. -1.
        -11    1    1    0    0    0  0.73119398598E-03  0.22623085949E-03 -0.20647266283E-02  0.22605402223E-02  0.51100000000E-03 0. -1.
        -14    1    1    0    0    0  0.19142655336E-02 -0.85902619412E-03  0.22558554217E-02  0.30807827283E-02  0.00000000000E+00 0. -1.
         12    1    1    0    0    0  0.28193489506E-02  0.10983082757E-02  0.48190428863E-02  0.56901831177E-02  0.00000000000E+00 0.  1.
         14    1    1    0    0    0  0.89461291663E-03 -0.15043507513E-02 -0.20176725133E-02  0.26710308543E-02  0.00000000000E+00 0.  1.
     999901    1    1    0    0    0 -0.93501885962E-02 -0.12644556030E-01 -0.22799578802E-02  0.90014027186E+00  0.90000000000E+00 0.  1.
     999903    1    1    0    0    0  0.29907672094E-02  0.13683393840E-01 -0.71254128619E-03  0.24427191213E-01  0.20000000000E-01 0.  0.
</event>
<event>
 7    1  0.4717691E-066  0.9118800E+02  0.7957747E-01            NaN
     999900   -1    0    0    0    0  0.00000000000E+00  0.00000000000E+00  0.99999998245E-14  0.93827000000E+00  0.93827000000E+00 0. -1.
        -11    1    1    0    0    0  0.11105024537E-02 -0.42149020791E-02  0.25679140239E-02  0.50846748834E-02  0.51100000000E-03 0. -1.
        -14    1    1    0    0    0  0.15236440206E-02 -0.72493595744E-03 -0.18912637753E-02  0.25345417558E-02  0.00000000000E+00 0. -1.
         12    1    1    0    0    0  0.61631169710E-03 -0.22484518179E-04 -0.56100582419E-02  0.56438549892E-02  0.00000000000E+00 0.  1.
         14    1    1    0    0    0 -0.21577735644E-02 -0.14289338627E-02  0.92277869345E-03  0.27476097351E-02  0.00000000000E+00 0.  1.
     999901    1    1    0    0    0  0.52179844697E-02  0.13457456954E-01  0.34763528206E-02  0.90012244475E+00  0.90000000000E+00 0.  1.
     999903    1    1    0    0    0 -0.63106690767E-02 -0.70662005363E-02  0.53427647930E-03  0.22136873889E-01  0.20000000000E-01 0.  0.
</event>
<event>
 7    1  0.4717691E-066  0.9118800E+02  0.7957747E-01            NaN
     999900   -1    0    0    0    0  0.00000000000E+00  0.00000000000E+00  0.99999998245E-14  0.93827000000E+00  0.93827000000E+00 0. -1.
        -11    1    1    0    0    0  0.39573702779E-03  0.29840159891E-02 -0.11105748830E-03  0.30552273212E-02  0.51100000000E-03 0. -1.
        -14    1    1    0    0    0 -0.44357627808E-02  0.18303234559E-02  0.83339399627E-03  0.48703820131E-02  0.00000000000E+00 0. -1.
         12    1    1    0    0    0  0.34752481591E-03  0.22891954100E-03  0.33530443852E-02  0.33787696434E-02  0.00000000000E+00 0.  1.
         14    1    1    0    0    0 -0.36603180413E-02  0.10369373753E-02  0.14418219608E-02  0.40684171185E-02  0.00000000000E+00 0.  1.
     999901    1    1    0    0    0  0.27091969445E-02  0.38743096396E-02 -0.68793452668E-02  0.90003870773E+00  0.90000000000E+00 0.  1.
     999903    1    1    0    0    0  0.46436220339E-02 -0.99545060010E-02  0.13621424128E-02  0.22858496173E-01  0.20000000000E-01 0.  0.
</event>
<event>
 7    1  0.4717691E-066  0.9118800E+02  0.7957747E-01            NaN
     999900   -1    0    0    0    0  0.00000000000E+00  0.00000000000E+00  0.99999998245E-14  0.93827000000E+00  0.93827000000E+00 0. -1.
        -11    1    1    0    0    0 -0.13685215911E-02  0.17316404324E-02  0.11563652119E-03  0.22684626374E-02  0.51100000000E-03 0. -1.
        -14    1    1    0    0    0  0.27080393118E-02 -0.54175945507E-03 -0.93181020268E-03  0.29146612969E-02  0.00000000000E+00 0. -1.
         12    1    1    0    0    0  0.10854428493E-02 -0.92883543616E-03 -0.10119224963E-02  0.17506880319E-02  0.00000000000E+00 0.  1.
         14    1    1    0    0    0 -0.11638116150E-03  0.25815267453E-02  0.21918136665E-02  0.33884911184E-02  0.00000000000E+00 0.  1.
     999901    1    1    0    0    0 -0.98711290262E-02 -0.26891805100E-02  0.17282374684E-01  0.90022405620E+00  0.90000000000E+00 0. -1.
     999903    1    1    0    0    0  0.75625496176E-02 -0.15339177643E-03 -0.17646092172E-01  0.27723640719E-01  0.20000000000E-01 0.  0.
</event>
<event>
 7    1  0.4717691E-066  0.9118800E+02  0.7957747E-01            NaN
     999900   -1    0    0    0    0  0.00000000000E+00  0.00000000000E+00  0.99999998245E-14  0.93827000000E+00  0.93827000000E+00 0. -1.
        -11    1    1    0    0    0  0.52199567400E-03  0.19598352068E-02  0.23390755085E-02  0.31378063605E-02  0.51100000000E-03 0. -1.
        -14    1    1    0    0    0  0.15424970841E-02 -0.56910425320E-03 -0.26858649574E-02  0.31491344009E-02  0.00000000000E+00 0. -1.
         12    1    1    0    0    0 -0.28679736317E-02 -0.43521348736E-03 -0.90708452622E-03  0.30393232585E-02  0.00000000000E+00 0.  1.
         14    1    1    0    0    0 -0.30864879337E-02 -0.72863960944E-04  0.30910974646E-02  0.43688214037E-02  0.00000000000E+00 0.  1.
     999901    1    1    0    0    0  0.12370029161E-02  0.92283063206E-02 -0.11262737222E-01  0.90011862611E+00  0.90000000000E+00 0.  1.
     999903    1    1    0    0    0  0.26529658911E-02 -0.10110959826E-01  0.94255137323E-02  0.24456288470E-01  0.20000000000E-01 0.  0.
</event>
<event>
 7    1  0.4717691E-066  0.9118800E+02  0.7957747E-01            NaN
     999900   -1    0    0    0    0  0.00000000000E+00  0.00000000000E+00  0.99999998245E-14  0.93827000000E+00  0.93827000000E+00 0.  1.
        -11    1    1    0    0    0  0.16364450577E-02 -0.22886040544E-02 -0.47032352988E-03  0.28979279093E-02  0.51100000000E-03 0. -1.
        -14    1    1    0    0    0 -0.37157536498E-02  0.45724456231E-02  0.25355668972E-02  0.64142952577E-02  0.00000000000E+00 0. -1.
         12    1    1    0    0    0 -0.92712208765E-03 -0.18617895906E-02 -0.43085633508E-02  0.47843007841E-02  0.00000000000E+00 0.  1.
         14    1    1    0    0    0 -0.19554354627E-03  0.12876903885E-02  0.13746124099E-02  0.18936586526E-02  0.00000000000E+00 0.  1.
     999901    1    1    0    0    0  0.95874914204E-02  0.53399966522E-02 -0.84077483825E-03  0.90006729885E+00  0.90000000000E+00 0. -1.
     999903    1    1    0    0    0 -0.63855171944E-02 -0.70497390188E-02  0.17094824118E-02  0.22212518547E-01  0.20000000000E-01 0.  0.
</event>
<event>
 7    1  0.4717691E-066  0.9118800E+02  0.7957747E-01            NaN
     999900   -1    0    0    0    0  0.00000000000E+00  0.00000000000E+00  0.99999998245E-14  0.93827000000E+00  0.93827000000E+00 0. -1.
        -11    1    1    0    0    0 -0.11693986558E-02 -0.16843394320E-02 -0.12872100113E-02  0.24743732846E-02  0.51100000000E-03 0. -1.
        -14    1    1    0    0    0  0.28359365528E-02  0.42777056493E-03 -0.28220450796E-02  0.40236130802E-02  0.00000000000E+00 0. -1.
         12    1    1    0    0    0  0.24446615004E-03 -0.54228475981E-02  0.13537390388E-03  0.54300428971E-02  0.00000000000E+00 0.  1.
         14    1    1    0    0    0 -0.16976819189E-02  0.85248244432E-03  0.24426746179E-02  0.30944320164E-02  0.00000000000E+00 0.  1.
     999901    1    1    0    0    0  0.10315222628E-01  0.85990687505E-02 -0.26028788819E-02  0.90010395110E+00  0.90000000000E+00 0.  1.
     999903    1    1    0    0    0 -0.10528544756E-01 -0.27721347297E-02  0.41340854511E-02  0.23143587625E-01  0.20000000000E-01 0.  0.
</event>
<event>
 7    1  0.4717691E-066  0.9118800E+02  0.7957747E-01            NaN
     999900   -1    0    0    0    0  0.00000000000E+00  0.00000000000E+00  0.99999998245E-14  0.93827000000E+00  0.93827000000E+00 0. -1.
        -11    1    1    0    0    0 -0.11349636452E-02 -0.44597046347E-03  0.21261017231E-02  0.25036896108E-02  0.51100000000E-03 0. -1.
        -14    1    1    0    0    0  0.90528793977E-03 -0.15067024326E-02 -0.21830111316E-03  0.17712577029E-02  0.00000000000E+00 0. -1.
         12    1    1    0    0    0 -0.51354912370E-02 -0.26568154405E-02  0.23484390654E-02  0.62407615380E-02  0.00000000000E+00 0.  1.
         14    1    1    0    0    0 -0.10730803011E-04  0.17047388857E-02  0.46069962712E-02  0.49122972692E-02  0.00000000000E+00 0.  1.
     999901    1    1    0    0    0  0.15122469893E-01  0.18720387914E-03 -0.12017533476E-01  0.90020727905E+00  0.90000000000E+00 0.  1.
     999903    1    1    0    0    0 -0.97465721475E-02  0.27175455717E-02  0.31542975290E-02  0.22634714831E-01  0.20000000000E-01 0.  0.
</event>
<event>
 7    1  0.4717691E-066  0.9118800E+02  0.7957747E-01            NaN
     999900   -1    0    0    0    0  0.00000000000E+00  0.00000000000E+00  0.99999998245E-14  0.93827000000E+00  0.93827000000E+00 0. -1.
        -11    1    1    0    0    0  0.28048410434E-02 -0.26115042114E-02  0.71008927718E-03  0.39309585735E-02  0.51100000000E-03 0. -1.
        -14    1    1    0    0    0 -0.46616461011E-03  0.14331384133E-02  0.21462842167E-02  0.26225428680E-02  0.00000000000E+00 0. -1.
         12    1    1    0    0    0  0.23825116949E-02 -0.64797228793E-02 -0.10578366132E-02  0.69844247343E-02  0.00000000000E+00 0.  1.
         14    1    1    0    0    0  0.82357663258E-03  0.22361735726E-03  0.41068773381E-03  0.94707317927E-03  0.00000000000E+00 0.  1.
     999901    1    1    0    0    0 -0.15180663569E-01  0.13563254498E-02  0.32255327504E-02  0.90013482114E+00  0.90000000000E+00 0. -1.
     999903    1    1    0    0    0  0.96358988080E-02  0.60781458703E-02 -0.54347573649E-02  0.23650179506E-01  0.20000000000E-01 0.  0.
</event>
<event>
 7    1  0.4717691E-066  0.9118800E+02  0.7957747E-01            NaN
     999900   -1    0    0    0    0  0.00000000000E+00  0.00000000000E+00  0.99999998245E-14  0.93827000000E+00  0.93827000000E+00 0.  1.
        -11    1    1    0    0    0  0.91989066404E-03 -0.98933709401E-03  0.15504155339E-02  0.21189374807E-02  0.51100000000E-03 0. -1.
        -14    1    1    0    0    0 -0.13963935074E-03 -0.54048246519E-04 -0.58237507555E-03  0.60131613137E-03  0.00000000000E+00 0. -1.
         12    1    1    0    0    0 -0.64560367273E-02  0.36492963814E-02 -0.20464734892E-03  0.74188715342E-02  0.00000000000E+00 0.  1.
         14    1    1    0    0    0  0.21036990184E-02  0.24515144912E-02  0.45794322073E-03  0.32626959488E-02  0.00000000000E+00 0.  1.
     999901    1    1    0    0    0 -0.47861653260E-02 -0.16079055186E-01 -0.55226267338E-02  0.90017328487E+00  0.90000000000E+00 0. -1.
     999903    1    1    0    0    0  0.83582517216E-02  0.11021629654E-01  0.43012904036E-02  0.24694894031E-01  0.20000000000E-01 0.  0.
</event>
<event>
 7    1  0.4717691E-066  0.9118800E+02  0.7957747E-01            NaN
     999900   -1    0    0    0    0  0.00000000000E+00  0.00000000000E+00  0.99999998245E-14  0.93827000000E+00  0.93827000000E+00 0.  1.
        -11    1    1    0    0    0  0.41705922350E-04  0.35746775079E-02  0.25612498098E-02  0.44273220187E-02  0.51100000000E-03 0. -1.
        -14    1    1    0    0    0  0.34753150508E-04 -0.14378410630E-03 -0.31303645007E-02  0.31338576160E-02  0.00000000000E+00 0. -1.
         12    1    1    0    0    0  0.97680316927E-03 -0.14479926231E-03  0.20872546466E-02  0.23090567810E-02  0.00000000000E+00 0.  1.
         14    1    1    0    0    0 -0.55430312240E-03  0.28796037200E-02  0.73488204831E-03  0.30231475585E-02  0.00000000000E+00 0.  1.
     999901    1    1    0    0    0 -0.10631407823E-01  0.37605290946E-02  0.39720955144E-02  0.90007941092E+00  0.90000000000E+00 0. -1.
     999903    1    1    0    0    0  0.10132448703E-01 -0.99262269539E-02 -0.62251175184E-02  0.25297205110E-01  0.20000000000E-01 0.  0.
</event>
<event>
 7    1  0.4717691E-066  0.9118800E+02  0.7957747E-01            NaN
     999900   -1    0    0    0    0  0.00000000000E+00  0.00000000000E+00  0.99999998245E-14  0.93827000000E+00  0.93827000000E+00 0.  1.
        -11    1    1    0    0    0  0.24777168186E-02 -0.57483760917E-02  0.72221776657E-03  0.63218373775E-02  0.51100000000E-03 0. -1.
        -14    1    1    0    0    0 -0.32724801390E-02  0.25345004521E-02  0.10123222612E-02  0.42611753264E-02  0.00000000000E+00 0. -1.
         12    1    1    0    0    0  0.54819298677E-05  0.97759711878E-04 -0.11809960049E-02  0.11850479216E-02  0.00000000000E+00 0.  1.
         14    1    1    0    0    0 -0.43560562569E-02 -0.21005229849E-02  0.32388590532E-02  0.58204493718E-02  0.00000000000E+00 0.  1.
     999901    1    1    0    0    0  0.51121457617E-02  0.92998457616E-02 -0.88578846844E-03  0.90006300101E+00  0.90000000000E+00 0.  1.
     999903    1    1    0    0    0  0.33191885772E-04 -0.40832068489E-02 -0.29066146076E-02  0.20618488993E-01  0.20000000000E-01 0.  0.
</event>
<event>
 7    1  0.4717691E-066  0.9118800E+02  0.7957747E-01            NaN
     999900   -1    0    0    0    0  0.00000000000E+00  0.00000000000E+00  0.99999998245E-14  0.93827000000E+00  0.93827000000E+00 0.  1.
        -11    1    1    0    0    0 -0.28521678662E-02 -0.25238325917E-02 -0.27791995234E-02  0.47423268001E-02  0.51100000000E-03 0. -1.
        -14    1    1    0    0    0  0.10651750948E-02  0.19070288501E-03  0.46602294672E-03  0.11781947886E-02  0.00000000000E+00 0. -1.
         12    1    1    0    0    0 -0.78813427765E-02  0.15271947267E-02 -0.99421150128E-03  0.80892734039E-02  0.00000000000E+00 0.  1.
         14    1    1    0    0    0  0.34036257778E-03 -0.35315247631E-03  0.12472413305E-02  0.13402142711E-02  0.00000000000E+00 0.  1.
     999901    1    1    0    0    0  0.11738626293E-01 -0.69982794751E-02 -0.48414975626E-02  0.90011677651E+00  0.90000000000E+00 0. -1.
     999903    1    1    0    0    0 -0.24106533232E-02  0.81573669315E-02  0.69016443101E-02  0.22803214223E-01  0.20000000000E-01 0.  0.
</event>
<event>
 7    1  0.4717691E-066  0.9118800E+02  0.7957747E-01            NaN
     999900   -1    0    0    0    0  0.00000000000E+00  0.00000000000E+00  0.99999998245E-14  0.93827000000E+00  0.93827000000E+00 0. -1.
        -11    1    1    0    0    0 -0.12841407617E-02  0.29502642503E-02  0.91269599703E-03  0.33833728180E-02  0.51100000000E-03 0. -1.
        -14    1    1    0    0    0  0.45355478006E-02  0.12071981075E-02 -0.40133188874E-02  0.61753744513E-02  0.00000000000E+00 0. -1.
         12    1    1    0    0    0 -0.13526168674E-02 -0.12415375370E-02  0.10428059438E-02  0.21114999603E-02  0.00000000000E+00 0.  1.
         14    1    1    0    0    0 -0.73905163376E-03  0.12296678360E-02 -0.31147550968E-02  0.34292826680E-02  0.00000000000E+00 0.  1.
     999901    1    1    0    0    0  0.31519727517E-02  0.14038110080E-02 -0.41406608868E-02  0.90001613913E+00  0.90000000000E+00 0.  1.
     999903    1    1    0    0    0 -0.43117112894E-02 -0.55494036648E-02  0.93132329302E-02  0.23154330975E-01  0.20000000000E-01 0.  0.
</event>
<event>
 7    1  0.4717691E-066  0.9118800E+02  0.7957747E-01            NaN
     999900   -1    0    0    0    0  0.00000000000E+00  0.00000000000E+00  0.99999998245E-14  0.93827000000E+00  0.93827000000E+00 0. -1.
        -11    1    1    0    0    0 -0.23110230172E-02 -0.39669173821E-02  0.27364949912E-02  0.53690582730E-02  0.51100000000E-03 0. -1.
        -14    1    1    0    0    0  0.26897515682E-03  0.18165212222E-02  0.13868935035E-02  0.23012106761E-02  0.00000000000E+00 0. -1.
         12    1    1    0    0    0 -0.25467967166E-02 -0.14998649937E-02 -0.24347834670E-02  0.38293523011E-02  0.00000000000E+00 0.  1.
         14    1    1    0    0    0  0.73610390349E-03  0.52624096037E-03  0.16409397908E-03  0.91962238940E-03  0.00000000000E+00 0.  1.
     999901    1    1    0    0    0  0.18267867624E-01 -0.25887025227E-02  0.23814296265E-02  0.90019225034E+00  0.90000000000E+00 0. -1.
     999903    1    1    0    0    0 -0.14415126950E-01  0.57127227159E-02 -0.42341286332E-02  0.25658506019E-01  0.20000000000E-01 0.  0.
</event>
<event>
 7    1  0.8559992E-066  0.9118800E+02  0.7957747E-01            NaN
     999900   -1    0    0    0    0  0.00000000000E+00  0.00000000000E+00  0.99999998245E-14  0.93827000000E+00  0.93827000000E+00 0.  1.
        -11    1    1    0    0    0 -0.39977521703E-03  0.17348646812E-02 -0.13852417000E-02  0.23129183413E-02  0.51100000000E-03 0. -1.
        -14    1    1    0    0    0  0.10789619928E-02 -0.60922099801E-02  0.24747108771E-02  0.66635857726E-02  0.00000000000E+00 0. -1.
         12    1    1    0    0    0 -0.28888548186E-02 -0.53980148364E-02 -0.22076589523E-03  0.61264005678E-02  0.00000000000E+00 0.  1.
         14    1    1    0    0    0  0.57136689874E-03  0.12205319956E-02  0.88354514725E-03  0.16114622280E-02  0.00000000000E+00 0.  1.
     999901    1    1    0    0    0  0.30672840082E-02  0.10186831724E-01 -0.91790791319E-02  0.90010967958E+00  0.90000000000E+00 0.  1.
     999903    1    1    0    0    0 -0.14289828641E-02 -0.16520035845E-02  0.74268307028E-02  0.21445953515E-01  0.20000000000E-01 0.  0.
</event>
<event>
 7    1  0.4717691E-066  0.9118800E+02  0.7957747E-01            NaN
     999900   -1    0    0    0    0  0.00000000000E+00  0.00000000000E+00  0.99999998245E-14  0.93827000000E+00  0.93827000000E+00 0. -1.
        -11    1    1    0    0    0 -0.15756953593E-02  0.72882946425E-03  0.19987491679E-03  0.18207359050E-02  0.51100000000E-03 0. -1.
        -14    1    1    0    0    0  0.81600603233E-03 -0.13644654650E-02  0.78591437331E-03  0.17734974632E-02  0.00000000000E+00 0. -1.
         12    1    1    0    0    0 -0.52563323796E-03  0.34262860331E-02  0.24643273452E-02  0.42530736586E-02  0.00000000000E+00 0.  1.
         14    1    1    0    0    0 -0.24495919716E-02 -0.69695472661E-03  0.96078556739E-03  0.27220131566E-02  0.00000000000E+00 0.  1.
     999901    1    1    0    0    0 -0.11848067602E-01  0.66803261071E-02 -0.10606572466E-01  0.90016526418E+00  0.90000000000E+00 0.  1.
     999903    1    1    0    0    0  0.15582982139E-01 -0.87740214128E-02  0.61956702630E-02  0.27535415633E-01  0.20000000000E-01 0.  0.
</event>
<event>
 7    1  0.4717691E-066  0.9118800E+02  0.7957747E-01            NaN
     999900   -1    0    0    0    0  0.00000000000E+00  0.00000000000E+00  0.99999998245E-14  0.93827000000E+00  0.93827000000E+00 0. -1.
        -11    1    1    0    0    0 -0.10285604229E-03 -0.41156158954E-02  0.14310286359E-02  0.43883752711E-02  0.51100000000E-03 0. -1.
        -14    1    1    0    0    0 -0.12352220216E-04  0.60354435564E-03  0.46193601675E-02  0.46586378614E-02  0.00000000000E+00 0. -1.
         12    1    1    0    0    0 -0.51738085429E-02 -0.54857421063E-03 -0.47215678030E-03  0.52241899399E-02  0.00000000000E+00 0.  1.
         14    1    1    0    0    0  0.11126589387E-02 -0.56043768425E-03  0.46913525674E-03  0.13312355918E-02  0.00000000000E+00 0.  1.
     999901    1    1    0    0    0  0.10725449717E-01  0.95715554546E-02 -0.12173011974E-01  0.90019710740E+00  0.90000000000E+00 0.  1.
     999903    1    1    0    0    0 -0.65490918504E-02 -0.49504720200E-02  0.61256446946E-02  0.22470453939E-01  0.20000000000E-01 0.  0.
</event>
<event>
 7    1  0.4717691E-066  0.9118800E+02  0.7957747E-01            NaN
     999900   -1    0    0    0    0  0.00000000000E+00  0.00000000000E+00  0.99999998245E-14  0.93827000000E+00  0.93827000000E+00 0. -1.
        -11    1    1    0    0    0 -0.69958783057E-03  0.12633525818E-02  0.10576345379E-02  0.18615033426E-02  0.51100000000E-03 0. -1.
        -14    1    1    0    0    0  0.10700642928E-02 -0.27476303389E-03 -0.76419887846E-03  0.13433287912E-02  0.00000000000E+00 0. -1.
         12    1    1    0    0    0  0.11012455963E-03 -0.27091160817E-02  0.35100740937E-02  0.44353193240E-02  0.00000000000E+00 0.  1.
         14    1    1    0    0    0 -0.23468031957E-03 -0.22858565379E-02 -0.40993398870E-02  0.46994470391E-02  0.00000000000E+00 0.  1.
     999901    1    1    0    0    0 -0.23972947491E-02  0.18926067770E-01 -0.55218544314E-02  0.90021910330E+00  0.90000000000E+00 0. -1.
     999903    1    1    0    0    0  0.21513740469E-02 -0.14919684698E-01  0.58176845653E-02  0.25711298207E-01  0.20000000000E-01 0.  0.
</event>
<event>
 7    1  0.4717691E-066  0.9118800E+02  0.7957747E-01            NaN
     999900   -1    0    0    0    0  0.00000000000E+00  0.00000000000E+00  0.99999998245E-14  0.93827000000E+00  0.93827000000E+00 0. -1.
        -11    1    1    0    0    0  0.53279667202E-03 -0.28294653844E-02  0.17498168023E-02  0.34077450751E-02  0.51100000000E-03 0. -1.
        -14    1    1    0    0    0 -0.48652367385E-02  0.20511159160E-02 -0.95341039075E-03  0.53653141935E-02  0.00000000000E+00 0. -1.
         12    1    1    0    0    0  0.70138453485E-03  0.80333204542E-04  0.42702868461E-02  0.43282494657E-02  0.00000000000E+00 0.  1.
         14    1    1    0    0    0  0.28749673450E-03 -0.87059871541E-03 -0.22057995584E-02  0.23887545264E-02  0.00000000000E+00 0.  1.
     999901    1    1    0    0    0  0.79212301297E-02  0.10892597047E-01 -0.52600669632E-02  0.90011613854E+00  0.90000000000E+00 0.  1.
     999903    1    1    0    0    0 -0.45776713326E-02 -0.93239820678E-02  0.23991732640E-02  0.22663798198E-01  0.20000000000E-01 0.  0.
</event>
<event>
 7    1  0.4717691E-066  0.9118800E+02  0.7957747E-01            NaN
     999900   -1    0    0    0    0  0.00000000000E+00  0.00000000000E+00  0.99999998245E-14  0.93827000000E+00  0.93827000000E+00 0.  1.
        -11    1    1    0    0    0 -0.12470747103E-02 -0.64699153245E-03 -0.19745114730E-02  0.24766125925E-02  0.51100000000E-03 0. -1.
        -14    1    1    0    0    0 -0.17919078796E-02 -0.40604052890E-02  0.17291436755E-02  0.47631673086E-02  0.00000000000E+00 0. -1.
         12    1    1    0    0    0  0.39109560663E-02 -0.98523178681E-03  0.35950246547E-03  0.40491358397E-02  0.00000000000E+00 0.  1.
         14    1    1    0    0    0  0.72372001521E-04 -0.18583353682E-02  0.25378191289E-02  0.31462952783E-02  0.00000000000E+00 0.  1.
     999901    1    1    0    0    0  0.11264133545E-01  0.66735389736E-02  0.10522047828E-02  0.90009584154E+00  0.90000000000E+00 0. -1.
     999903    1    1    0    0    0 -0.12208479023E-01  0.87742500278E-03 -0.37041585797E-02  0.23738947438E-01  0.20000000000E-01 0.  0.
</event>
<event>
 7    1  0.4717691E-066  0.9118800E+02  0.7957747E-01            NaN
     999900   -1    0    0    0    0  0.00000000000E+00  0.00000000000E+00  0.99999998245E-14  0.93827000000E+00  0.93827000000E+00 0.  1.
        -11    1    1    0    0    0 -0.32891979284E-02  0.26543339604E-02 -0.15054000989E-02  0.45157128168E-02  0.51100000000E-03 0. -1.
        -14    1    1    0    0    0  0.29447358449E-02 -0.12561290126E-02 -0.17715609478E-02  0.36589284612E-02  0.00000000000E+00 0. -1.
         12    1    1    0    0    0 -0.85526974413E-03 -0.23737683919E-02 -0.45790697272E-03  0.25643598635E-02  0.00000000000E+00 0.  1.
         14    1    1    0    0    0  0.14244715443E-02  0.36662823791E-02 -0.43338620270E-02  0.58526152900E-02  0.00000000000E+00 0.  1.
     999901    1    1    0    0    0 -0.22585473518E-02  0.30568963128E-02  0.13373157004E-01  0.90010737525E+00  0.90000000000E+00 0.  1.
     999903    1    1    0    0    0  0.20338076351E-02 -0.57476152478E-02 -0.53044269573E-02  0.21571008319E-01  0.20000000000E-01 0.  0.
</event>
<event>
 7    1  0.4717691E-066  0.9118800E+02  0.7957747E-01            NaN
     999900   -1    0    0    0    0  0.00000000000E+00  0.00000000000E+00  0.99999998245E-14  0.93827000000E+00  0.93827000000E+00 0.  1.
        -11    1    1    0    0    0  0.72218107149E-04  0.70469257727E-03 -0.21469979890E-02  0.23178715340E-02  0.51100000000E-03 0. -1.
        -14    1    1    0    0    0  0.87799231021E-03 -0.41803984565E-02 -0.51063241856E-02  0.66574130441E-02  0.00000000000E+00 0. -1.
         12    1    1    0    0    0 -0.35282975858E-02  0.13114970779E-02  0.15496979835E-02  0.40706844977E-02  0.00000000000E+00 0.  1.
         14    1    1    0    0    0 -0.22949473320E-02 -0.18596160078E-02  0.11402389014E-03  0.29560034507E-02  0.00000000000E+00 0.  1.
     999901    1    1    0    0    0  0.10907865999E-01  0.11252227351E-01  0.60718370094E-02  0.90015690930E+00  0.90000000000E+00 0.  1.
     999903    1    1    0    0    0 -0.60348314982E-02 -0.72284025416E-02 -0.48223670846E-03  0.22111118171E-01  0.20000000000E-01 0.  0.
</event>
<event>
 7    1  0.4717691E-066  0.9118800E+02  0.7957747E-01            NaN
     999900   -1    0    0    0    0  0.00000000000E+00  0.00000000000E+00  0.99999998245E-14  0.93827000000E+00  0.93827000000E+00 0. -1.
        -11    1    1    0    0    0  0.31408604453E-02  0.22188322311E-02 -0.31037772646E-03  0.38917446138E-02  0.51100000000E-03 0. -1.
        -14    1    1    0    0    0 -0.23882367335E-02  0.11294067949E-02 -0.61388283471E-03  0.27122106368E-02  0.00000000000E+00 0. -1.
         12    1    1    0    0    0  0.18992455728E-02 -0.39667058241E-02  0.10133929911E-03  0.43991088295E-02  0.00000000000E+00 0.  1.
         14    1    1    0    0    0 -0.40064777421E-03  0.66364606735E-03  0.19371148045E-02  0.20864703466E-02  0.00000000000E+00 0.  1.
     999901    1    1    0    0    0 -0.11362167693E-03 -0.14477651746E-01  0.27749089447E-02  0.90012072270E+00  0.90000000000E+00 0.  1.
     999903    1    1    0    0    0 -0.21375998334E-02  0.14432472477E-01 -0.38891024871E-02  0.25059742876E-01  0.20000000000E-01 0.  0.
</event>
<event>
 7    1  0.4717691E-066  0.9118800E+02  0.7957747E-01            NaN
     999900   -1    0    0    0    0  0.00000000000E+00  0.00000000000E+00  0.99999998245E-14  0.93827000000E+00  0.93827000000E+00 0.  1.
        -11    1    1    0    0    0 -0.14103572131E-03 -0.13880528653E-02  0.53087667383E-03  0.15778253625E-02  0.51100000000E-03 0. -1.
        -14    1    1    0    0    0 -0.10522761174E-03  0.23654519790E-02 -0.56758552833E-02  0.61499405780E-02  0.00000000000E+00 0. -1.
         12    1    1    0    0    0 -0.20381286515E-02 -0.11818271448E-02 -0.91947071886E-03  0.25290532226E-02  0.00000000000E+00 0.  1.
         14    1    1    0    0    0 -0.18691138879E-02  0.28989794960E-02 -0.11800172606E-02  0.36455602559E-02  0.00000000000E+00 0.  1.
     999901    1    1    0    0    0 -0.23573880893E-02  0.38595999627E-02  0.17237733325E-01  0.90017642340E+00  0.90000000000E+00 0.  1.
     999903    1    1    0    0    0  0.65108939617E-02 -0.65541514276E-02 -0.99932667362E-02  0.24191197184E-01  0.20000000000E-01 0.  0.
</event>
<event>
 7    1  0.4717691E-066  0.9118800E+02  0.7957747E-01            NaN
     999900   -1    0    0    0    0  0.00000000000E+00  0.00000000000E+00  0.99999998245E-14  0.93827000000E+00  0.93827000000E+00 0. -1.
        -11    1    1    0    0    0  0.72997583109E-02  0.12447334755E-02 -0.39484163560E-02  0.84075528868E-02  0.51100000000E-03 0. -1.
        -14    1    1    0    0    0  0.41060256546E-04 -0.98045688664E-03 -0.26640460660E-03  0.10168348271E-02  0.00000000000E+00 0. -1.
         12    1    1    0    0    0 -0.76287804112E-03  0.10332710949E-02 -0.36339178207E-03  0.13347979804E-02  0.00000000000E+00 0.  1.
         14    1    1    0    0    0  0.14254955686E-02 -0.93415053659E-03  0.30122259225E-02  0.34609507147E-02  0.00000000000E+00 0.  1.
     999901    1    1    0    0    0 -0.16081171916E-01 -0.82845380723E-02  0.78937181572E-02  0.90021638979E+00  0.90000000000E+00 0. -1.
     999903    1    1    0    0    0  0.80777358210E-02  0.79211409251E-02 -0.63277313350E-02  0.23833473800E-01  0.20000000000E-01 0.  0.
</event>
<event>
 7    1  0.4717691E-066  0.9118800E+02  0.7957747E-01            NaN
     999900   -1    0    0    0    0  0.00000000000E+00  0.00000000000E+00  0.99999998245E-14  0.93827000000E+00  0.93827000000E+00 0.  1.
        -11    1    1    0    0    0  0.32713602458E-03 -0.26008435885E-02 -0.27899742606E-02  0.38621862624E-02  0.51100000000E-03 0. -1.
        -14    1    1    0    0    0  0.13595479614E-02 -0.63759589353E-03  0.37600381671E-03  0.15479916192E-02  0.00000000000E+00 0. -1.
         12    1    1    0    0    0 -0.19799392882E-02  0.35552311178E-02 -0.41159104627E-02  0.57879656895E-02  0.00000000000E+00 0.  1.
         14    1    1    0    0    0  0.63373149167E-03 -0.16593709693E-02  0.29500029249E-02  0.34434931210E-02  0.00000000000E+00 0.  1.
     999901    1    1    0    0    0 -0.48868195020E-02  0.20068364030E-02 -0.80290249391E-02  0.90005131723E+00  0.90000000000E+00 0. -1.
     999903    1    1    0    0    0  0.45463433125E-02 -0.66425706954E-03  0.11608902921E-01  0.23577046083E-01  0.20000000000E-01 0.  0.
</event>
<event>
 7    1  0.4717691E-066  0.9118800E+02  0.7957747E-01            NaN
     999900   -1    0    0    0    0  0.00000000000E+00  0.00000000000E+00  0.99999998245E-14  0.93827000000E+00  0.93827000000E+00 0. -1.
        -11    1    1    0    0    0  0.71458538667E-02  0.81871121551E-03 -0.37598228081E-03  0.72205262422E-02  0.51100000000E-03 0. -1.
        -14    1    1    0    0    0 -0.11319394630E-02  0.36584036004E-02  0.25197861671E-03  0.38377984672E-02  0.00000000000E+00 0. -1.
         12    1    1    0    0    0  0.50228125341E-03  0.11110694407E-02  0.36275893581E-03  0.12721461414E-02  0.00000000000E+00 0.  1.
         14    1    1    0    0    0 -0.43811067738E-02 -0.32977714950E-03 -0.30977592437E-03  0.44044080936E-02  0.00000000000E+00 0.  1.
     999901    1    1    0    0    0 -0.56397427055E-02 -0.58938098241E-02 -0.68826451727E-02  0.90006328361E+00  0.90000000000E+00 0.  1.
     999903    1    1    0    0    0  0.35046538222E-02  0.63540271699E-03  0.69536658254E-02  0.21471837449E-01  0.20000000000E-01 0.  0.
</event>
<event>
 7    1  0.4717691E-066  0.9118800E+02  0.7957747E-01            NaN
     999900   -1    0    0    0    0  0.00000000000E+00  0.00000000000E+00  0.99999998245E-14  0.93827000000E+00  0.93827000000E+00 0. -1.
        -11    1    1    0    0    0 -0.28569235887E-02 -0.25222565384E-02  0.55636524453E-03  0.38851581335E-02  0.51100000000E-03 0. -1.
        -14    1    1    0    0    0 -0.14715915402E-03  0.14624375008E-02 -0.13666643624E-02  0.20070253460E-02  0.00000000000E+00 0. -1.
         12    1    1    0    0    0 -0.27629994776E-02  0.43329950492E-02 -0.54691298555E-02  0.75046914385E-02  0.00000000000E+00 0.  1.
         14    1    1    0    0    0  0.18029557582E-02 -0.80684382863E-03 -0.58387890270E-03  0.20597478008E-02  0.00000000000E+00 0.  1.
     999901    1    1    0    0    0  0.11007608947E-01 -0.69722740426E-02  0.13326206228E-01  0.90019296144E+00  0.90000000000E+00 0. -1.
     999903    1    1    0    0    0 -0.70434824848E-02  0.45059418597E-02 -0.64628983522E-02  0.22620415838E-01  0.20000000000E-01 0.  0.
</event>
<event>
 7    1  0.4717691E-066  0.9118800E+02  0.7957747E-01            NaN
     999900   -1    0    0    0    0  0.00000000000E+00  0.00000000000E+00  0.99999998245E-14  0.93827000000E+00  0.93827000000E+00 0.  1.
        -11    1    1    0    0    0  0.31951308300E-03  0.38708317482E-03 -0.44945055786E-03  0.84560558087E-03  0.51100000000E-03 0. -1.
        -14    1    1    0    0    0  0.96020360502E-04 -0.57872764441E-02  0.13469876731E-02  0.59427404740E-02  0.00000000000E+00 0. -1.
         12    1    1    0    0    0 -0.84346899235E-03 -0.19621060398E-02 -0.48705652149E-02  0.53182427140E-02  0.00000000000E+00 0.  1.
         14    1    1    0    0    0  0.29911432543E-02  0.15998725284E-02  0.87040976252E-03  0.35020198785E-02  0.00000000000E+00 0.  1.
     999901    1    1    0    0    0 -0.68788764880E-02  0.11437983966E-01  0.10548482199E-01  0.90016077280E+00  0.90000000000E+00 0. -1.
     999903    1    1    0    0    0  0.43156687826E-02 -0.56755571853E-02 -0.74458638621E-02  0.22500618548E-01  0.20000000000E-01 0.  0.
</event>
<event>
 7    1  0.4717691E-066  0.9118800E+02  0.7957747E-01            NaN
     999900   -1    0    0    0    0  0.00000000000E+00  0.00000000000E+00  0.99999998245E-14  0.93827000000E+00  0.93827000000E+00 0. -1.
        -11    1    1    0    0    0  0.17492835543E-02  0.15422167965E-02 -0.28760252017E-02  0.37377891274E-02  0.51100000000E-03 0. -1.
        -14    1    1    0    0    0  0.71070809964E-03  0.37303545881E-02  0.79824283218E-03  0.38804436570E-02  0.00000000000E+00 0. -1.
         12    1    1    0    0    0 -0.12530429016E-03 -0.50953213845E-02 -0.32328698996E-02  0.60356813173E-02  0.00000000000E+00 0.  1.
         14    1    1    0    0    0  0.19539550138E-02  0.28457347609E-02  0.16600359346E-02  0.38303871645E-02  0.00000000000E+00 0.  1.
     999901    1    1    0    0    0 -0.29204482001E-02  0.23920359963E-02  0.31033555097E-02  0.90001326750E+00  0.90000000000E+00 0. -1.
     999903    1    1    0    0    0 -0.13681941774E-02 -0.54150207573E-02  0.54726082474E-03  0.20772431238E-01  0.20000000000E-01 0.  0.
</event>
<event>
 7    1  0.4717691E-066  0.9118800E+02  0.7957747E-01            NaN
     999900   -1    0    0    0    0  0.00000000000E+00  0.00000000000E+00  0.99999998245E-14  0.93827000000E+00  0.93827000000E+00 0. -1.
        -11    1    1    0    0    0 -0.28407034741E-02  0.10911901200E-03 -0.83166453052E-03  0.30057095797E-02  0.51100000000E-03 0. -1.
        -14    1    1    0    0    0  0.14680089353E-02 -0.22309230477E-02 -0.25363609274E-02  0.36830957947E-02  0.00000000000E+00 0. -1.
         12    1    1    0    0    0 -0.44285162189E-02  0.80534129564E-03  0.94810455064E-03  0.45999166017E-02  0.00000000000E+00 0.  1.
         14    1    1    0    0    0  0.88374312392E-03 -0.23881057893E-03  0.55163959640E-03  0.10688024354E-02  0.00000000000E+00 0.  1.
     999901    1    1    0    0    0 -0.10168317607E-01  0.13875552863E-02 -0.44754797804E-02  0.90006963615E+00  0.90000000000E+00 0.  1.
     999903    1    1    0    0    0  0.15085785241E-01  0.16771803270E-03  0.63437610913E-02  0.25842839443E-01  0.20000000000E-01 0.  0.
</event>
<event>
 7    1  0.4717691E-066  0.9118800E+02  0.7957747E-01            NaN
     999900   -1    0    0    0    0  0.00000000000E+00  0.00000000000E+00  0.99999998245E-14  0.93827000000E+00  0.93827000000E+00 0. -1.
        -11    1    1    0    0    0 -0.35599104988E-02  0.11087882850E-02  0.38269563676E-02  0.53674100141E-02  0.51100000000E-03 0. -1.
        -14    1    1    0    0    0  0.75776603345E-03 -0.35996002834E-02 -0.12190025103E-02  0.38752159529E-02  0.00000000000E+00 0. -1.
         12    1    1    0    0    0  0.12707012085E-02 -0.14819391511E-02 -0.67485737560E-03  0.20654921172E-02  0.00000000000E+00 0.  1.
         14    1    1    0    0    0 -0.14035979676E-02  0.87776050429E-03  0.32735448788E-02  0.36683302511E-02  0.00000000000E+00 0.  1.
     999901    1    1    0    0    0  0.42155666283E-02 -0.94413121596E-03 -0.16046926623E-01  0.90015341261E+00  0.90000000000E+00 0.  1.
     999903    1    1    0    0    0 -0.12805254039E-02  0.40391218612E-02  0.10840285263E-01  0.23140139051E-01  0.20000000000E-01 0.  0.
</event>
<event>
 7    1  0.4717691E-066  0.9118800E+02  0.7957747E-01            NaN
     999900   -1    0    0    0    0  0.00000000000E+00  0.00000000000E+00  0.99999998245E-14  0.93827000000E+00  0.93827000000E+00 0. -1.
        -11    1    1    0    0    0 -0.10981532433E-02  0.72327825133E-03 -0.82315250750E-03  0.16333318785E-02  0.51100000000E-03 0. -1.
        -14    1    1    0    0    0  0.10059971432E-02  0.13595523369E-02  0.18923784907E-02  0.25380128370E-02  0.00000000000E+00 0. -1.
         12    1    1    0    0    0 -0.36700613765E-02 -0.32020534006E-02  0.52450476864E-03  0.48987347081E-02  0.00000000000E+00 0.  1.
         14    1    1    0    0    0 -0.26864948909E-03  0.27846320122E-02 -0.87201036854E-03  0.29303156953E-02  0.00000000000E+00 0.  1.
     999901    1    1    0    0    0  0.11354745633E-02 -0.47610546618E-02  0.15538702138E-01  0.90014743693E+00  0.90000000000E+00 0. -1.
     999903    1    1    0    0    0  0.28953924024E-02  0.30956454620E-02 -0.16260422522E-01  0.26122167953E-01  0.20000000000E-01 0.  0.
</event>
<event>
 7    1  0.4717691E-066  0.9118800E+02  0.7957747E-01            NaN
     999900   -1    0    0    0    0  0.00000000000E+00  0.00000000000E+00  0.99999998245E-14  0.93827000000E+00  0.93827000000E+00 0. -1.
        -11    1    1    0    0    0 -0.44288344552E-03 -0.17806851109E-02 -0.51715139793E-03  0.19737152223E-02  0.51100000000E-03 0. -1.
        -14    1    1    0    0    0  0.50960609533E-03  0.14847088557E-02 -0.13487047817E-03  0.15755154091E-02  0.00000000000E+00 0. -1.
         12    1    1    0    0    0  0.34137430394E-02  0.16490203841E-02 -0.13896673235E-02  0.40378317246E-02  0.00000000000E+00 0.  1.
         14    1    1    0    0    0 -0.14338832882E-02 -0.45139945539E-02  0.34722591290E-02  0.58727124547E-02  0.00000000000E+00 0.  1.
     999901    1    1    0    0    0 -0.15623562397E-01 -0.17142224535E-02 -0.21568293613E-02  0.90013981479E+00  0.90000000000E+00 0. -1.
     999903    1    1    0    0    0  0.13576979996E-01  0.48751728785E-02  0.72625943186E-03  0.24670410397E-01  0.20000000000E-01 0.  0.
</event>
<event>
 7    1  0.4717691E-066  0.9118800E+02  0.7957747E-01            NaN
     999900   -1    0    0    0    0  0.00000000000E+00  0.00000000000E+00  0.99999998245E-14  0.93827000000E+00  0.93827000000E+00 0. -1.
        -11    1    1    0    0    0 -0.93927712556E-03 -0.34093398869E-03 -0.13720211228E-02  0.17725801716E-02  0.51100000000E-03 0. -1.
        -14    1    1    0    0    0  0.12193745719E-02  0.27445470181E-02 -0.15813208265E-02  0.33941108169E-02  0.00000000000E+00 0. -1.
         12    1    1    0    0    0 -0.43783359954E-02 -0.16001425218E-02  0.21867291992E-02  0.51489869653E-02  0.00000000000E+00 0.  1.
         14    1    1    0    0    0 -0.12608005397E-02 -0.14988263201E-02 -0.44847030097E-02  0.48937367546E-02  0.00000000000E+00 0.  1.
     999901    1    1    0    0    0  0.13782372976E-01 -0.36687112980E-02  0.11038565920E-01  0.90018068363E+00  0.90000000000E+00 0. -1.
     999903    1    1    0    0    0 -0.84233338868E-02  0.43640671105E-02 -0.57872501600E-02  0.22879901659E-01  0.20000000000E-01 0.  0.
</event>
<event>
 7    1  0.9966768E-066  0.9118800E+02  0.7957747E-01            NaN
     999900   -1    0    0    0    0  0.00000000000E+00  0.00000000000E+00  0.99999998245E-14  0.93827000000E+00  0.93827000000E+00 0.  1.
        -11    1    1    0    0    0  0.16720179877E-02 -0.23085146463E-03  0.32092125992E-04  0.17638275013E-02  0.51100000000E-03 0. -1.
        -14    1    1    0    0    0 -0.98467774227E-02  0.32021732676E-02  0.54745532428E-02  0.11712543381E-01  0.00000000000E+00 0. -1.
         12    1    1    0    0    0 -0.21816662820E-02  0.51759455009E-03 -0.14700685847E-02  0.26811701789E-02  0.00000000000E+00 0.  1.
         14    1    1    0    0    0  0.84347274555E-03  0.69362231933E-03 -0.22584073129E-03  0.11151512141E-02  0.00000000000E+00 0.  1.
     999901    1    1    0    0    0  0.60179093659E-02 -0.65228892352E-02 -0.82574015118E-02  0.90008163407E+00  0.90000000000E+00 0. -1.
     999903    1    1    0    0    0  0.34950436056E-02  0.23403505628E-02  0.44466654590E-02  0.20915673651E-01  0.20000000000E-01 0.  0.
</event>
<event>
 7    1  0.4717691E-066  0.9118800E+02  0.7957747E-01            NaN
     999900   -1    0    0    0    0  0.00000000000E+00  0.00000000000E+00  0.99999998245E-14  0.93827000000E+00  0.93827000000E+00 0. -1.
        -11    1    1    0    0    0 -0.32056133990E-02  0.10012240327E-02 -0.26120368992E-02  0.42851213040E-02  0.51100000000E-03 0. -1.
        -14    1    1    0    0    0  0.30552286270E-03 -0.67033284136E-05 -0.13342453675E-02  0.13687950376E-02  0.00000000000E+00 0. -1.
         12    1    1    0    0    0 -0.45255133155E-02  0.64822752470E-02 -0.26008628628E-02  0.83225387219E-02  0.00000000000E+00 0.  1.
         14    1    1    0    0    0  0.19287066173E-02 -0.18099199658E-02 -0.14392479441E-04  0.26449814067E-02  0.00000000000E+00 0.  1.
     999901    1    1    0    0    0  0.26882975680E-02 -0.35476524658E-02 -0.90737909473E-03  0.90001146444E+00  0.90000000000E+00 0.  1.
     999903    1    1    0    0    0  0.28085996665E-02 -0.21192235197E-02  0.74689167036E-02  0.21637099093E-01  0.20000000000E-01 0.  0.
</event>
<event>
 7    1  0.4717691E-066  0.9118800E+02  0.7957747E-01            NaN
     999900   -1    0    0    0    0  0.00000000000E+00  0.00000000000E+00  0.99999998245E-14  0.93827000000E+00  0.93827000000E+00 0. -1.
        -11    1    1    0    0    0 -0.24120070461E-02 -0.35492891179E-02 -0.91730886147E-03  0.44178963071E-02  0.51100000000E-03 0. -1.
        -14    1    1    0    0    0  0.49978277295E-02  0.31280627109E-02  0.10453237494E-02  0.59879679423E-02  0.00000000000E+00 0. -1.
         12    1    1    0    0    0  0.88033968891E-03  0.14504048125E-03 -0.52550813705E-03  0.10354677741E-02  0.00000000000E+00 0.  1.
         14    1    1    0    0    0  0.24004846209E-02 -0.15086027317E-02  0.17923150769E-02  0.33541916988E-02  0.00000000000E+00 0.  1.
     999901    1    1    0    0    0 -0.17541676981E-01  0.17265635133E-03  0.63947946890E-03  0.90017117771E+00  0.90000000000E+00 0.  1.
     999903    1    1    0    0    0  0.11675031988E-01  0.16121323061E-02 -0.20343012966E-02  0.23303298570E-01  0.20000000000E-01 0.  0.
</event>
<event>
 7    1  0.4717691E-066  0.9118800E+02  0.7957747E-01            NaN
     999900   -1    0    0    0    0  0.00000000000E+00  0.00000000000E+00  0.99999998245E-14  0.93827000000E+00  0.93827000000E+00 0.  1.
        -11    1    1    0    0    0  0.11498098514E-02  0.24865336268E-03 -0.17512121391E-02  0.21706579982E-02  0.51100000000E-03 0. -1.
        -14    1    1    0    0    0  0.49772684985E-02  0.91572174084E-03  0.34093451579E-03  0.50722760530E-02  0.00000000000E+00 0. -1.
         12    1    1    0    0    0 -0.25581762371E-03  0.18208293818E-02  0.20050281466E-02  0.27204779292E-02  0.00000000000E+00 0.  1.
         14    1    1    0    0    0 -0.27797518872E-02 -0.87353820793E-04  0.54187732013E-04  0.27816519471E-02  0.00000000000E+00 0.  1.
     999901    1    1    0    0    0 -0.10701357375E-01 -0.13013068524E-02 -0.14144325849E-01  0.90017569085E+00  0.90000000000E+00 0. -1.
     999903    1    1    0    0    0  0.76098485363E-02 -0.15965438122E-02  0.13495387594E-01  0.25349245219E-01  0.20000000000E-01 0.  0.
</event>
<event>
 7    1  0.4717691E-066  0.9118800E+02  0.7957747E-01            NaN
     999900   -1    0    0    0    0  0.00000000000E+00  0.00000000000E+00  0.99999998245E-14  0.93827000000E+00  0.93827000000E+00 0.  1.
        -11    1    1    0    0    0  0.46109796657E-03  0.15350435202E-02 -0.33959079838E-02  0.37897601478E-02  0.51100000000E-03 0. -1.
        -14    1    1    0    0    0  0.55577300982E-02  0.67332963622E-04  0.45548651404E-02  0.71860763996E-02  0.00000000000E+00 0. -1.
         12    1    1    0    0    0 -0.84881518150E-03 -0.23462118599E-02 -0.68047324870E-03  0.25861634028E-02  0.00000000000E+00 0.  1.
         14    1    1    0    0    0  0.99967003771E-03  0.16606386446E-02 -0.15184188224E-02  0.24622462534E-02  0.00000000000E+00 0.  1.
     999901    1    1    0    0    0 -0.14781608832E-01 -0.24594537419E-02  0.45451763972E-02  0.90013621386E+00  0.90000000000E+00 0.  1.
     999903    1    1    0    0    0  0.86119259111E-02  0.15426504734E-02 -0.35052414827E-02  0.22109539937E-01  0.20000000000E-01 0.  0.
</event>
<event>
 7    1  0.4717691E-066  0.9118800E+02  0.7957747E-01            NaN
     999900   -1    0    0    0    0  0.00000000000E+00  0.00000000000E+00  0.99999998245E-14  0.93827000000E+00  0.93827000000E+00 0. -1.
        -11    1    1    0    0    0  0.45365516175E-04 -0.22874414118E-02  0.44387407406E-02  0.50197596162E-02  0.51100000000E-03 0. -1.
        -14    1    1    0    0    0 -0.90837186877E-03  0.65212822972E-03  0.11421295851E-02  0.15983962804E-02  0.00000000000E+00 0. -1.
         12    1    1    0    0    0  0.64315516976E-03 -0.47720685589E-03 -0.21769054394E-02  0.23195456986E-02  0.00000000000E+00 0.  1.
         14    1    1    0    0    0 -0.50155701861E-03  0.65251403195E-02  0.47526612899E-02  0.80880655888E-02  0.00000000000E+00 0.  1.
     999901    1    1    0    0    0 -0.22723160189E-02  0.66099525995E-03 -0.11790680662E-01  0.90008034113E+00  0.90000000000E+00 0.  1.
     999903    1    1    0    0    0  0.29937242204E-02 -0.50736155415E-02  0.36340544858E-02  0.21163891688E-01  0.20000000000E-01 0.  0.
</event>
<event>
 7    1  0.4717691E-066  0.9118800E+02  0.7957747E-01            NaN
     999900   -1    0    0    0    0  0.00000000000E+00  0.00000000000E+00  0.99999998245E-14  0.93827000000E+00  0.93827000000E+00 0.  1.
        -11    1    1    0    0    0  0.73155878088E-03  0.15605738524E-02  0.42549245617E-02  0.46190987243E-02  0.51100000000E-03 0. -1.
        -14    1    1    0    0    0 -0.89140742137E-03 -0.96502003770E-03  0.37445762979E-02  0.39683400201E-02  0.00000000000E+00 0. -1.
         12    1    1    0    0    0 -0.58292850608E-03  0.11923994251E-02  0.23258914436E-03  0.13474864534E-02  0.00000000000E+00 0.  1.
         14    1    1    0    0    0  0.10181058028E-02  0.17506150306E-03 -0.12060992564E-02  0.15880369555E-02  0.00000000000E+00 0.  1.
     999901    1    1    0    0    0 -0.13341959675E-01 -0.64065541432E-03  0.46777948702E-02  0.90011127095E+00  0.90000000000E+00 0.  1.
     999903    1    1    0    0    0  0.13066631018E-01 -0.13223593285E-02 -0.11703785618E-01  0.26635766896E-01  0.20000000000E-01 0.  0.
</event>
<event>
 7    1  0.4717691E-066  0.9118800E+02  0.7957747E-01            NaN
     999900   -1    0    0    0    0  0.00000000000E+00  0.00000000000E+00  0.99999998245E-14  0.93827000000E+00  0.93827000000E+00 0. -1.
        -11    1    1    0    0    0 -0.13497867834E-02 -0.66550626773E-03 -0.21174444481E-02  0.26475488557E-02  0.51100000000E-03 0. -1.
        -14    1    1    0    0    0  0.11532091703E-02  0.29267288414E-02  0.31198094135E-02  0.44304451106E-02  0.00000000000E+00 0. -1.
         12    1    1    0    0    0  0.40628297898E-03 -0.12788454330E-02 -0.17465883536E-02  0.22025172820E-02  0.00000000000E+00 0.  1.
         14    1    1    0    0    0  0.10828261670E-02  0.29688187464E-02  0.84941859617E-03  0.32722941812E-02  0.00000000000E+00 0.  1.
     999901    1    1    0    0    0  0.17940347007E-02 -0.14327371768E-01 -0.11696283557E-01  0.90019181022E+00  0.90000000000E+00 0.  1.
     999903    1    1    0    0    0 -0.30865662335E-02  0.10376175881E-01  0.11591088349E-01  0.25525384348E-01  0.20000000000E-01 0.  0.
</event>
<event>
 7    1  0.4717691E-066  0.9118800E+02  0.7957747E-01            NaN
     999900   -1    0    0    0    0  0.00000000000E+00  0.00000000000E+00  0.99999998245E-14  0.93827000000E+00  0.93827000000E+00 0.  1.
        -11    1    1    0    0    0  0.10016171821E-02 -0.35375490120E-02  0.29267900378E-02  0.47270192423E-02  0.51100000000E-03 0. -1.
        -14    1    1    0    0    0 -0.11072818309E-02  0.47344070882E-02 -0.18205026326E-02  0.51918121466E-02  0.00000000000E+00 0. -1.
         12    1    1    0    0    0  0.20811828102E-02  0.33366031926E-02  0.39115487372E-03  0.39518660010E-02  0.00000000000E+00 0.  1.
         14    1    1    0    0    0 -0.17178731021E-02  0.16399014171E-02  0.11662304266E-02  0.26458378750E-02  0.00000000000E+00 0.  1.
     999901    1    1    0    0    0 -0.38260700638E-02 -0.13490280358E-01 -0.40109567784E-02  0.90011816683E+00  0.90000000000E+00 0. -1.
     999903    1    1    0    0    0  0.35684250043E-02  0.73169176725E-02  0.13472840729E-02  0.21635297909E-01  0.20000000000E-01 0.  0.
</event>
<event>
 7    1  0.4717691E-066  0.9118800E+02  0.7957747E-01            NaN
     999900   -1    0    0    0    0  0.00000000000E+00  0.00000000000E+00  0.99999998245E-14  0.93827000000E+00  0.93827000000E+00 0.  1.
        -11    1    1    0    0    0  0.26907121721E-03 -0.64054320580E-03  0.66661649239E-03  0.10900428736E-02  0.51100000000E-03 0. -1.
        -14    1    1    0    0    0 -0.12487582708E-02  0.32409275582E-02 -0.35475935634E-02  0.49647183956E-02  0.00000000000E+00 0. -1.
         12    1    1    0    0    0  0.32500815013E-03 -0.20056990732E-03 -0.17296881713E-03  0.41925743533E-03  0.00000000000E+00 0.  1.
         14    1    1    0    0    0 -0.72016775182E-02 -0.45825877917E-02  0.62222941416E-03  0.85587054739E-02  0.00000000000E+00 0.  1.
     999901    1    1    0    0    0 -0.20859205106E-02  0.75086716283E-02 -0.91024415685E-03  0.90003419922E+00  0.90000000000E+00 0. -1.
     999903    1    1    0    0    0  0.99422769323E-02 -0.53258982816E-02  0.33419606308E-02  0.23203076606E-01  0.20000000000E-01 0.  0.
</event>
<event>
 7    1  0.4717691E-066  0.9118800E+02  0.7957747E-01            NaN
     999900   -1    0    0    0    0  0.00000000000E+00  0.00000000000E+00  0.99999998245E-14  0.93827000000E+00  0.93827000000E+00 0.  1.
        -11    1    1    0    0    0  0.65887395412E-03  0.51260837605E-04  0.39593518177E-02  0.40465207744E-02  0.51100000000E-03 0. -1.
        -14    1    1    0    0    0 -0.12556261168E-04  0.12587357715E-02 -0.72980017570E-03  0.14550538473E-02  0.00000000000E+00 0. -1.
         12    1    1    0    0    0 -0.54561111727E-02 -0.10633434246E-02  0.85331802668E-03  0.56238776677E-02  0.00000000000E+00 0.  1.
         14    1    1    0    0    0  0.34663016937E-02  0.10919825194E-02 -0.15035994702E-02  0.39329994433E-02  0.00000000000E+00 0.  1.
     999901    1    1    0    0    0 -0.98467658324E-02  0.19455394547E-02 -0.25937092242E-02  0.90005970427E+00  0.90000000000E+00 0. -1.
     999903    1    1    0    0    0  0.11190257618E-01 -0.32841751585E-02  0.14439025606E-04  0.23151843998E-01  0.20000000000E-01 0.  0.
</event>
<event>
 7    1  0.4717691E-066  0.9118800E+02  0.7957747E-01            NaN
     999900   -1    0    0    0    0  0.00000000000E+00  0.00000000000E+00  0.99999998245E-14  0.93827000000E+00  0.93827000000E+00 0.  1.
        -11    1    1    0    0    0  0.54682967177E-03  0.11099378724E-02 -0.42932861739E-02  0.44971559836E-02  0.51100000000E-03 0. -1.
        -14    1    1    0    0    0 -0.40515669392E-03 -0.28118822317E-03  0.13525385395E-02  0.14396455342E-02  0.00000000000E+00 0. -1.
         12    1    1    0    0    0  0.39150724594E-02  0.45012011134E-03  0.10800401012E-02  0.40861824601E-02  0.00000000000E+00 0.  1.
         14    1    1    0    0    0 -0.31248857316E-02 -0.48878618614E-02  0.11772511825E-02  0.59196304579E-02  0.00000000000E+00 0.  1.
     999901    1    1    0    0    0 -0.43604165346E-02 -0.30760057479E-02 -0.56852829667E-02  0.90003377575E+00  0.90000000000E+00 0. -1.
     999903    1    1    0    0    0  0.34285568289E-02  0.66849978488E-02  0.63687393174E-02  0.22293609817E-01  0.20000000000E-01 0.  0.
</event>
<event>
 7    1  0.4717691E-066  0.9118800E+02  0.7957747E-01            NaN
     999900   -1    0    0    0    0  0.00000000000E+00  0.00000000000E+00  0.99999998245E-14  0.93827000000E+00  0.93827000000E+00 0. -1.
        -11    1    1    0    0    0 -0.48477824910E-03  0.90464882722E-03 -0.13177294200E-02  0.17466915228E-02  0.51100000000E-03 0. -1.
        -14    1    1    0    0    0 -0.12406247149E-02 -0.70633070429E-03 -0.88923824512E-03  0.16819029114E-02  0.00000000000E+00 0. -1.
         12    1    1    0    0    0  0.62617616212E-03 -0.18255630311E-02 -0.37598319009E-02  0.42262409881E-02  0.00000000000E+00 0.  1.
         14    1    1    0    0    0  0.22764253865E-02  0.88502635576E-03  0.89453433060E-02  0.92727855067E-02  0.00000000000E+00 0.  1.
     999901    1    1    0    0    0  0.15481408027E-02  0.44544916183E-02 -0.86350521875E-02  0.90005377804E+00  0.90000000000E+00 0.  1.
     999903    1    1    0    0    0 -0.27253393874E-02 -0.37122730659E-02  0.56565084475E-02  0.21288601032E-01  0.20000000000E-01 0.  0.
</event>
<event>
 7    1  0.4717691E-066  0.9118800E+02  0.7957747E-01            NaN
     999900   -1    0    0    0    0  0.00000000000E+00  0.00000000000E+00  0.99999998245E-14  0.93827000000E+00  0.93827000000E+00 0.  1.
        -11    1    1    0    0    0 -0.17874563114E-02 -0.35379098102E-02  0.13081885705E-02  0.42052686271E-02  0.51100000000E-03 0. -1.
        -14    1    1    0    0    0  0.15288443198E-03  0.43087937095E-03 -0.80789570884E-03  0.92829206514E-03  0.00000000000E+00 0. -1.
         12    1    1    0    0    0  0.11189605861E-02 -0.70545974036E-02  0.42301515926E-03  0.71553028689E-02  0.00000000000E+00 0.  1.
         14    1    1    0    0    0 -0.20766568759E-02 -0.36587924761E-03 -0.15499327953E-02  0.26169950466E-02  0.00000000000E+00 0.  1.
     999901    1    1    0    0    0  0.57728517194E-02  0.31339413711E-02 -0.82182938201E-02  0.90006149110E+00  0.90000000000E+00 0. -1.
     999903    1    1    0    0    0 -0.31805835502E-02  0.73935657193E-02  0.88449185944E-02  0.23302650294E-01  0.20000000000E-01 0.  0.
</event>
<event>
 7    1  0.4717691E-066  0.9118800E+02  0.7957747E-01            NaN
     999900   -1    0    0    0    0  0.00000000000E+00  0.00000000000E+00  0.99999998245E-14  0.93827000000E+00  0.93827000000E+00 0.  1.
        -11    1    1    0    0    0 -0.15100363205E-02 -0.13156045793E-02 -0.35493635460E-02  0.41073260986E-02  0.51100000000E-03 0. -1.
        -14    1    1    0    0    0 -0.25568175835E-02 -0.13276518842E-02  0.48041777436E-02  0.56017943084E-02  0.00000000000E+00 0. -1.
         12    1    1    0    0    0  0.33199076695E-03 -0.14842214869E-02 -0.12307214887E-03  0.15258696029E-02  0.00000000000E+00 0.  1.
         14    1    1    0    0    0 -0.12525322764E-02 -0.12566610261E-03  0.78219652060E-03  0.14820460417E-02  0.00000000000E+00 0.  1.
     999901    1    1    0    0    0 -0.27684706473E-02  0.39156863567E-02 -0.15523276667E-01  0.90014663758E+00  0.90000000000E+00 0. -1.
     999903    1    1    0    0    0  0.77558660608E-02  0.33745769627E-03  0.13609338098E-01  0.25406326368E-01  0.20000000000E-01 0.  0.
</event>
<event>
 7    1  0.4717691E-066  0.9118800E+02  0.7957747E-01            NaN
     999900   -1    0    0    0    0  0.00000000000E+00  0.00000000000E+00  0.99999998245E-14  0.93827000000E+00  0.93827000000E+00 0.  1.
        -11    1    1    0    0    0  0.13487280100E-02 -0.71561748402E-02 -0.17109114064E-02  0.74978826631E-02  0.51100000000E-03 0. -1.
        -14    1    1    0    0    0 -0.14181789111E-03  0.15955831356E-02 -0.10766372903E-03  0.16054872579E-02  0.00000000000E+00 0. -1.
         12    1    1    0    0    0 -0.10154312192E-02  0.33042163893E-02 -0.31830664360E-02  0.46990273935E-02  0.00000000000E+00 0.  1.
         14    1    1    0    0    0  0.17163797613E-02 -0.30158072421E-02  0.21715895744E-02  0.40935136602E-02  0.00000000000E+00 0.  1.
     999901    1    1    0    0    0 -0.37005664367E-02  0.45800473591E-02 -0.42908720808E-03  0.90001936376E+00  0.90000000000E+00 0. -1.
     999903    1    1    0    0    0  0.17927077757E-02  0.69213519818E-03  0.32591392052E-02  0.20354725266E-01  0.20000000000E-01 0.  0.
</event>
<event>
 7    1  0.4717691E-066  0.9118800E+02  0.7957747E-01            NaN
     999900   -1    0    0    0    0  0.00000000000E+00  0.00000000000E+00  0.99999998245E-14  0.93827000000E+00  0.93827000000E+00 0. -1.
        -11    1    1    0    0    0 -0.48948205411E-03  0.17418936090E-02 -0.88705708954E-03  0.20788884786E-02  0.51100000000E-03 0. -1.
        -14    1    1    0    0    0 -0.22814645092E-03 -0.23226797339E-02 -0.18244447210E-03  0.23409779868E-02  0.00000000000E+00 0. -1.
         12    1    1    0    0    0  0.51729471761E-02  0.14097165585E-02  0.83317594452E-03  0.54259437351E-02  0.00000000000E+00 0.  1.
         14    1    1    0    0    0 -0.27486892050E-02 -0.29814516983E-02  0.66703094519E-03  0.41096565376E-02  0.00000000000E+00 0.  1.
     999901    1    1    0    0    0 -0.13293499891E-01  0.70213690916E-02 -0.55604992889E-02  0.90014273086E+00  0.90000000000E+00 0.  1.
     999903    1    1    0    0    0  0.11586870424E-01 -0.48688478269E-02  0.51297939608E-02  0.24171802404E-01  0.20000000000E-01 0.  0.
</event>
<event>
 7    1  0.4717691E-066  0.9118800E+02  0.7957747E-01            NaN
     999900   -1    0    0    0    0  0.00000000000E+00  0.00000000000E+00  0.99999998245E-14  0.93827000000E+00  0.93827000000E+00 0.  1.
        -11    1    1    0    0    0 -0.16074427989E-03 -0.25030366924E-03  0.35800546690E-03  0.69121600436E-03  0.51100000000E-03 0. -1.
        -14    1    1    0    0    0 -0.74893128568E-03 -0.90272707880E-03 -0.30771934364E-02  0.32931646929E-02  0.00000000000E+00 0. -1.
         12    1    1    0    0    0  0.35804481095E-03  0.35893436593E-02  0.19954968580E-02  0.41223284321E-02  0.00000000000E+00 0.  1.
         14    1    1    0    0    0  0.10291504774E-02 -0.48832698112E-02 -0.58813959233E-03  0.50250754157E-02  0.00000000000E+00 0.  1.
     999901    1    1    0    0    0  0.43842169049E-02  0.87008836599E-02  0.14003556400E-01  0.90016166677E+00  0.90000000000E+00 0.  1.
     999903    1    1    0    0    0 -0.48617366277E-02 -0.62539267600E-02 -0.12691725696E-01  0.24976548683E-01  0.20000000000E-01 0.  0.
</event>
<event>
 7    1  0.4717691E-066  0.9118800E+02  0.7957747E-01            NaN
     999900   -1    0    0    0    0  0.00000000000E+00  0.00000000000E+00  0.99999998245E-14  0.93827000000E+00  0.93827000000E+00 0. -1.
        -11    1    1    0    0    0  0.57838446924E-03  0.26392871579E-02  0.11712037064E-02  0.29888466703E-02  0.51100000000E-03 0. -1.
        -14    1    1    0    0    0 -0.17038250403E-02  0.16220897742E-02 -0.23773205541E-02  0.33445250814E-02  0.00000000000E+00 0. -1.
         12    1    1    0    0    0  0.34701704848E-02 -0.23140551647E-02 -0.87737340330E-03  0.42622433750E-02  0.00000000000E+00 0.  1.
         14    1    1    0    0    0  0.19202870670E-04  0.22862106722E-02  0.11962506571E-02  0.25803378892E-02  0.00000000000E+00 0.  1.
     999901    1    1    0    0    0 -0.66115767535E-02 -0.17082115069E-01  0.68833415807E-02  0.90021269264E+00  0.90000000000E+00 0.  1.
     999903    1    1    0    0    0  0.42476439692E-02  0.12848582629E-01 -0.59961019868E-02  0.24881354342E-01  0.20000000000E-01 0.  0.
</event>
<event>
 7    1  0.4717691E-066  0.9118800E+02  0.7957747E-01            NaN
     999900   -1    0    0    0    0  0.00000000000E+00  0.00000000000E+00  0.99999998245E-14  0.93827000000E+00  0.93827000000E+00 0.  1.
        -11    1    1    0    0    0 -0.28872637336E-02  0.14063391501E-02 -0.89388865453E-03  0.33725716596E-02  0.51100000000E-03 0. -1.
        -14    1    1    0    0    0  0.14311004020E-02 -0.17717106827E-03  0.99686138977E-03  0.17530460856E-02  0.00000000000E+00 0. -1.
         12    1    1    0    0    0  0.58277539454E-03  0.72361534284E-03  0.28631601870E-03  0.97222589322E-03  0.00000000000E+00 0.  1.
         14    1    1    0    0    0 -0.21134565816E-02 -0.23163295522E-02  0.21021809950E-03  0.31426538095E-02  0.00000000000E+00 0.  1.
     999901    1    1    0    0    0  0.22399268188E-01 -0.65875432532E-02 -0.80710522317E-03  0.90030315692E+00  0.90000000000E+00 0. -1.
     999903    1    1    0    0    0 -0.19412423669E-01  0.69510893808E-02  0.20759836973E-03  0.28726345632E-01  0.20000000000E-01 0.  0.
</event>
<event>
 7    1  0.4717691E-066  0.9118800E+02  0.7957747E-01            NaN
     999900   -1    0    0    0    0  0.00000000000E+00  0.00000000000E+00  0.99999998245E-14  0.93827000000E+00  0.93827000000E+00 0.  1.
        -11    1    1    0    0    0 -0.10494239705E-02 -0.47495701411E-03 -0.33381012753E-02  0.35680409133E-02  0.51100000000E-03 0. -1.
        -14    1    1    0    0    0  0.12267195578E-02  0.27123889336E-02  0.29540831218E-02  0.41938647678E-02  0.00000000000E+00 0. -1.
         12    1    1    0    0    0 -0.13511820221E-02  0.49955546589E-03  0.10951476141E-02  0.18095847085E-02  0.00000000000E+00 0.  1.
         14    1    1    0    0    0 -0.22562267189E-03  0.22512619445E-02 -0.31984789241E-03  0.22850358000E-02  0.00000000000E+00 0.  1.
     999901    1    1    0    0    0 -0.32028267403E-03  0.32471115466E-02  0.14456679687E-01  0.90012201501E+00  0.90000000000E+00 0.  1.
     999903    1    1    0    0    0  0.17197917808E-02 -0.82353608764E-02 -0.14847961255E-01  0.26291458802E-01  0.20000000000E-01 0.  0.
</event>
<event>
 7    1  0.4717691E-066  0.9118800E+02  0.7957747E-01            NaN
     999900   -1    0    0    0    0  0.00000000000E+00  0.00000000000E+00  0.99999998245E-14  0.93827000000E+00  0.93827000000E+00 0. -1.
        -11    1    1    0    0    0 -0.29092744111E-02 -0.94508402611E-03  0.11215301445E-02  0.32978799675E-02  0.51100000000E-03 0. -1.
        -14    1    1    0    0    0 -0.21925939132E-02  0.17047456036E-02 -0.20624187638E-02  0.34593636406E-02  0.00000000000E+00 0. -1.
         12    1    1    0    0    0 -0.11701543395E-02 -0.10412229828E-02  0.20143311754E-02  0.25516536916E-02  0.00000000000E+00 0.  1.
         14    1    1    0    0    0  0.59307462592E-02 -0.11984566709E-02  0.67813424690E-03  0.60885068482E-02  0.00000000000E+00 0.  1.
     999901    1    1    0    0    0  0.95299493256E-02 -0.35855455211E-02  0.14698839885E-02  0.90005879621E+00  0.90000000000E+00 0. -1.
     999903    1    1    0    0    0 -0.91886729211E-02  0.50655635973E-02 -0.32214607914E-02  0.22813799645E-01  0.20000000000E-01 0.  0.
</event>
<event>
 7    1  0.4717691E-066  0.9118800E+02  0.7957747E-01            NaN
     999900   -1    0    0    0    0  0.00000000000E+00  0.00000000000E+00  0.99999998245E-14  0.93827000000E+00  0.93827000000E+00 0. -1.
        -11    1    1    0    0    0  0.73831343984E-03 -0.14563615719E-02 -0.70328617699E-03  0.18498184263E-02  0.51100000000E-03 0. -1.
        -14    1    1    0    0    0  0.39952025616E-02  0.22781298222E-02 -0.29788322435E-02  0.54795036755E-02  0.00000000000E+00 0. -1.
         12    1    1    0    0    0 -0.13410082159E-02 -0.63413250324E-02 -0.16404774338E-02  0.66859458877E-02  0.00000000000E+00 0.  1.
         14    1    1    0    0    0 -0.25275484253E-02  0.58121945163E-03  0.29334294783E-02  0.39155236683E-02  0.00000000000E+00 0.  1.
     999901    1    1    0    0    0 -0.32546314923E-02  0.24128168229E-02  0.33724632208E-02  0.90001543755E+00  0.90000000000E+00 0. -1.
     999903    1    1    0    0    0  0.23896721320E-02  0.25255205076E-02 -0.98329684485E-03  0.20323770797E-01  0.20000000000E-01 0.  0.
</event>
<event>
 7    1  0.4717691E-066  0.9118800E+02  0.7957747E-01            NaN
     999900   -1    0    0    0    0  0.00000000000E+00  0.00000000000E+00  0.99999998245E-14  0.93827000000E+00  0.93827000000E+00 0.  1.
        -11    1    1    0    0    0 -0.46841999667E-03 -0.27678607476E-03  0.55801347030E-05  0.74644488234E-03  0.51100000000E-03 0. -1.
        -14    1    1    0    0    0  0.45019171951E-02 -0.30692540095E-02  0.13045130242E-02  0.56026183911E-02  0.00000000000E+00 0. -1.
         12    1    1    0    0    0 -0.21454100949E-02  0.20678173592E-03 -0.15910461170E-02  0.26789869182E-02  0.00000000000E+00 0.  1.
         14    1    1    0    0    0  0.23718217165E-02  0.18260622759E-03  0.22711493799E-02  0.32889212206E-02  0.00000000000E+00 0.  1.
     999901    1    1    0    0    0 -0.18129208493E-01 -0.53073401055E-02 -0.36066245843E-03  0.90019829268E+00  0.90000000000E+00 0.  1.
     999903    1    1    0    0    0  0.13869299673E-01  0.82639922262E-02 -0.16295339634E-02  0.25754735912E-01  0.20000000000E-01 0.  0.
</event>
<event>
 7    1  0.4717691E-066  0.9118800E+02  0.7957747E-01            NaN
     999900   -1    0    0    0    0  0.00000000000E+00  0.00000000000E+00  0.99999998245E-14  0.93827000000E+00  0.93827000000E+00 0. -1.
        -11    1    1    0    0    0 -0.39276516372E-02 -0.14327057911E-02  0.10116381991E-02  0.43317001412E-02  0.51100000000E-03 0. -1.
        -14    1    1    0    0    0  0.51412277438E-03  0.14906349810E-02  0.54278279430E-03  0.16676114762E-02  0.00000000000E+00 0. -1.
         12    1    1    0    0    0  0.68919220053E-02 -0.36631856462E-03  0.15585690494E-02  0.70754445584E-02  0.00000000000E+00 0.  1.
         14    1    1    0    0    0  0.48826451868E-03 -0.83781975764E-03  0.20855061638E-02  0.22999304655E-02  0.00000000000E+00 0.  1.
     999901    1    1    0    0    0  0.19740766052E-02  0.14535371658E-02  0.41934441734E-02  0.90001310808E+00  0.90000000000E+00 0. -1.
     999903    1    1    0    0    0 -0.59407342662E-02 -0.30732803339E-03 -0.93919403800E-02  0.22882205275E-01  0.20000000000E-01 0.  0.
</event>
<event>
 7    1  0.4717691E-066  0.9118800E+02  0.7957747E-01            NaN
     999900   -1    0    0    0    0  0.00000000000E+00  0.00000000000E+00  0.99999998245E-14  0.93827000000E+00  0.93827000000E+00 0.  1.
        -11    1    1    0    0    0 -0.80655439966E-03 -0.23361247803E-03 -0.15825894709E-02  0.18630124054E-02  0.51100000000E-03 0. -1.
        -14    1    1    0    0    0  0.34076264835E-02 -0.34569700514E-02  0.13202711095E-02  0.50304747281E-02  0.00000000000E+00 0. -1.
         12    1    1    0    0    0 -0.14331859425E-02  0.12763070315E-02 -0.12982366798E-02  0.23169808073E-02  0.00000000000E+00 0.  1.
         14    1    1    0    0    0  0.52519243902E-02 -0.21080748983E-02 -0.25505743697E-02  0.62074245217E-02  0.00000000000E+00 0.  1.
     999901    1    1    0    0    0 -0.10132104353E-01  0.83432412225E-02  0.13330198634E-01  0.90019440312E+00  0.90000000000E+00 0.  1.
     999903    1    1    0    0    0  0.37122938219E-02 -0.38208908262E-02 -0.92190692236E-02  0.22657704418E-01  0.20000000000E-01 0.  0.
</event>
<event>
 7    1  0.4717691E-066  0.9118800E+02  0.7957747E-01            NaN
     999900   -1    0    0    0    0  0.00000000000E+00  0.00000000000E+00  0.99999998245E-14  0.93827000000E+00  0.93827000000E+00 0. -1.
        -11    1    1    0    0    0 -0.50971942831E-03 -0.14486675580E-02 -0.82577255864E-03  0.18169955718E-02  0.51100000000E-03 0. -1.
        -14    1    1    0    0    0 -0.16903627057E-02  0.25076468392E-02 -0.82156567893E-03  0.31337818864E-02  0.00000000000E+00 0. -1.
         12    1    1    0    0    0  0.78814112324E-03  0.11971896135E-02 -0.34121811836E-02  0.37010011930E-02  0.00000000000E+00 0.  1.
         14    1    1    0    0    0  0.42822217936E-02 -0.54529563319E-02 -0.62751211176E-03  0.69617474600E-02  0.00000000000E+00 0.  1.
     999901    1    1    0    0    0 -0.87292612890E-02 -0.41409352360E-02  0.10181342682E-01  0.90010944173E+00  0.90000000000E+00 0. -1.
     999903    1    1    0    0    0  0.58589805062E-02  0.73377226733E-02 -0.44943111488E-02  0.22547032162E-01  0.20000000000E-01 0.  0.
</event>
<event>
 7    1  0.4717691E-066  0.9118800E+02  0.7957747E-01            NaN
     999900   -1    0    0    0    0  0.00000000000E+00  0.00000000000E+00  0.99999998245E-14  0.93827000000E+00  0.93827000000E+00 0.  1.
        -11    1    1    0    0    0  0.26606542834E-02  0.17132998476E-02  0.62810301503E-03  0.32665137350E-02  0.51100000000E-03 0. -1.
        -14    1    1    0    0    0 -0.18062590592E-02 -0.52348247555E-03  0.20693188135E-02  0.27961913459E-02  0.00000000000E+00 0. -1.
         12    1    1    0    0    0 -0.10836451733E-02  0.34552869276E-03 -0.10794256479E-02  0.15680678137E-02  0.00000000000E+00 0.  1.
         14    1    1    0    0    0  0.21748806641E-02  0.59332903519E-02  0.32167768527E-02  0.70909585828E-02  0.00000000000E+00 0.  1.
     999901    1    1    0    0    0  0.88708964198E-02 -0.38640559364E-02 -0.92883104232E-02  0.90009993692E+00  0.90000000000E+00 0.  1.
     999903    1    1    0    0    0 -0.10816527135E-01 -0.36045804803E-02  0.44535373898E-02  0.23448331603E-01  0.20000000000E-01 0.  0.
</event>
<event>
 7    1  0.4717691E-066  0.9118800E+02  0.7957747E-01            NaN
     999900   -1    0    0    0    0  0.00000000000E+00  0.00000000000E+00  0.99999998245E-14  0.93827000000E+00  0.93827000000E+00 0.  1.
        -11    1    1    0    0    0 -0.14629008711E-02 -0.20742042490E-03  0.70891359697E-04  0.15650075962E-02  0.51100000000E-03 0. -1.
        -14    1    1    0    0    0  0.25057981509E-02  0.11739058405E-02  0.58326679631E-03  0.28279461542E-02  0.00000000000E+00 0. -1.
         12    1    1    0    0    0 -0.26190291379E-02 -0.16793641965E-02  0.29610191850E-03  0.31252606413E-02  0.00000000000E+00 0.  1.
         14    1    1    0    0    0 -0.19873127199E-02  0.84927822101E-02 -0.42359007018E-02  0.96963712939E-02  0.00000000000E+00 0.  1.
     999901    1    1    0    0    0  0.62951190148E-02 -0.19501549573E-02  0.39893238647E-02  0.90003296958E+00  0.90000000000E+00 0.  1.
     999903    1    1    0    0    0 -0.27316744368E-02 -0.58297484719E-02 -0.70368323744E-03  0.21022444733E-01  0.20000000000E-01 0.  0.
</event>
<event>
 7    1  0.4717691E-066  0.9118800E+02  0.7957747E-01            NaN
     999900   -1    0    0    0    0  0.00000000000E+00  0.00000000000E+00  0.99999998245E-14  0.93827000000E+00  0.93827000000E+00 0.  1.
        -11    1    1    0    0    0  0.32699054321E-02  0.20668224944E-02  0.29975294007E-03  0.39134396103E-02  0.51100000000E-03 0. -1.
        -14    1    1    0    0    0 -0.86203861784E-03  0.12658852092E-02  0.17134163793E-02  0.22981235019E-02  0.00000000000E+00 0. -1.
         12    1    1    0    0    0 -0.25407108964E-02  0.13630785537E-02  0.50202694941E-02  0.57893264545E-02  0.00000000000E+00 0.  1.
         14    1    1    0    0    0 -0.29067496456E-02  0.80069247939E-03 -0.18764783584E-02  0.35512635749E-02  0.00000000000E+00 0.  1.
     999901    1    1    0    0    0  0.10048067002E-01 -0.65111435914E-02  0.27267677583E-02  0.90008377049E+00  0.90000000000E+00 0.  1.
     999903    1    1    0    0    0 -0.70084732743E-02  0.10146648547E-02 -0.78837282134E-02  0.22634076366E-01  0.20000000000E-01 0.  0.
</event>
<event>
 7    1  0.4717691E-066  0.9118800E+02  0.7957747E-01            NaN
     999900   -1    0    0    0    0  0.00000000000E+00  0.00000000000E+00  0.99999998245E-14  0.93827000000E+00  0.93827000000E+00 0.  1.
        -11    1    1    0    0    0  0.22194133618E-03  0.10053186960E-02 -0.57921644870E-03  0.12870650068E-02  0.51100000000E-03 0. -1.
        -14    1    1    0    0    0 -0.12833560169E-02 -0.48206244587E-02  0.14804301332E-02  0.52035657214E-02  0.00000000000E+00 0. -1.
         12    1    1    0    0    0 -0.19463211166E-02 -0.64977115559E-03  0.21635811819E-03  0.20632933090E-02  0.00000000000E+00 0.  1.
         14    1    1    0    0    0  0.65939899320E-03 -0.10673777601E-02 -0.75944967608E-03  0.14665831464E-02  0.00000000000E+00 0.  1.
     999901    1    1    0    0    0 -0.73732539172E-02 -0.10200120600E-01 -0.73825200687E-02  0.90011827497E+00  0.90000000000E+00 0.  1.
     999903    1    1    0    0    0  0.97215907213E-02  0.15732575278E-01  0.70243979420E-02  0.28131217846E-01  0.20000000000E-01 0.  0.
</event>
<event>
 7    1  0.4717691E-066  0.9118800E+02  0.7957747E-01            NaN
     999900   -1    0    0    0    0  0.00000000000E+00  0.00000000000E+00  0.99999998245E-14  0.93827000000E+00  0.93827000000E+00 0. -1.
        -11    1    1    0    0    0  0.15388878464E-02 -0.21025797831E-02  0.68062889000E-02  0.73058679935E-02  0.51100000000E-03 0. -1.
        -14    1    1    0    0    0  0.13509579730E-02  0.17934767236E-02 -0.20985764757E-02  0.30733807813E-02  0.00000000000E+00 0. -1.
         12    1    1    0    0    0  0.32323840232E-02  0.29524645065E-04  0.82375036375E-03  0.33358271598E-02  0.00000000000E+00 0.  1.
         14    1    1    0    0    0 -0.34817879121E-03 -0.18929765924E-02  0.77602479620E-03  0.20752839165E-02  0.00000000000E+00 0.  1.
     999901    1    1    0    0    0  0.43701746432E-03  0.10040471783E-01 -0.73090657832E-02  0.90008578730E+00  0.90000000000E+00 0.  1.
     999903    1    1    0    0    0 -0.62110685157E-02 -0.78679167762E-02  0.10015781990E-02  0.22393852848E-01  0.20000000000E-01 0.  0.
</event>
<event>
 7    1  0.4717691E-066  0.9118800E+02  0.7957747E-01            NaN
     999900   -1    0    0    0    0  0.00000000000E+00  0.00000000000E+00  0.99999998245E-14  0.93827000000E+00  0.93827000000E+00 0.  1.
        -11    1    1    0    0    0  0.10639656399E-02  0.23768920396E-02 -0.13226112384E-03  0.26571135948E-02  0.51100000000E-03 0. -1.
        -14    1    1    0    0    0 -0.92597341943E-03  0.58798988075E-03 -0.60860499835E-04  0.10985731081E-02  0.00000000000E+00 0. -1.
         12    1    1    0    0    0  0.13996492063E-02  0.61183448272E-03 -0.40973281859E-02  0.43728088911E-02  0.00000000000E+00 0.  1.
         14    1    1    0    0    0 -0.72463721843E-02 -0.77697888728E-03  0.17531356298E-02  0.74958048642E-02  0.00000000000E+00 0.  1.
     999901    1    1    0    0    0  0.11915820259E-01  0.53684180594E-02  0.42241591759E-02  0.90010479957E+00  0.90000000000E+00 0.  1.
     999903    1    1    0    0    0 -0.62070895018E-02 -0.81681555751E-02 -0.16868449961E-02  0.22540899974E-01  0.20000000000E-01 0.  0.
</event>
<event>
 7    1  0.4717691E-066  0.9118800E+02  0.7957747E-01            NaN
     999900   -1    0    0    0    0  0.00000000000E+00  0.00000000000E+00  0.99999998245E-14  0.93827000000E+00  0.93827000000E+00 0. -1.
        -11    1    1    0    0    0 -0.99794401585E-03 -0.58484531778E-03  0.21157182821E-02  0.24648166572E-02  0.51100000000E-03 0. -1.
        -14    1    1    0    0    0 -0.12522810171E-03 -0.59400363557E-03 -0.24288974313E-03  0.65384847162E-03  0.00000000000E+00 0. -1.
         12    1    1    0    0    0  0.38450953721E-02  0.36865915534E-02  0.20689724344E-03  0.53309025663E-02  0.00000000000E+00 0.  1.
         14    1    1    0    0    0 -0.31583293321E-02  0.99429948539E-03 -0.22959336599E-02  0.40292663114E-02  0.00000000000E+00 0.  1.
     999901    1    1    0    0    0 -0.82502985072E-02 -0.12658213125E-01  0.10039330986E-01  0.90018280696E+00  0.90000000000E+00 0. -1.
     999903    1    1    0    0    0  0.86867045849E-02  0.91561710393E-02 -0.98231231080E-02  0.25608359031E-01  0.20000000000E-01 0.  0.
</event>
<event>
 7    1  0.4717691E-066  0.9118800E+02  0.7957747E-01            NaN
     999900   -1    0    0    0    0  0.00000000000E+00  0.00000000000E+00  0.99999998245E-14  0.93827000000E+00  0.93827000000E+00 0. -1.
        -11    1    1    0    0    0  0.41071759927E-03 -0.81710745520E-03 -0.11894743215E-02  0.15850311357E-02  0.51100000000E-03 0. -1.
        -14    1    1    0    0    0 -0.15712922466E-02  0.26101914996E-02  0.27689214873E-03  0.30592038590E-02  0.00000000000E+00 0. -1.
         12    1    1    0    0    0  0.88151936959E-03  0.23057644830E-02  0.68941634352E-03  0.25629906642E-02  0.00000000000E+00 0.  1.
         14    1    1    0    0    0  0.11031266128E-02 -0.94004549182E-02  0.21644643191E-02  0.97092917755E-02  0.00000000000E+00 0.  1.
     999901    1    1    0    0    0 -0.88845119312E-03  0.11940463681E-01 -0.47629380579E-02  0.90009224505E+00  0.90000000000E+00 0. -1.
     999903    1    1    0    0    0  0.64379858065E-04 -0.66388572903E-02  0.28216395680E-02  0.21261237517E-01  0.20000000000E-01 0.  0.
</event>
<event>
 7    1  0.4717691E-066  0.9118800E+02  0.7957747E-01            NaN
     999900   -1    0    0    0    0  0.00000000000E+00  0.00000000000E+00  0.99999998245E-14  0.93827000000E+00  0.93827000000E+00 0. -1.
        -11    1    1    0    0    0  0.51370183588E-02  0.41497807363E-02 -0.39271500665E-03  0.66351325423E-02  0.51100000000E-03 0. -1.
        -14    1    1    0    0    0  0.12713752491E-02 -0.29374718221E-02 -0.31868762633E-03  0.32166282864E-02  0.00000000000E+00 0. -1.
         12    1    1    0    0    0  0.59906342733E-03  0.10352341369E-02  0.15524948519E-02  0.19598027894E-02  0.00000000000E+00 0.  1.
         14    1    1    0    0    0 -0.11719065878E-02 -0.78864903900E-03  0.73425868516E-03  0.15920013110E-02  0.00000000000E+00 0.  1.
     999901    1    1    0    0    0 -0.20164949034E-01 -0.17767756516E-02 -0.29640610677E-03  0.90022767673E+00  0.90000000000E+00 0. -1.
     999903    1    1    0    0    0  0.14329398587E-01  0.31788163958E-03 -0.12789447973E-02  0.24638758337E-01  0.20000000000E-01 0.  0.
</event>
<event>
 7    1  0.4717691E-066  0.9118800E+02  0.7957747E-01            NaN
     999900   -1    0    0    0    0  0.00000000000E+00  0.00000000000E+00  0.99999998245E-14  0.93827000000E+00  0.93827000000E+00 0.  1.
        -11    1    1    0    0    0 -0.74031934417E-03 -0.16456529840E-02  0.22194195925E-02  0.29057169172E-02  0.51100000000E-03 0. -1.
        -14    1    1    0    0    0  0.21418395605E-02  0.16232651641E-02 -0.13461035272E-02  0.30057380461E-02  0.00000000000E+00 0. -1.
         12    1    1    0    0    0 -0.38251393082E-02  0.33170098414E-03  0.15993574916E-02  0.41592860753E-02  0.00000000000E+00 0.  1.
         14    1    1    0    0    0  0.21369179799E-02 -0.28820927713E-02  0.21176728983E-02  0.41662231936E-02  0.00000000000E+00 0.  1.
     999901    1    1    0    0    0 -0.11944279193E-03 -0.65897937836E-02  0.49829269074E-02  0.90003792654E+00  0.90000000000E+00 0. -1.
     999903    1    1    0    0    0  0.40614390389E-03  0.91625733907E-02 -0.95732733626E-02  0.23995109228E-01  0.20000000000E-01 0.  0.
</event>
<event>
 7    1  0.4717691E-066  0.9118800E+02  0.7957747E-01            NaN
     999900   -1    0    0    0    0  0.00000000000E+00  0.00000000000E+00  0.99999998245E-14  0.93827000000E+00  0.93827000000E+00 0. -1.
        -11    1    1    0    0    0  0.23396116350E-03 -0.21736001667E-02 -0.29746791600E-02  0.37268099785E-02  0.51100000000E-03 0. -1.
        -14    1    1    0    0    0 -0.19185121650E-02  0.31727043781E-02 -0.18800388006E-03  0.37124233941E-02  0.00000000000E+00 0. -1.
         12    1    1    0    0    0  0.10308209858E-03  0.13715845151E-02  0.24452186462E-03  0.13970185909E-02  0.00000000000E+00 0.  1.
         14    1    1    0    0    0  0.56606992998E-03  0.24634648724E-03 -0.27583736889E-02  0.28266140814E-02  0.00000000000E+00 0.  1.
     999901    1    1    0    0    0 -0.96397226586E-02 -0.14896295011E-01 -0.18443261898E-03  0.90017490405E+00  0.90000000000E+00 0. -1.
     999903    1    1    0    0    0  0.10655121632E-01  0.12279259797E-01  0.58609674833E-02  0.26432229910E-01  0.20000000000E-01 0.  0.
</event>
<event>
 7    1  0.4717691E-066  0.9118800E+02  0.7957747E-01            NaN
     999900   -1    0    0    0    0  0.00000000000E+00  0.00000000000E+00  0.99999998245E-14  0.93827000000E+00  0.93827000000E+00 0. -1.
        -11    1    1    0    0    0  0.12992795744E-02 -0.29199168272E-02  0.40127438639E-02  0.51553153160E-02  0.51100000000E-03 0. -1.
        -14    1    1    0    0    0 -0.52882312566E-03 -0.12288936851E-02 -0.15986081203E-02  0.20845578691E-02  0.00000000000E+00 0. -1.
         12    1    1    0    0    0  0.21796784441E-02  0.34341109629E-02 -0.37178295467E-02  0.55105691869E-02  0.00000000000E+00 0.  1.
         14    1    1    0    0    0 -0.87470682184E-03 -0.93292966443E-03 -0.16484753347E-03  0.12894357263E-02  0.00000000000E+00 0.  1.
     999901    1    1    0    0    0 -0.15473579988E-01  0.13886728932E-02  0.45054389880E-03  0.90013419171E+00  0.90000000000E+00 0. -1.
     999903    1    1    0    0    0  0.13398151917E-01  0.25895632061E-03  0.10179974378E-02  0.24095930195E-01  0.20000000000E-01 0.  0.
</event>
<event>
 7    1  0.4717691E-066  0.9118800E+02  0.7957747E-01            NaN
     999900   -1    0    0    0    0  0.00000000000E+00  0.00000000000E+00  0.99999998245E-14  0.93827000000E+00  0.93827000000E+00 0.  1.
        -11    1    1    0    0    0 -0.18946435097E-02  0.15199168803E-02  0.35947811261E-02  0.43684543830E-02  0.51100000000E-03 0. -1.
        -14    1    1    0    0    0  0.19926473220E-02 -0.14621506110E-02  0.22957393984E-02  0.33732695037E-02  0.00000000000E+00 0. -1.
         12    1    1    0    0    0  0.25877339336E-03  0.64101068280E-03 -0.16197974452E-02  0.17611366012E-02  0.00000000000E+00 0.  1.
         14    1    1    0    0    0 -0.23429240378E-03 -0.17116353751E-02  0.45599612199E-03  0.17867627293E-02  0.00000000000E+00 0.  1.
     999901    1    1    0    0    0 -0.13188066934E-01 -0.63569264847E-02  0.50581405330E-02  0.90013327925E+00  0.90000000000E+00 0.  1.
     999903    1    1    0    0    0  0.13065582132E-01  0.73697849077E-02 -0.97848597342E-02  0.26847097535E-01  0.20000000000E-01 0.  0.
</event>
<event>
 7    1  0.4717691E-066  0.9118800E+02  0.7957747E-01            NaN
     999900   -1    0    0    0    0  0.00000000000E+00  0.00000000000E+00  0.99999998245E-14  0.93827000000E+00  0.93827000000E+00 0. -1.
        -11    1    1    0    0    0 -0.35983242003E-02 -0.10493209619E-02  0.38795208060E-03  0.38027147340E-02  0.51100000000E-03 0. -1.
        -14    1    1    0    0    0  0.17264785336E-02 -0.37074624438E-02 -0.15112442151E-02  0.43600303871E-02  0.00000000000E+00 0. -1.
         12    1    1    0    0    0 -0.22253352448E-04  0.16157178680E-02  0.16417061173E-02  0.23035273857E-02  0.00000000000E+00 0.  1.
         14    1    1    0    0    0 -0.27023950116E-02 -0.23682536796E-02 -0.46085984027E-02  0.58438637498E-02  0.00000000000E+00 0.  1.
     999901    1    1    0    0    0  0.41799971120E-02  0.88954016568E-02  0.12131774521E-01  0.90013542342E+00  0.90000000000E+00 0. -1.
     999903    1    1    0    0    0  0.41649691875E-03 -0.33860824395E-02 -0.80415901015E-02  0.21824440321E-01  0.20000000000E-01 0.  0.
</event>
<event>
 7    1  0.4717691E-066  0.9118800E+02  0.7957747E-01            NaN
     999900   -1    0    0    0    0  0.00000000000E+00  0.00000000000E+00  0.99999998245E-14  0.93827000000E+00  0.93827000000E+00 0. -1.
        -11    1    1    0    0    0 -0.66115785069E-03 -0.16506702180E-02 -0.20579155833E-02  0.27673054439E-02  0.51100000000E-03 0. -1.
        -14    1    1    0    0    0 -0.26110334599E-02 -0.13083671798E-02 -0.25637187204E-03  0.29317310488E-02  0.00000000000E+00 0. -1.
         12    1    1    0    0    0 -0.11559134268E-02 -0.19015113769E-02  0.97429675303E-03  0.24292252941E-02  0.00000000000E+00 0.  1.
         14    1    1    0    0    0  0.13828530481E-02  0.30208156503E-02 -0.42677172507E-02  0.54084212371E-02  0.00000000000E+00 0.  1.
     999901    1    1    0    0    0 -0.69988915802E-02 -0.60458020826E-02 -0.11954496606E-02  0.90004831276E+00  0.90000000000E+00 0. -1.
     999903    1    1    0    0    0  0.10044143270E-01  0.78855352069E-02  0.68031576137E-02  0.24685004214E-01  0.20000000000E-01 0.  0.
</event>
<event>
 7    1  0.4717691E-066  0.9118800E+02  0.7957747E-01            NaN
     999900   -1    0    0    0    0  0.00000000000E+00  0.00000000000E+00  0.99999998245E-14  0.93827000000E+00  0.93827000000E+00 0. -1.
        -11    1    1    0    0    0  0.13421632345E-02 -0.90651403476E-03 -0.46384475569E-03  0.17605234451E-02  0.51100000000E-03 0. -1.
        -14    1    1    0    0    0 -0.12932133090E-02  0.44122333560E-02  0.31317162203E-02  0.55630792135E-02  0.00000000000E+00 0. -1.
         12    1    1    0    0    0  0.47655583204E-02  0.30963768929E-02 -0.13092996095E-02  0.58320117828E-02  0.00000000000E+00 0.  1.
         14    1    1    0    0    0  0.13029822336E-02 -0.14725739117E-02  0.79131201033E-03  0.21195309208E-02  0.00000000000E+00 0.  1.
     999901    1    1    0    0    0 -0.47973275471E-02 -0.16065698605E-01 -0.17159906656E-02  0.90015780041E+00  0.90000000000E+00 0. -1.
     999903    1    1    0    0    0 -0.13201629324E-02  0.10936176302E-01 -0.43389319981E-03  0.22837054223E-01  0.20000000000E-01 0.  0.
</event>
<event>
 7    1  0.4717691E-066  0.9118800E+02  0.7957747E-01            NaN
     999900   -1    0    0    0    0  0.00000000000E+00  0.00000000000E+00  0.99999998245E-14  0.93827000000E+00  0.93827000000E+00 0.  1.
        -11    1    1    0    0    0 -0.72219355518E-03 -0.25115635358E-03 -0.33743600046E-02  0.34974375599E-02  0.51100000000E-03 0. -1.
        -14    1    1    0    0    0  0.80915880851E-03 -0.20177356346E-02  0.17461373258E-02  0.27883670183E-02  0.00000000000E+00 0. -1.
         12    1    1    0    0    0 -0.16708674670E-02  0.41989776829E-02  0.12438018074E-03  0.45209160690E-02  0.00000000000E+00 0.  1.
         14    1    1    0    0    0  0.40795154538E-02 -0.12618978310E-02 -0.41048084431E-02  0.59231988678E-02  0.00000000000E+00 0.  1.
     999901    1    1    0    0    0 -0.81592780820E-02  0.84298897805E-03  0.10639081541E-01  0.90010025803E+00  0.90000000000E+00 0.  1.
     999903    1    1    0    0    0  0.56636648418E-02 -0.15111768418E-02 -0.50304305998E-02  0.21439822455E-01  0.20000000000E-01 0.  0.
</event>
<event>
 7    1  0.4717691E-066  0.9118800E+02  0.7957747E-01            NaN
     999900   -1    0    0    0    0  0.00000000000E+00  0.00000000000E+00  0.99999998245E-14  0.93827000000E+00  0.93827000000E+00 0.  1.
        -11    1    1    0    0    0 -0.25200169776E-02  0.24356643993E-02 -0.26981698171E-02  0.44524361865E-02  0.51100000000E-03 0. -1.
        -14    1    1    0    0    0  0.40236378504E-02  0.47062464917E-02  0.75420327435E-03  0.62375668470E-02  0.00000000000E+00 0. -1.
         12    1    1    0    0    0  0.13788191323E-02  0.11533475651E-02 -0.30502618691E-04  0.17978551708E-02  0.00000000000E+00 0.  1.
         14    1    1    0    0    0 -0.16806404990E-02 -0.58958652900E-03 -0.20133938646E-02  0.26881070693E-02  0.00000000000E+00 0.  1.
     999901    1    1    0    0    0 -0.15070716026E-02 -0.93015433818E-02 -0.72842673149E-02  0.90007880240E+00  0.90000000000E+00 0. -1.
     999903    1    1    0    0    0  0.30527209650E-03  0.15958714547E-02  0.11272130341E-01  0.23015232329E-01  0.20000000000E-01 0.  0.
</event>
<event>
 7    1  0.4717691E-066  0.9118800E+02  0.7957747E-01            NaN
     999900   -1    0    0    0    0  0.00000000000E+00  0.00000000000E+00  0.99999998245E-14  0.93827000000E+00  0.93827000000E+00 0.  1.
        -11    1    1    0    0    0 -0.39209783078E-02 -0.42647469971E-04 -0.92578739355E-03  0.40612920351E-02  0.51100000000E-03 0. -1.
        -14    1    1    0    0    0  0.26595999080E-02 -0.89683077884E-03 -0.18006735621E-03  0.28125080212E-02  0.00000000000E+00 0. -1.
         12    1    1    0    0    0 -0.83557501939E-03 -0.98636865984E-03  0.22934346804E-02  0.26326700096E-02  0.00000000000E+00 0.  1.
         14    1    1    0    0    0  0.34224039850E-02 -0.32528364165E-03  0.55234409870E-03  0.34819164964E-02  0.00000000000E+00 0.  1.
     999901    1    1    0    0    0  0.12711964907E-01  0.77903861823E-02  0.53846369581E-03  0.90012364379E+00  0.90000000000E+00 0. -1.
     999903    1    1    0    0    0 -0.14037415473E-01 -0.55392556320E-02 -0.22783877252E-02  0.25157969647E-01  0.20000000000E-01 0.  0.
</event>
<event>
 7    1  0.4717691E-066  0.9118800E+02  0.7957747E-01            NaN
     999900   -1    0    0    0    0  0.00000000000E+00  0.00000000000E+00  0.99999998245E-14  0.93827000000E+00  0.93827000000E+00 0.  1.
        -11    1    1    0    0    0  0.35664241213E-02  0.56752588160E-03  0.28855288292E-02  0.46506842790E-02  0.51100000000E-03 0. -1.
        -14    1    1    0    0    0  0.51517987453E-03 -0.85751477913E-03 -0.47028343313E-03  0.11053996594E-02  0.00000000000E+00 0. -1.
         12    1    1    0    0    0  0.27527694138E-03 -0.27891014810E-03  0.17459235245E-02  0.17893622380E-02  0.00000000000E+00 0.  1.
         14    1    1    0    0    0  0.64911469402E-03 -0.23651551683E-02 -0.32563287053E-02  0.40766389948E-02  0.00000000000E+00 0.  1.
     999901    1    1    0    0    0  0.33480807966E-02  0.17882784282E-01 -0.34991649920E-02  0.90019067301E+00  0.90000000000E+00 0.  1.
     999903    1    1    0    0    0 -0.83540764278E-02 -0.14948730068E-01  0.25943247768E-02  0.26457241819E-01  0.20000000000E-01 0.  0.
</event>
<event>
 7    1  0.4717691E-066  0.9118800E+02  0.7957747E-01            NaN
     999900   -1    0    0    0    0  0.00000000000E+00  0.00000000000E+00  0.99999998245E-14  0.93827000000E+00  0.93827000000E+00 0.  1.
        -11    1    1    0    0    0 -0.94403015491E-03 -0.12584408202E-02 -0.10632115846E-02  0.19663179053E-02  0.51100000000E-03 0. -1.
        -14    1    1    0    0    0 -0.55016919333E-02  0.78891058679E-03  0.18082251946E-02  0.58447132006E-02  0.00000000000E+00 0. -1.
         12    1    1    0    0    0  0.49008512589E-03 -0.39323609086E-02 -0.14907556864E-02  0.42339105166E-02  0.00000000000E+00 0.  1.
         14    1    1    0    0    0 -0.67164648362E-03  0.70603974197E-03 -0.39959226504E-03  0.10532212942E-02  0.00000000000E+00 0.  1.
     999901    1    1    0    0    0  0.95417016973E-02  0.17216824635E-01  0.66495523713E-02  0.90023979009E+00  0.90000000000E+00 0. -1.
     999903    1    1    0    0    0 -0.29144182514E-02 -0.13520973235E-01 -0.55042180299E-02  0.24932046989E-01  0.20000000000E-01 0.  0.
</event>
<event>
 7    1  0.4717691E-066  0.9118800E+02  0.7957747E-01            NaN
     999900   -1    0    0    0    0  0.00000000000E+00  0.00000000000E+00  0.99999998245E-14  0.93827000000E+00  0.93827000000E+00 0. -1.
        -11    1    1    0    0    0  0.16978122446E-02 -0.33110671392E-02  0.91423417116E-04  0.37570215942E-02  0.51100000000E-03 0. -1.
        -14    1    1    0    0    0 -0.49471827650E-02  0.50793502400E-02 -0.28651708556E-02  0.76474584146E-02  0.00000000000E+00 0. -1.
         12    1    1    0    0    0  0.21423086401E-02  0.46691071515E-03  0.98941883070E-03  0.24055023484E-02  0.00000000000E+00 0.  1.
         14    1    1    0    0    0  0.12808594792E-02 -0.54414231680E-03 -0.16278418588E-02  0.21416257805E-02  0.00000000000E+00 0.  1.
     999901    1    1    0    0    0  0.26050415910E-02 -0.95901119303E-02 -0.16357430090E-02  0.90005634943E+00  0.90000000000E+00 0.  1.
     999903    1    1    0    0    0 -0.27788391900E-02  0.78990604312E-02  0.50479134755E-02  0.22262042435E-01  0.20000000000E-01 0.  0.
</event>
<event>
 7    1  0.4717691E-066  0.9118800E+02  0.7957747E-01            NaN
     999900   -1    0    0    0    0  0.00000000000E+00  0.00000000000E+00  0.99999998245E-14  0.93827000000E+00  0.93827000000E+00 0. -1.
        -11    1    1    0    0    0 -0.59809493005E-02  0.23214794088E-02 -0.28517658895E-02  0.70395106981E-02  0.51100000000E-03 0. -1.
        -14    1    1    0    0    0  0.62641470951E-02 -0.36618172845E-02  0.29993136053E-02  0.78513901162E-02  0.00000000000E+00 0. -1.
         12    1    1    0    0    0  0.87364489334E-03 -0.32762785227E-04  0.14667337152E-02  0.17075235258E-02  0.00000000000E+00 0.  1.
         14    1    1    0    0    0 -0.38782255628E-03  0.42908076301E-03  0.12384842599E-03  0.59148547655E-03  0.00000000000E+00 0.  1.
     999901    1    1    0    0    0 -0.31714029633E-03  0.22334870217E-02 -0.81285973598E-02  0.90003953421E+00  0.90000000000E+00 0.  1.
     999903    1    1    0    0    0 -0.45187983534E-03 -0.12894671237E-02  0.63904675029E-02  0.21040555975E-01  0.20000000000E-01 0.  0.
</event>
<event>
 7    1  0.4717691E-066  0.9118800E+02  0.7957747E-01            NaN
     999900   -1    0    0    0    0  0.00000000000E+00  0.00000000000E+00  0.99999998245E-14  0.93827000000E+00  0.93827000000E+00 0. -1.
        -11    1    1    0    0    0 -0.46741074490E-02  0.31001440940E-02  0.24605785873E-02  0.61460346430E-02  0.51100000000E-03 0. -1.
        -14    1    1    0    0    0  0.51883182085E-03  0.20585634407E-03  0.64745131588E-04  0.56192101294E-03  0.00000000000E+00 0. -1.
         12    1    1    0    0    0 -0.11246161371E-02 -0.55838708037E-03 -0.14808957785E-03  0.12643132960E-02  0.00000000000E+00 0.  1.
         14    1    1    0    0    0  0.29052856085E-03  0.15744926126E-02  0.11900876829E-02  0.19949292029E-02  0.00000000000E+00 0.  1.
     999901    1    1    0    0    0 -0.12978927938E-01 -0.10352758986E-01  0.21796762014E-02  0.90015575495E+00  0.90000000000E+00 0.  1.
     999903    1    1    0    0    0  0.17968291142E-01  0.60306530163E-02 -0.57469980254E-02  0.28147046891E-01  0.20000000000E-01 0.  0.
</event>
<event>
 7    1  0.4717691E-066  0.9118800E+02  0.7957747E-01            NaN
     999900   -1    0    0    0    0  0.00000000000E+00  0.00000000000E+00  0.99999998245E-14  0.93827000000E+00  0.93827000000E+00 0. -1.
        -11    1    1    0    0    0 -0.42109199971E-02 -0.33357633806E-02  0.63294130783E-03  0.54333139291E-02  0.51100000000E-03 0. -1.
        -14    1    1    0    0    0  0.80025541439E-03  0.97030336032E-05 -0.83283438426E-03  0.11550393884E-02  0.00000000000E+00 0. -1.
         12    1    1    0    0    0  0.41147800441E-03  0.12809946515E-02 -0.29845067017E-02  0.32737656755E-02  0.00000000000E+00 0.  1.
         14    1    1    0    0    0 -0.22350951030E-02 -0.51969156160E-02 -0.27707506117E-02  0.62992571778E-02  0.00000000000E+00 0.  1.
     999901    1    1    0    0    0  0.97400897076E-02  0.40018376701E-03  0.10062371380E-01  0.90010903829E+00  0.90000000000E+00 0. -1.
     999903    1    1    0    0    0 -0.45058080264E-02  0.68417975445E-02 -0.41072209905E-02  0.21999585539E-01  0.20000000000E-01 0.  0.
</event>
<event>
 7    1  0.4717691E-066  0.9118800E+02  0.7957747E-01            NaN
     999900   -1    0    0    0    0  0.00000000000E+00  0.00000000000E+00  0.99999998245E-14  0.93827000000E+00  0.93827000000E+00 0.  1.
        -11    1    1    0    0    0  0.12112063904E-02 -0.43769040960E-05  0.11305756686E-02  0.17338865072E-02  0.51100000000E-03 0. -1.
        -14    1    1    0    0    0  0.43794608203E-02 -0.29347408242E-02 -0.10425261215E-02  0.53739409650E-02  0.00000000000E+00 0. -1.
         12    1    1    0    0    0 -0.45985626198E-02 -0.21037545415E-02  0.28569170033E-02  0.58081439465E-02  0.00000000000E+00 0.  1.
         14    1    1    0    0    0  0.27297898937E-02 -0.11340160277E-03  0.26647239361E-03  0.27451084357E-02  0.00000000000E+00 0.  1.
     999901    1    1    0    0    0 -0.30654734755E-02  0.79269207334E-02  0.67928896665E-02  0.90006576235E+00  0.90000000000E+00 0. -1.
     999903    1    1    0    0    0 -0.65642100914E-03 -0.27706468609E-02 -0.10004328611E-01  0.22543157798E-01  0.20000000000E-01 0.  0.
</event>
<event>
 7    1  0.4717691E-066  0.9118800E+02  0.7957747E-01            NaN
     999900   -1    0    0    0    0  0.00000000000E+00  0.00000000000E+00  0.99999998245E-14  0.93827000000E+00  0.93827000000E+00 0. -1.
        -11    1    1    0    0    0  0.21873140479E-02  0.57317896470E-04 -0.67944472670E-02  0.71563442308E-02  0.51100000000E-03 0. -1.
        -14    1    1    0    0    0 -0.22515219688E-02  0.13972239510E-02  0.33789651473E-02  0.42940646726E-02  0.00000000000E+00 0. -1.
         12    1    1    0    0    0 -0.50480438791E-03  0.33395647704E-03 -0.80973619579E-03  0.10109535624E-02  0.00000000000E+00 0.  1.
         14    1    1    0    0    0  0.94497090139E-04  0.13754942097E-02  0.72626922129E-03  0.15583263467E-02  0.00000000000E+00 0.  1.
     999901    1    1    0    0    0  0.13888467025E-01 -0.40840912439E-02  0.45518648862E-02  0.90012792913E+00  0.90000000000E+00 0.  1.
     999903    1    1    0    0    0 -0.13413951806E-01  0.92009870971E-03 -0.10529157921E-02  0.24122382062E-01  0.20000000000E-01 0.  0.
</event>
<event>
 7    1  0.4717691E-066  0.9118800E+02  0.7957747E-01            NaN
     999900   -1    0    0    0    0  0.00000000000E+00  0.00000000000E+00  0.99999998245E-14  0.93827000000E+00  0.93827000000E+00 0.  1.
        -11    1    1    0    0    0 -0.19323460336E-03 -0.41155678941E-02  0.28435661462E-02  0.50321196459E-02  0.51100000000E-03 0. -1.
        -14    1    1    0    0    0 -0.35286454463E-02  0.22767284357E-02 -0.84945901431E-03  0.42844383147E-02  0.00000000000E+00 0. -1.
         12    1    1    0    0    0 -0.94356809717E-03 -0.45396810446E-03  0.18268858095E-02  0.21056874305E-02  0.00000000000E+00 0.  1.
         14    1    1    0    0    0  0.36253561209E-03  0.87542890164E-04 -0.18828876118E-02  0.19194690897E-02  0.00000000000E+00 0.  1.
     999901    1    1    0    0    0  0.17251885266E-01  0.57491963933E-02  0.36908487021E-02  0.90019125922E+00  0.90000000000E+00 0.  1.
     999903    1    1    0    0    0 -0.12948972732E-01 -0.35439317206E-02 -0.56289540317E-02  0.24737026303E-01  0.20000000000E-01 0.  0.
</event>
<event>
 7    1  0.4717691E-066  0.9118800E+02  0.7957747E-01            NaN
     999900   -1    0    0    0    0  0.00000000000E+00  0.00000000000E+00  0.99999998245E-14  0.93827000000E+00  0.93827000000E+00 0.  1.
        -11    1    1    0    0    0  0.53169338171E-03  0.56532241580E-03 -0.28408211533E-03  0.97165371106E-03  0.51100000000E-03 0. -1.
        -14    1    1    0    0    0 -0.18203161221E-02 -0.10452302284E-02  0.20517119608E-02  0.29352306528E-02  0.00000000000E+00 0. -1.
         12    1    1    0    0    0  0.50775418726E-02  0.22921586383E-02  0.12594986562E-02  0.57115461616E-02  0.00000000000E+00 0.  1.
         14    1    1    0    0    0 -0.25956900134E-02 -0.54650365135E-03  0.17439459533E-02  0.31745267954E-02  0.00000000000E+00 0.  1.
     999901    1    1    0    0    0  0.54994751504E-02  0.15185612850E-02  0.91306480831E-02  0.90006439713E+00  0.90000000000E+00 0.  1.
     999903    1    1    0    0    0 -0.66927042692E-02 -0.27843084593E-02 -0.13901722538E-01  0.25412645544E-01  0.20000000000E-01 0.  0.
</event>
<event>
 7    1  0.4717691E-066  0.9118800E+02  0.7957747E-01            NaN
     999900   -1    0    0    0    0  0.00000000000E+00  0.00000000000E+00  0.99999998245E-14  0.93827000000E+00  0.93827000000E+00 0. -1.
        -11    1    1    0    0    0 -0.80965613517E-03 -0.69504538042E-03 -0.38144549285E-03  0.12430819772E-02  0.51100000000E-03 0. -1.
        -14    1    1    0    0    0  0.15801697293E-02  0.82392125107E-03 -0.13621968898E-02  0.22430699873E-02  0.00000000000E+00 0. -1.
         12    1    1    0    0    0 -0.91476268288E-03  0.38760454311E-02 -0.74406092238E-02  0.84393829497E-02  0.00000000000E+00 0.  1.
         14    1    1    0    0    0  0.22638111710E-02 -0.16668513832E-02  0.24683238235E-02  0.37411037208E-02  0.00000000000E+00 0.  1.
     999901    1    1    0    0    0  0.54297519121E-03 -0.93509172443E-02  0.13629509696E-01  0.90015193052E+00  0.90000000000E+00 0. -1.
     999903    1    1    0    0    0 -0.26625372735E-02  0.70128473258E-02 -0.69135819127E-02  0.22451430850E-01  0.20000000000E-01 0.  0.
</event>
<event>
 7    1  0.4717691E-066  0.9118800E+02  0.7957747E-01            NaN
     999900   -1    0    0    0    0  0.00000000000E+00  0.00000000000E+00  0.99999998245E-14  0.93827000000E+00  0.93827000000E+00 0. -1.
        -11    1    1    0    0    0  0.60330917029E-02  0.21187034121E-02 -0.88918178388E-03  0.64760223046E-02  0.51100000000E-03 0. -1.
        -14    1    1    0    0    0 -0.23479461798E-02  0.97252901972E-03 -0.25076302514E-02  0.35702763808E-02  0.00000000000E+00 0. -1.
         12    1    1    0    0    0 -0.75995122131E-03 -0.34229266437E-03 -0.86677465882E-04  0.83797560223E-03  0.00000000000E+00 0.  1.
         14    1    1    0    0    0  0.42554367337E-02  0.19312094930E-02 -0.15083012750E-02  0.49105279387E-02  0.00000000000E+00 0.  1.
     999901    1    1    0    0    0  0.28493398371E-02 -0.60106430520E-02  0.38565691802E-02  0.90003284367E+00  0.90000000000E+00 0. -1.
     999903    1    1    0    0    0 -0.10029970873E-01  0.13304937916E-02  0.11352215959E-02  0.22442354099E-01  0.20000000000E-01 0.  0.
</event>
<event>
 7    1  0.4717691E-066  0.9118800E+02  0.7957747E-01            NaN
     999900   -1    0    0    0    0  0.00000000000E+00  0.00000000000E+00  0.99999998245E-14  0.93827000000E+00  0.93827000000E+00 0.  1.
        -11    1    1    0    0    0  0.18730716461E-02 -0.88459577485E-03  0.51874871919E-03  0.21957067906E-02  0.51100000000E-03 0. -1.
        -14    1    1    0    0    0 -0.70703395774E-02 -0.10909406107E-02  0.64229569654E-02  0.96142721688E-02  0.00000000000E+00 0. -1.
         12    1    1    0    0    0 -0.56865211155E-03  0.32347806082E-02 -0.55870906236E-03  0.33315651912E-02  0.00000000000E+00 0.  1.
         14    1    1    0    0    0  0.32982500310E-04  0.60188879839E-03 -0.14547910625E-02  0.15747301376E-02  0.00000000000E+00 0.  1.
     999901    1    1    0    0    0  0.69053771952E-02 -0.82037892954E-02 -0.91936252508E-02  0.90011083159E+00  0.90000000000E+00 0. -1.
     999903    1    1    0    0    0 -0.11724396528E-02  0.63426562744E-02  0.42654196910E-02  0.21442894126E-01  0.20000000000E-01 0.  0.
</event>
<event>
 7    1  0.4717691E-066  0.9118800E+02  0.7957747E-01            NaN
     999900   -1    0    0    0    0  0.00000000000E+00  0.00000000000E+00  0.99999998245E-14  0.93827000000E+00  0.93827000000E+00 0. -1.
        -11    1    1    0    0    0  0.88174771663E-03  0.11375857854E-02 -0.18643331003E-03  0.15386548781E-02  0.51100000000E-03 0. -1.
        -14    1    1    0    0    0 -0.12065903287E-02 -0.26766697449E-02 -0.15886149184E-02  0.33382807707E-02  0.00000000000E+00 0. -1.
         12    1    1    0    0    0 -0.34106028168E-03  0.19605564152E-02 -0.33430903233E-02  0.38905470672E-02  0.00000000000E+00 0.  1.
         14    1    1    0    0    0  0.96865758715E-03 -0.41331456070E-02 -0.50678436042E-03  0.42752801683E-02  0.00000000000E+00 0.  1.
     999901    1    1    0    0    0 -0.33931783599E-02  0.18402319193E-01  0.61088882328E-02  0.90021523955E+00  0.90000000000E+00 0. -1.
     999903    1    1    0    0    0  0.30904236665E-02 -0.14690646042E-01 -0.48396532069E-03  0.25011997561E-01  0.20000000000E-01 0.  0.
</event>
<event>
 7    1  0.4717691E-066  0.9118800E+02  0.7957747E-01            NaN
     999900   -1    0    0    0    0  0.00000000000E+00  0.00000000000E+00  0.99999998245E-14  0.93827000000E+00  0.93827000000E+00 0. -1.
        -11    1    1    0    0    0 -0.15201296146E-02 -0.92866288434E-04  0.20721818015E-03  0.16197155821E-02  0.51100000000E-03 0. -1.
        -14    1    1    0    0    0  0.44730592023E-03  0.82463889625E-04  0.26421997559E-03  0.52601813169E-03  0.00000000000E+00 0. -1.
         12    1    1    0    0    0 -0.10610792195E-03 -0.64230036223E-03 -0.15281469703E-02  0.16610363660E-02  0.00000000000E+00 0.  1.
         14    1    1    0    0    0  0.54777303250E-02 -0.64648964571E-02 -0.60532185444E-02  0.10413542647E-01  0.00000000000E+00 0.  1.
     999901    1    1    0    0    0 -0.95572748633E-02  0.17832450533E-01  0.11736337615E-01  0.90030388171E+00  0.90000000000E+00 0. -1.
     999903    1    1    0    0    0  0.52584761546E-02 -0.10714851315E-01 -0.46264102559E-02  0.23745805567E-01  0.20000000000E-01 0.  0.
</event>
<event>
 7    1  0.4717691E-066  0.9118800E+02  0.7957747E-01            NaN
     999900   -1    0    0    0    0  0.00000000000E+00  0.00000000000E+00  0.99999998245E-14  0.93827000000E+00  0.93827000000E+00 0. -1.
        -11    1    1    0    0    0  0.32274939928E-02  0.36078851852E-03 -0.82315271450E-03  0.33890392769E-02  0.51100000000E-03 0. -1.
        -14    1    1    0    0    0 -0.80597499321E-03  0.11304971150E-02  0.46465879963E-05  0.13883951193E-02  0.00000000000E+00 0. -1.
         12    1    1    0    0    0  0.62286746717E-03 -0.23117596653E-02 -0.28967555677E-02  0.37581098242E-02  0.00000000000E+00 0.  1.
         14    1    1    0    0    0 -0.42798309403E-02  0.36925777581E-02  0.48753102527E-03  0.56736029009E-02  0.00000000000E+00 0.  1.
     999901    1    1    0    0    0 -0.11483310848E-01  0.65705383405E-03  0.40808801152E-02  0.90008274716E+00  0.90000000000E+00 0.  1.
     999903    1    1    0    0    0  0.12718755321E-01 -0.35291575603E-02 -0.85314944626E-03  0.23978105721E-01  0.20000000000E-01 0.  0.
</event>
<event>
 7    1  0.4717691E-066  0.9118800E+02  0.7957747E-01            NaN
     999900   -1    0    0    0    0  0.00000000000E+00  0.00000000000E+00  0.99999998245E-14  0.93827000000E+00  0.93827000000E+00 0.  1.
        -11    1    1    0    0    0 -0.39142806010E-02 -0.24614477442E-02  0.26600285506E-02  0.53588422733E-02  0.51100000000E-03 0. -1.
        -14    1    1    0    0    0  0.37056777174E-02 -0.27149565035E-02 -0.88856402812E-03  0.46789509714E-02  0.00000000000E+00 0. -1.
         12    1    1    0    0    0 -0.43329380963E-02 -0.42434287652E-03  0.19015072451E-02  0.47508051135E-02  0.00000000000E+00 0.  1.
         14    1    1    0    0    0 -0.45471997727E-04  0.98843165973E-04 -0.21237557775E-02  0.21265409182E-02  0.00000000000E+00 0.  1.
     999901    1    1    0    0    0 -0.16163618952E-02  0.79090011929E-02 -0.46627988784E-02  0.90004828016E+00  0.90000000000E+00 0.  1.
     999903    1    1    0    0    0  0.62033748728E-02 -0.24070972347E-02  0.31135828884E-02  0.21306580564E-01  0.20000000000E-01 0.  0.
</event>
<event>
 7    1  0.4717691E-066  0.9118800E+02  0.7957747E-01            NaN
     999900   -1    0    0    0    0  0.00000000000E+00  0.00000000000E+00  0.99999998245E-14  0.93827000000E+00  0.93827000000E+00 0.  1.
        -11    1    1    0    0    0  0.54357775521E-02 -0.52458846041E-03  0.20300613766E-02  0.58485161231E-02  0.51100000000E-03 0. -1.
        -14    1    1    0    0    0 -0.24659943718E-02  0.13389712467E-02 -0.14684940316E-04  0.28060983391E-02  0.00000000000E+00 0. -1.
         12    1    1    0    0    0  0.34597098573E-02  0.37504759437E-02 -0.11083775533E-02  0.52215096382E-02  0.00000000000E+00 0.  1.
         14    1    1    0    0    0  0.89339941048E-03  0.15006078589E-02  0.15871478606E-02  0.23598781291E-02  0.00000000000E+00 0.  1.
     999901    1    1    0    0    0 -0.15489493583E-01 -0.30218530214E-02 -0.63607649415E-03  0.90013857855E+00  0.90000000000E+00 0. -1.
     999903    1    1    0    0    0  0.81666011344E-02 -0.30436135674E-02 -0.18580702494E-02  0.21895419217E-01  0.20000000000E-01 0.  0.
</event>
<event>
 7    1  0.4717691E-066  0.9118800E+02  0.7957747E-01            NaN
     999900   -1    0    0    0    0  0.00000000000E+00  0.00000000000E+00  0.99999998245E-14  0.93827000000E+00  0.93827000000E+00 0.  1.
        -11    1    1    0    0    0  0.10385623831E-02  0.40840986665E-02  0.10894672710E-02  0.43825259470E-02  0.51100000000E-03 0. -1.
        -14    1    1    0    0    0 -0.42566640203E-02 -0.61239729504E-02 -0.29536137055E-05  0.74580320463E-02  0.00000000000E+00 0. -1.
         12    1    1    0    0    0  0.12684632231E-02 -0.41922155129E-03 -0.19125050836E-02  0.23328997733E-02  0.00000000000E+00 0.  1.
         14    1    1    0    0    0 -0.29073541369E-02 -0.48726529594E-03 -0.76208344027E-03  0.30448163681E-02  0.00000000000E+00 0.  1.
     999901    1    1    0    0    0  0.21867527730E-02  0.63808337842E-02 -0.32021554283E-02  0.90003097209E+00  0.90000000000E+00 0. -1.
     999903    1    1    0    0    0  0.26702397779E-02 -0.34344726530E-02  0.47902302949E-02  0.21020753772E-01  0.20000000000E-01 0.  0.
</event>
<event>
 7    1  0.4717691E-066  0.9118800E+02  0.7957747E-01            NaN
     999900   -1    0    0    0    0  0.00000000000E+00  0.00000000000E+00  0.99999998245E-14  0.93827000000E+00  0.93827000000E+00 0.  1.
        -11    1    1    0    0    0 -0.11883430779E-02  0.25562159566E-02  0.26680682490E-03  0.28772740866E-02  0.51100000000E-03 0. -1.
        -14    1    1    0    0    0  0.36531465690E-02 -0.53796584509E-02 -0.34689196576E-02  0.73701837490E-02  0.00000000000E+00 0. -1.
         12    1    1    0    0    0 -0.14738259138E-02  0.43852908180E-04  0.61389362640E-04  0.14757555881E-02  0.00000000000E+00 0.  1.
         14    1    1    0    0    0  0.24640414242E-02 -0.76920521862E-03 -0.43717740110E-02  0.50769661030E-02  0.00000000000E+00 0.  1.
     999901    1    1    0    0    0 -0.42796758873E-02 -0.15196243099E-02  0.12996493801E-01  0.90010529036E+00  0.90000000000E+00 0.  1.
     999903    1    1    0    0    0  0.82465688582E-03  0.50684191146E-02 -0.54839963204E-02  0.21364530113E-01  0.20000000000E-01 0.  0.
</event>
<event>
 7    1  0.4717691E-066  0.9118800E+02  0.7957747E-01            NaN
     999900   -1    0    0    0    0  0.00000000000E+00  0.00000000000E+00  0.99999998245E-14  0.93827000000E+00  0.93827000000E+00 0.  1.
        -11    1    1    0    0    0 -0.51369127994E-02 -0.34574048543E-02  0.86330049235E-04  0.62137022227E-02  0.51100000000E-03 0. -1.
        -14    1    1    0    0    0  0.10221528279E-02  0.12684563532E-02  0.43022346701E-03  0.16848947015E-02  0.00000000000E+00 0. -1.
         12    1    1    0    0    0 -0.52897655931E-03 -0.31184745141E-02  0.24629781223E-02  0.40088602777E-02  0.00000000000E+00 0.  1.
         14    1    1    0    0    0 -0.74824477906E-03  0.60033970274E-03  0.25419401998E-02  0.27169354036E-02  0.00000000000E+00 0.  1.
     999901    1    1    0    0    0  0.10913308971E-01  0.10048481558E-02  0.50195070496E-02  0.90008072165E+00  0.90000000000E+00 0. -1.
     999903    1    1    0    0    0 -0.55213276611E-02  0.37022351567E-02 -0.10540978888E-01  0.23564885746E-01  0.20000000000E-01 0.  0.
</event>
<event>
 7    1  0.4717691E-066  0.9118800E+02  0.7957747E-01            NaN
     999900   -1    0    0    0    0  0.00000000000E+00  0.00000000000E+00  0.99999998245E-14  0.93827000000E+00  0.93827000000E+00 0. -1.
        -11    1    1    0    0    0  0.10027835699E-03 -0.73498724873E-03  0.92788307613E-03  0.12931937239E-02  0.51100000000E-03 0. -1.
        -14    1    1    0    0    0 -0.54049795242E-02 -0.22076639557E-03  0.11973367924E-02  0.55404112530E-02  0.00000000000E+00 0. -1.
         12    1    1    0    0    0  0.17060473586E-02  0.13221145038E-03  0.44911093445E-03  0.17691178843E-02  0.00000000000E+00 0.  1.
         14    1    1    0    0    0 -0.14521841799E-02  0.52082466465E-02  0.35841261951E-02  0.64869586560E-02  0.00000000000E+00 0.  1.
     999901    1    1    0    0    0  0.91273332142E-02 -0.14194451408E-01 -0.99825078616E-02  0.90021355307E+00  0.90000000000E+00 0.  1.
     999903    1    1    0    0    0 -0.40764952257E-02  0.98097469551E-02  0.38240508635E-02  0.22966765416E-01  0.20000000000E-01 0.  0.
</event>
<event>
 7    1  0.4717691E-066  0.9118800E+02  0.7957747E-01            NaN
     999900   -1    0    0    0    0  0.00000000000E+00  0.00000000000E+00  0.99999998245E-14  0.93827000000E+00  0.93827000000E+00 0. -1.
        -11    1    1    0    0    0 -0.32882253802E-02  0.18398140755E-03  0.29372478140E-03  0.33456943310E-02  0.51100000000E-03 0. -1.
        -14    1    1    0    0    0 -0.30423557102E-04  0.39573257572E-02 -0.83871096026E-03  0.40453416192E-02  0.00000000000E+00 0. -1.
         12    1    1    0    0    0  0.22518043282E-03  0.43916817815E-02  0.14929649223E-02  0.46439766749E-02  0.00000000000E+00 0.  1.
         14    1    1    0    0    0 -0.32578059482E-02 -0.26238432117E-02  0.19050682454E-03  0.41873793291E-02  0.00000000000E+00 0.  1.
     999901    1    1    0    0    0 -0.24586560361E-02 -0.45191245142E-02 -0.35051503333E-02  0.90002152950E+00  0.90000000000E+00 0.  1.
     999903    1    1    0    0    0  0.88099304888E-02 -0.13900212204E-02  0.23666647653E-02  0.22026078551E-01  0.20000000000E-01 0.  0.
</event>
<event>
 7    1  0.4717691E-066  0.9118800E+02  0.7957747E-01            NaN
     999900   -1    0    0    0    0  0.00000000000E+00  0.00000000000E+00  0.99999998245E-14  0.93827000000E+00  0.93827000000E+00 0.  1.
        -11    1    1    0    0    0 -0.28574477862E-02 -0.69384654945E-03 -0.65333717843E-03  0.30552252542E-02  0.51100000000E-03 0. -1.
        -14    1    1    0    0    0  0.11188097456E-02 -0.15669177765E-02 -0.33499037862E-02  0.38637833715E-02  0.00000000000E+00 0. -1.
         12    1    1    0    0    0  0.25018249732E-02 -0.44657164229E-03 -0.26388638965E-02  0.36636262217E-02  0.00000000000E+00 0.  1.
         14    1    1    0    0    0  0.10997425141E-02 -0.46796253909E-02  0.11366375564E-02  0.49396631799E-02  0.00000000000E+00 0.  1.
     999901    1    1    0    0    0 -0.91479320001E-02 -0.37039628220E-03  0.65169345959E-02  0.90007015965E+00  0.90000000000E+00 0.  1.
     999903    1    1    0    0    0  0.72850025535E-02  0.77573576414E-02 -0.10114672912E-02  0.22677542324E-01  0.20000000000E-01 0.  0.
</event>
<event>
 7    1  0.4717691E-066  0.9118800E+02  0.7957747E-01            NaN
     999900   -1    0    0    0    0  0.00000000000E+00  0.00000000000E+00  0.99999998245E-14  0.93827000000E+00  0.93827000000E+00 0. -1.
        -11    1    1    0    0    0 -0.21249568414E-02 -0.30335731732E-03  0.62687713735E-03  0.22938097534E-02  0.51100000000E-03 0. -1.
        -14    1    1    0    0    0  0.31548392042E-03 -0.13024479113E-03  0.11263767605E-02  0.11769530221E-02  0.00000000000E+00 0. -1.
         12    1    1    0    0    0 -0.45770068757E-02 -0.11967137710E-02  0.18846144546E-02  0.50924343326E-02  0.00000000000E+00 0.  1.
         14    1    1    0    0    0  0.20146636877E-02  0.25380247079E-02 -0.30073254796E-02  0.44209100571E-02  0.00000000000E+00 0.  1.
     999901    1    1    0    0    0  0.17443892383E-01  0.48268517081E-02 -0.56844075137E-02  0.90019992244E+00  0.90000000000E+00 0.  1.
     999903    1    1    0    0    0 -0.13072076274E-01 -0.57345605365E-02  0.50538646409E-02  0.25085970391E-01  0.20000000000E-01 0.  0.
</event>
<event>
 7    1  0.4717691E-066  0.9118800E+02  0.7957747E-01            NaN
     999900   -1    0    0    0    0  0.00000000000E+00  0.00000000000E+00  0.99999998245E-14  0.93827000000E+00  0.93827000000E+00 0.  1.
        -11    1    1    0    0    0 -0.88735542395E-03 -0.49693057128E-03  0.14603074906E-02  0.18514747117E-02  0.51100000000E-03 0. -1.
        -14    1    1    0    0    0 -0.18957544828E-02 -0.14574731503E-02 -0.28519712369E-03  0.24082048174E-02  0.00000000000E+00 0. -1.
         12    1    1    0    0    0 -0.17575019152E-02  0.77619956867E-03 -0.41987535890E-02  0.46174484787E-02  0.00000000000E+00 0.  1.
         14    1    1    0    0    0  0.47745481063E-02 -0.42800720390E-02 -0.14874408157E-02  0.65823860764E-02  0.00000000000E+00 0.  1.
     999901    1    1    0    0    0 -0.68014292936E-02 -0.21248613213E-02  0.85774866023E-02  0.90006907943E+00  0.90000000000E+00 0.  1.
     999903    1    1    0    0    0  0.65674930092E-02  0.75831375132E-02 -0.40664025645E-02  0.22741406482E-01  0.20000000000E-01 0.  0.
</event>
<event>
 7    1  0.4717691E-066  0.9118800E+02  0.7957747E-01            NaN
     999900   -1    0    0    0    0  0.00000000000E+00  0.00000000000E+00  0.99999998245E-14  0.93827000000E+00  0.93827000000E+00 0.  1.
        -11    1    1    0    0    0 -0.59075359129E-02  0.81165406857E-03 -0.12224155641E-02  0.61084518252E-02  0.51100000000E-03 0. -1.
        -14    1    1    0    0    0  0.44036162953E-02 -0.15036168366E-02 -0.23291247239E-02  0.52036066383E-02  0.00000000000E+00 0. -1.
         12    1    1    0    0    0  0.20660653745E-03 -0.18583178838E-02  0.99155336737E-03  0.21164143495E-02  0.00000000000E+00 0.  1.
         14    1    1    0    0    0  0.15215262250E-02 -0.88904693522E-03  0.25361632231E-03  0.17803841566E-02  0.00000000000E+00 0.  1.
     999901    1    1    0    0    0  0.25626945539E-02  0.53203487930E-02 -0.85449155720E-02  0.90005993639E+00  0.90000000000E+00 0. -1.
     999903    1    1    0    0    0 -0.27869076987E-02 -0.18810212060E-02  0.10851286170E-01  0.23001206639E-01  0.20000000000E-01 0.  0.
</event>
<event>
 7    1  0.4717691E-066  0.9118800E+02  0.7957747E-01            NaN
     999900   -1    0    0    0    0  0.00000000000E+00  0.00000000000E+00  0.99999998245E-14  0.93827000000E+00  0.93827000000E+00 0. -1.
        -11    1    1    0    0    0 -0.23256440932E-03  0.31805997326E-04 -0.16145191921E-02  0.17096464686E-02  0.51100000000E-03 0. -1.
        -14    1    1    0    0    0  0.55720234262E-02 -0.28291912578E-03  0.53650241453E-02  0.77402178505E-02  0.00000000000E+00 0. -1.
         12    1    1    0    0    0 -0.21412039890E-02  0.21801128001E-02  0.25026556285E-05  0.30557572887E-02  0.00000000000E+00 0.  1.
         14    1    1    0    0    0  0.17887930902E-02  0.66884623456E-03  0.85815265862E-04  0.19116747278E-02  0.00000000000E+00 0.  1.
     999901    1    1    0    0    0  0.71901151099E-02 -0.58269428845E-02 -0.10199756390E-02  0.90004816058E+00  0.90000000000E+00 0.  1.
     999903    1    1    0    0    0 -0.12177163228E-01  0.32290969783E-02 -0.28188472357E-02  0.23804543081E-01  0.20000000000E-01 0.  0.
</event>
<event>
 7    1  0.4717691E-066  0.9118800E+02  0.7957747E-01            NaN
     999900   -1    0    0    0    0  0.00000000000E+00  0.00000000000E+00  0.99999998245E-14  0.93827000000E+00  0.93827000000E+00 0. -1.
        -11    1    1    0    0    0  0.80724176454E-03 -0.32606433539E-02 -0.11579515685E-02  0.35896249362E-02  0.51100000000E-03 0. -1.
        -14    1    1    0    0    0 -0.26055188298E-02  0.91071739187E-03 -0.66334646430E-03  0.28386903798E-02  0.00000000000E+00 0. -1.
         12    1    1    0    0    0 -0.38621409110E-02  0.20681166515E-02  0.53702082339E-04  0.43813380164E-02  0.00000000000E+00 0.  1.
         14    1    1    0    0    0  0.79989479597E-03  0.95965381052E-03 -0.33273079734E-02  0.35541166935E-02  0.00000000000E+00 0.  1.
     999901    1    1    0    0    0 -0.34626590162E-02 -0.67411046096E-02  0.12814830994E-01  0.90012313179E+00  0.90000000000E+00 0. -1.
     999903    1    1    0    0    0  0.83231821964E-02  0.60632601096E-02 -0.77199270706E-02  0.23783098179E-01  0.20000000000E-01 0.  0.
</event>
<event>
 7    1  0.4717691E-066  0.9118800E+02  0.7957747E-01            NaN
     999900   -1    0    0    0    0  0.00000000000E+00  0.00000000000E+00  0.99999998245E-14  0.93827000000E+00  0.93827000000E+00 0.  1.
        -11    1    1    0    0    0 -0.24105375803E-02 -0.10472081441E-02  0.14183262782E-02  0.30298690986E-02  0.51100000000E-03 0. -1.
        -14    1    1    0    0    0  0.48055750356E-02  0.43393437016E-02 -0.31569152717E-02  0.72034414842E-02  0.00000000000E+00 0. -1.
         12    1    1    0    0    0  0.24684929193E-02 -0.24356146210E-04  0.23445991494E-03  0.24797221550E-02  0.00000000000E+00 0.  1.
         14    1    1    0    0    0 -0.34311981939E-02  0.50504746595E-03 -0.42178105113E-03  0.34937219758E-02  0.00000000000E+00 0.  1.
     999901    1    1    0    0    0 -0.99616244697E-02 -0.24082461902E-02 -0.11678193426E-02  0.90005910773E+00  0.90000000000E+00 0. -1.
     999903    1    1    0    0    0  0.85292922892E-02 -0.13645806871E-02  0.30937294723E-02  0.22004137553E-01  0.20000000000E-01 0.  0.
</event>
<event>
 7    1  0.4717691E-066  0.9118800E+02  0.7957747E-01            NaN
     999900   -1    0    0    0    0  0.00000000000E+00  0.00000000000E+00  0.99999998245E-14  0.93827000000E+00  0.93827000000E+00 0. -1.
        -11    1    1    0    0    0  0.18153621929E-02  0.98541512684E-03  0.35174710239E-02  0.41109982082E-02  0.51100000000E-03 0. -1.
        -14    1    1    0    0    0  0.35862278090E-02  0.28592924506E-02 -0.17415630311E-02  0.49060804119E-02  0.00000000000E+00 0. -1.
         12    1    1    0    0    0 -0.11753963087E-02 -0.10251167566E-02 -0.83960561813E-03  0.17712589989E-02  0.00000000000E+00 0.  1.
         14    1    1    0    0    0 -0.21552058254E-02 -0.27846661132E-02  0.32238440145E-02  0.47741436658E-02  0.00000000000E+00 0. -1.
     999901    1    1    0    0    0 -0.73274778133E-02  0.74690252815E-02  0.12153426744E-02  0.90006163974E+00  0.90000000000E+00 0. -1.
     999903    1    1    0    0    0  0.52564899456E-02 -0.75039499892E-02 -0.53754890635E-02  0.22645878977E-01  0.20000000000E-01 0.  0.
</event>
<event>
 7    1  0.4717691E-066  0.9118800E+02  0.7957747E-01            NaN
     999900   -1    0    0    0    0  0.00000000000E+00  0.00000000000E+00  0.99999998245E-14  0.93827000000E+00  0.93827000000E+00 0. -1.
        -11    1    1    0    0    0  0.21377646940E-02 -0.23635302541E-02  0.19659912862E-03  0.32335870742E-02  0.51100000000E-03 0. -1.
        -14    1    1    0    0    0 -0.21075682900E-02  0.29505126576E-02  0.24785063176E-02  0.43920795309E-02  0.00000000000E+00 0. -1.
         12    1    1    0    0    0 -0.49898839183E-03 -0.53937498940E-04 -0.14413465549E-02  0.15262301794E-02  0.00000000000E+00 0.  1.
         14    1    1    0    0    0  0.20248244169E-02  0.55939919158E-03  0.49892921497E-02  0.54134903279E-02  0.00000000000E+00 0.  1.
     999901    1    1    0    0    0  0.89078606487E-02  0.55692360226E-02 -0.40544383934E-02  0.90007044438E+00  0.90000000000E+00 0.  1.
     999903    1    1    0    0    0 -0.10463893078E-01 -0.66616801188E-02 -0.21686126476E-02  0.23634168510E-01  0.20000000000E-01 0.  0.
</event>
<event>
 7    1  0.4717691E-066  0.9118800E+02  0.7957747E-01            NaN
     999900   -1    0    0    0    0  0.00000000000E+00  0.00000000000E+00  0.99999998245E-14  0.93827000000E+00  0.93827000000E+00 0. -1.
        -11    1    1    0    0    0 -0.30966079223E-03 -0.23651856634E-02 -0.82828405638E-04  0.24408962644E-02  0.51100000000E-03 0. -1.
        -14    1    1    0    0    0  0.10745575450E-02  0.16444663359E-02 -0.94664129859E-03  0.21806130320E-02  0.00000000000E+00 0. -1.
         12    1    1    0    0    0 -0.80556553083E-03 -0.75816644521E-03 -0.27978556457E-02  0.30086123708E-02  0.00000000000E+00 0.  1.
         14    1    1    0    0    0 -0.28543784041E-02  0.23685442024E-02  0.22649455057E-02  0.43459700708E-02  0.00000000000E+00 0.  1.
     999901    1    1    0    0    0 -0.76770995882E-02  0.19315109830E-02  0.14361089989E-01  0.90014938177E+00  0.90000000000E+00 0. -1.
     999903    1    1    0    0    0  0.10572146770E-01 -0.28211694127E-02 -0.12798710145E-01  0.26144526493E-01  0.20000000000E-01 0.  0.
</event>
<event>
 7    1  0.4717691E-066  0.9118800E+02  0.7957747E-01            NaN
     999900   -1    0    0    0    0  0.00000000000E+00  0.00000000000E+00  0.99999998245E-14  0.93827000000E+00  0.93827000000E+00 0.  1.
        -11    1    1    0    0    0  0.22774087649E-02 -0.70846908335E-03  0.67248289174E-03  0.25301923571E-02  0.51100000000E-03 0. -1.
        -14    1    1    0    0    0 -0.81845101013E-03 -0.26163776016E-02 -0.28306900870E-03  0.27559792949E-02  0.00000000000E+00 0. -1.
         12    1    1    0    0    0  0.38132726191E-03 -0.18505029274E-04 -0.43840053012E-02  0.44005971638E-02  0.00000000000E+00 0.  1.
         14    1    1    0    0    0  0.54792043003E-03  0.44599309183E-03  0.10295098197E-02  0.12486060645E-02  0.00000000000E+00 0.  1.
     999901    1    1    0    0    0 -0.57865411364E-02 -0.50274223968E-02 -0.13334120725E-01  0.90013141141E+00  0.90000000000E+00 0. -1.
     999903    1    1    0    0    0  0.33983356897E-02  0.79247810192E-02  0.16299202324E-01  0.27203213708E-01  0.20000000000E-01 0.  0.
</event>
<event>
 7    1  0.4717691E-066  0.9118800E+02  0.7957747E-01            NaN
     999900   -1    0    0    0    0  0.00000000000E+00  0.00000000000E+00  0.99999998245E-14  0.93827000000E+00  0.93827000000E+00 0. -1.
        -11    1    1    0    0    0 -0.33195088657E-02  0.52164926825E-02  0.42805266618E-03  0.62189456583E-02  0.51100000000E-03 0. -1.
        -14    1    1    0    0    0  0.31538645283E-03 -0.42909753065E-02  0.26386280774E-02  0.50472067350E-02  0.00000000000E+00 0. -1.
         12    1    1    0    0    0  0.20084684405E-02 -0.10727484004E-02 -0.51359913142E-03  0.23342062194E-02  0.00000000000E+00 0.  1.
         14    1    1    0    0    0 -0.10858513319E-02  0.45994794759E-03  0.12443341089E-02  0.17143490321E-02  0.00000000000E+00 0.  1.
     999901    1    1    0    0    0  0.66194376448E-02 -0.57838189551E-02 -0.12203746563E-01  0.90012565842E+00  0.90000000000E+00 0.  1.
     999903    1    1    0    0    0 -0.45379323405E-02  0.54711020320E-02  0.84063308419E-02  0.22829633935E-01  0.20000000000E-01 0.  0.
</event>
<event>
 7    1  0.4717691E-066  0.9118800E+02  0.7957747E-01            NaN
     999900   -1    0    0    0    0  0.00000000000E+00  0.00000000000E+00  0.99999998245E-14  0.93827000000E+00  0.93827000000E+00 0. -1.
        -11    1    1    0    0    0 -0.95881527453E-03 -0.75252620051E-03 -0.50410588419E-02  0.52114314407E-02  0.51100000000E-03 0. -1.
        -14    1    1    0    0    0  0.31664271959E-02  0.19422227513E-02  0.44342093591E-03  0.37410042140E-02  0.00000000000E+00 0. -1.
         12    1    1    0    0    0  0.17146405241E-02  0.81428739016E-03  0.10444726694E-02  0.21665593086E-02  0.00000000000E+00 0.  1.
         14    1    1    0    0    0 -0.62182985272E-03 -0.32758263555E-03 -0.39944700481E-02  0.40558320618E-02  0.00000000000E+00 0.  1.
     999901    1    1    0    0    0  0.60237064875E-02  0.38070208002E-02  0.37103551397E-02  0.90003585772E+00  0.90000000000E+00 0.  1.
     999903    1    1    0    0    0 -0.93241290803E-02 -0.54834221056E-02  0.38372801450E-02  0.23059315254E-01  0.20000000000E-01 0.  0.
</event>
<event>
 7    1  0.4717691E-066  0.9118800E+02  0.7957747E-01            NaN
     999900   -1    0    0    0    0  0.00000000000E+00  0.00000000000E+00  0.99999998245E-14  0.93827000000E+00  0.93827000000E+00 0. -1.
        -11    1    1    0    0    0  0.13709155662E-03  0.12612753356E-02 -0.22747724263E-02  0.26543021981E-02  0.51100000000E-03 0. -1.
        -14    1    1    0    0    0  0.38014105234E-03 -0.97922284162E-03 -0.82689452017E-04  0.10536707924E-02  0.00000000000E+00 0. -1.
         12    1    1    0    0    0 -0.35932994892E-03 -0.84385000950E-03 -0.59762278076E-02  0.60461971238E-02  0.00000000000E+00 0.  1.
         14    1    1    0    0    0  0.14864785383E-02  0.46346772841E-02 -0.53284757806E-02  0.72168210534E-02  0.00000000000E+00 0.  1.
     999901    1    1    0    0    0  0.16045122458E-02 -0.21637339220E-02  0.19194056045E-01  0.90020868025E+00  0.90000000000E+00 0. -1.
     999903    1    1    0    0    0 -0.32488934442E-02 -0.19091458466E-02 -0.55318905788E-02  0.21090328586E-01  0.20000000000E-01 0.  0.
</event>
<event>
 7    1  0.4717691E-066  0.9118800E+02  0.7957747E-01            NaN
     999900   -1    0    0    0    0  0.00000000000E+00  0.00000000000E+00  0.99999998245E-14  0.93827000000E+00  0.93827000000E+00 0. -1.
        -11    1    1    0    0    0  0.42635876898E-03  0.14859886143E-02  0.33108603036E-02  0.36895610730E-02  0.51100000000E-03 0. -1.
        -14    1    1    0    0    0  0.99055628142E-03 -0.30165273351E-02 -0.35056531960E-02  0.47297191503E-02  0.00000000000E+00 0. -1.
         12    1    1    0    0    0 -0.30311152678E-02  0.10195438205E-02 -0.22974393116E-02  0.39376841873E-02  0.00000000000E+00 0.  1.
         14    1    1    0    0    0  0.12852362061E-02 -0.76422103728E-05  0.31002376243E-02  0.33560935380E-02  0.00000000000E+00 0.  1.
     999901    1    1    0    0    0  0.65842700058E-02  0.40552697431E-03 -0.87725083360E-02  0.90006692749E+00  0.90000000000E+00 0.  1.
     999903    1    1    0    0    0 -0.62553059944E-02  0.11311013634E-03  0.81645029157E-02  0.22490014559E-01  0.20000000000E-01 0.  0.
</event>
<event>
 7    1  0.4717691E-066  0.9118800E+02  0.7957747E-01            NaN
     999900   -1    0    0    0    0  0.00000000000E+00  0.00000000000E+00  0.99999998245E-14  0.93827000000E+00  0.93827000000E+00 0. -1.
        -11    1    1    0    0    0  0.13507210743E-02  0.19098722060E-02  0.37444021544E-03  0.24235069092E-02  0.51100000000E-03 0. -1.
        -14    1    1    0    0    0  0.13175563350E-03 -0.49168769454E-03 -0.18479510894E-02  0.19167784339E-02  0.00000000000E+00 0. -1.
         12    1    1    0    0    0  0.32699696209E-02 -0.23578474336E-02 -0.10163781322E-03  0.40326760454E-02  0.00000000000E+00 0.  1.
         14    1    1    0    0    0 -0.43510983226E-02  0.53328737934E-02 -0.18302443828E-02  0.71218953945E-02  0.00000000000E+00 0.  1.
     999901    1    1    0    0    0 -0.93619363987E-02 -0.10149258553E-01  0.37465076139E-02  0.90011370927E+00  0.90000000000E+00 0.  1.
     999903    1    1    0    0    0  0.89605883925E-02  0.57560476821E-02 -0.34111454394E-03  0.22661433944E-01  0.20000000000E-01 0.  0.
</event>
<event>
 7    1  0.4717691E-066  0.9118800E+02  0.7957747E-01            NaN
     999900   -1    0    0    0    0  0.00000000000E+00  0.00000000000E+00  0.99999998245E-14  0.93827000000E+00  0.93827000000E+00 0. -1.
        -11    1    1    0    0    0  0.22915290936E-02 -0.14553746836E-02  0.10994106448E-02  0.29730532828E-02  0.51100000000E-03 0. -1.
        -14    1    1    0    0    0 -0.30533639309E-02 -0.85846658778E-03 -0.21368421963E-02  0.38244072415E-02  0.00000000000E+00 0. -1.
         12    1    1    0    0    0  0.17929755633E-02 -0.18479204163E-02 -0.20880649363E-04  0.25748800432E-02  0.00000000000E+00 0.  1.
         14    1    1    0    0    0  0.33825184010E-02 -0.23035487963E-02  0.30257925872E-02  0.50895175185E-02  0.00000000000E+00 0. -1.
     999901    1    1    0    0    0 -0.15933381552E-01  0.11275195676E-01 -0.10034499070E-02  0.90021220254E+00  0.90000000000E+00 0.  1.
     999903    1    1    0    0    0  0.11519722425E-01 -0.48098851919E-02 -0.96403047943E-03  0.23595939377E-01  0.20000000000E-01 0.  0.
</event>
<event>
 7    1  0.4717691E-066  0.9118800E+02  0.7957747E-01            NaN
     999900   -1    0    0    0    0  0.00000000000E+00  0.00000000000E+00  0.99999998245E-14  0.93827000000E+00  0.93827000000E+00 0.  1.
        -11    1    1    0    0    0  0.33659209076E-02 -0.14742073685E-02 -0.24216909307E-02  0.44303971476E-02  0.51100000000E-03 0. -1.
        -14    1    1    0    0    0 -0.17391168369E-02 -0.52199614568E-03 -0.96139900499E-03  0.20545791285E-02  0.00000000000E+00 0. -1.
         12    1    1    0    0    0 -0.18767147104E-02  0.30925113724E-02 -0.11854858111E-02  0.38067126633E-02  0.00000000000E+00 0.  1.
         14    1    1    0    0    0  0.19728221329E-02 -0.35281339646E-02  0.53519964445E-02  0.67069831059E-02  0.00000000000E+00 0.  1.
     999901    1    1    0    0    0 -0.13856543437E-02  0.62229209983E-02 -0.67783405935E-02  0.90004810465E+00  0.90000000000E+00 0.  1.
     999903    1    1    0    0    0 -0.33725714956E-03 -0.37910948919E-02  0.59949198958E-02  0.21223223304E-01  0.20000000000E-01 0.  0.
</event>
<event>
 7    1  0.4717691E-066  0.9118800E+02  0.7957747E-01            NaN
     999900   -1    0    0    0    0  0.00000000000E+00  0.00000000000E+00  0.99999998245E-14  0.93827000000E+00  0.93827000000E+00 0.  1.
        -11    1    1    0    0    0 -0.12425085207E-02 -0.46934975817E-02 -0.21077219037E-02  0.53175520305E-02  0.51100000000E-03 0. -1.
        -14    1    1    0    0    0 -0.18426261727E-02  0.16594532490E-02  0.21636379897E-02  0.32909551270E-02  0.00000000000E+00 0. -1.
         12    1    1    0    0    0 -0.29285011710E-02 -0.10240099874E-02 -0.63987806796E-03  0.31676741475E-02  0.00000000000E+00 0.  1.
         14    1    1    0    0    0  0.17354104910E-02  0.30469484591E-02 -0.18652309555E-02  0.39717289689E-02  0.00000000000E+00 0.  1.
     999901    1    1    0    0    0  0.34333590048E-02  0.23898830279E-02  0.12464836663E-01  0.90009603468E+00  0.90000000000E+00 0.  1.
     999903    1    1    0    0    0  0.84486636850E-03 -0.13787771669E-02 -0.10015643726E-01  0.22426055045E-01  0.20000000000E-01 0.  0.
</event>
<event>
 7    1  0.4717691E-066  0.9118800E+02  0.7957747E-01            NaN
     999900   -1    0    0    0    0  0.00000000000E+00  0.00000000000E+00  0.99999998245E-14  0.93827000000E+00  0.93827000000E+00 0. -1.
        -11    1    1    0    0    0 -0.13313069251E-02  0.12109575686E-02  0.58713237633E-03  0.19607758130E-02  0.51100000000E-03 0. -1.
        -14    1    1    0    0    0  0.40574057546E-02  0.57860447424E-03 -0.17028267603E-02  0.44381238795E-02  0.00000000000E+00 0. -1.
         12    1    1    0    0    0 -0.14368887065E-02  0.48656185710E-03 -0.44420472866E-03  0.15807306654E-02  0.00000000000E+00 0.  1.
         14    1    1    0    0    0 -0.96347054008E-03  0.31874675542E-02  0.13641040583E-02  0.35984725610E-02  0.00000000000E+00 0.  1.
     999901    1    1    0    0    0  0.64697207554E-02  0.68669073619E-03  0.15045285141E-01  0.90014925953E+00  0.90000000000E+00 0. -1.
     999903    1    1    0    0    0 -0.67954603384E-02 -0.61502821903E-02 -0.14849490087E-01  0.26542637549E-01  0.20000000000E-01 0.  0.
</event>
<event>
 7    1  0.4717691E-066  0.9118800E+02  0.7957747E-01            NaN
     999900   -1    0    0    0    0  0.00000000000E+00  0.00000000000E+00  0.99999998245E-14  0.93827000000E+00  0.93827000000E+00 0.  1.
        -11    1    1    0    0    0  0.18304375628E-02  0.14900960900E-04  0.87086100516E-03  0.20905127602E-02  0.51100000000E-03 0. -1.
        -14    1    1    0    0    0 -0.38123615376E-02  0.11874196300E-02  0.28476512634E-02  0.49044045091E-02  0.00000000000E+00 0. -1.
         12    1    1    0    0    0  0.23478697813E-03 -0.52659276653E-03  0.66568009950E-03  0.88065592698E-03  0.00000000000E+00 0.  1.
         14    1    1    0    0    0  0.33931627069E-02 -0.53109646187E-03 -0.59701170769E-02  0.68875187491E-02  0.00000000000E+00 0.  1.
     999901    1    1    0    0    0  0.38145824932E-02 -0.63613712066E-02  0.10518481586E-01  0.90009202671E+00  0.90000000000E+00 0.  1.
     999903    1    1    0    0    0 -0.54606082034E-02  0.62167398441E-02 -0.89325568775E-02  0.23414881350E-01  0.20000000000E-01 0.  0.
</event>
<event>
 7    1  0.4717691E-066  0.9118800E+02  0.7957747E-01            NaN
     999900   -1    0    0    0    0  0.00000000000E+00  0.00000000000E+00  0.99999998245E-14  0.93827000000E+00  0.93827000000E+00 0. -1.
        -11    1    1    0    0    0 -0.19450964050E-02  0.12869197760E-02 -0.11329869772E-02  0.26427907645E-02  0.51100000000E-03 0. -1.
        -14    1    1    0    0    0 -0.11081788966E-02 -0.48414951202E-02 -0.19854429633E-02  0.53488427932E-02  0.00000000000E+00 0. -1.
         12    1    1    0    0    0 -0.15000551559E-02 -0.97451393258E-03  0.26401041826E-02  0.31890426417E-02  0.00000000000E+00 0.  1.
         14    1    1    0    0    0  0.36275723648E-02 -0.16858795659E-03 -0.44056030913E-02  0.57093819070E-02  0.00000000000E+00 0.  1.
     999901    1    1    0    0    0  0.78457483945E-02  0.20782482462E-02  0.42883314831E-02  0.90004681249E+00  0.90000000000E+00 0. -1.
     999903    1    1    0    0    0 -0.69199903018E-02  0.26194289872E-02  0.59559736599E-03  0.21333129405E-01  0.20000000000E-01 0.  0.
</event>
<event>
 7    1  0.4717691E-066  0.9118800E+02  0.7957747E-01            NaN
     999900   -1    0    0    0    0  0.00000000000E+00  0.00000000000E+00  0.99999998245E-14  0.93827000000E+00  0.93827000000E+00 0. -1.
        -11    1    1    0    0    0 -0.47989023913E-02 -0.15583631909E-02  0.14534758486E-02  0.52755732426E-02  0.51100000000E-03 0. -1.
        -14    1    1    0    0    0  0.19864673921E-02 -0.14232116060E-04 -0.34633424351E-02  0.39926176972E-02  0.00000000000E+00 0. -1.
         12    1    1    0    0    0  0.29007552925E-02 -0.99694295517E-03 -0.16254365029E-03  0.30715951818E-02  0.00000000000E+00 0.  1.
         14    1    1    0    0    0 -0.35284787635E-02 -0.10403960115E-02 -0.21253616368E-02  0.42484995390E-02  0.00000000000E+00 0.  1.
     999901    1    1    0    0    0  0.10399016654E-01 -0.63309713648E-03  0.49772596104E-02  0.90007405999E+00  0.90000000000E+00 0. -1.
     999903    1    1    0    0    0 -0.69588581833E-02  0.42430314101E-02 -0.67948773682E-03  0.21607654346E-01  0.20000000000E-01 0.  0.
</event>
<event>
 7    1  0.4717691E-066  0.9118800E+02  0.7957747E-01            NaN
     999900   -1    0    0    0    0  0.00000000000E+00  0.00000000000E+00  0.99999998245E-14  0.93827000000E+00  0.93827000000E+00 0. -1.
        -11    1    1    0    0    0  0.11817974730E-02 -0.14094293307E-02 -0.53868140902E-03  0.19835410169E-02  0.51100000000E-03 0. -1.
        -14    1    1    0    0    0 -0.20612126897E-02  0.21587720020E-02  0.20532095972E-02  0.36227840067E-02  0.00000000000E+00 0. -1.
         12    1    1    0    0    0  0.16968636863E-02 -0.25828641839E-03 -0.10132729189E-02  0.19931834466E-02  0.00000000000E+00 0.  1.
         14    1    1    0    0    0 -0.42012745671E-04 -0.35234023528E-02 -0.13912887475E-02  0.37883787548E-02  0.00000000000E+00 0.  1.
     999901    1    1    0    0    0  0.14820374407E-01 -0.44773434337E-02  0.47888636584E-02  0.90014589002E+00  0.90000000000E+00 0.  1.
     999903    1    1    0    0    0 -0.15595810131E-01  0.75096895336E-02 -0.38988301802E-02  0.26736222757E-01  0.20000000000E-01 0.  0.
</event>
<event>
 7    1  0.4717691E-066  0.9118800E+02  0.7957747E-01            NaN
     999900   -1    0    0    0    0  0.00000000000E+00  0.00000000000E+00  0.99999998245E-14  0.93827000000E+00  0.93827000000E+00 0.  1.
        -11    1    1    0    0    0 -0.51060676543E-03 -0.24504117902E-02 -0.27518242563E-03  0.25694519995E-02  0.51100000000E-03 0. -1.
        -14    1    1    0    0    0  0.17735154125E-02  0.34797913863E-02 -0.50689398719E-02  0.63990980955E-02  0.00000000000E+00 0. -1.
         12    1    1    0    0    0  0.24808939718E-02  0.28931943279E-03  0.37047928401E-02  0.44681126464E-02  0.00000000000E+00 0.  1.
         14    1    1    0    0    0 -0.23335408334E-02  0.15939231936E-02  0.26672981786E-04  0.28260777442E-02  0.00000000000E+00 0.  1.
     999901    1    1    0    0    0 -0.20326021335E-02  0.46900009540E-02 -0.34082797641E-02  0.90002096862E+00  0.90000000000E+00 0.  1.
     999903    1    1    0    0    0  0.62234034805E-03 -0.76026231765E-02  0.50209362398E-02  0.21986290897E-01  0.20000000000E-01 0.  0.
</event>
<event>
 7    1  0.4717691E-066  0.9118800E+02  0.7957747E-01            NaN
     999900   -1    0    0    0    0  0.00000000000E+00  0.00000000000E+00  0.99999998245E-14  0.93827000000E+00  0.93827000000E+00 0. -1.
        -11    1    1    0    0    0 -0.33330017963E-03 -0.12635241341E-02 -0.33203443500E-02  0.36046344960E-02  0.51100000000E-03 0. -1.
        -14    1    1    0    0    0  0.21125356080E-02  0.36645044602E-02  0.53434307083E-02  0.68149579139E-02  0.00000000000E+00 0. -1.
         12    1    1    0    0    0  0.13395016175E-02 -0.28683056085E-02 -0.30605117247E-02  0.44032003888E-02  0.00000000000E+00 0.  1.
         14    1    1    0    0    0 -0.11494306195E-02 -0.10963191901E-02  0.14345280198E-03  0.15948934830E-02  0.00000000000E+00 0.  1.
     999901    1    1    0    0    0  0.65475438176E-02  0.86319071297E-03 -0.95420566592E-03  0.90002473629E+00  0.90000000000E+00 0.  1.
     999903    1    1    0    0    0 -0.85168502440E-02  0.70045375950E-03  0.18481782303E-02  0.21827577427E-01  0.20000000000E-01 0.  0.
</event>
<event>
 7    1  0.4717691E-066  0.9118800E+02  0.7957747E-01            NaN
     999900   -1    0    0    0    0  0.00000000000E+00  0.00000000000E+00  0.99999998245E-14  0.93827000000E+00  0.93827000000E+00 0.  1.
        -11    1    1    0    0    0 -0.54760402425E-03  0.20438009325E-03  0.17236697310E-03  0.79528156229E-03  0.51100000000E-03 0. -1.
        -14    1    1    0    0    0 -0.30645121075E-02 -0.48642096946E-02 -0.19609658737E-02  0.60743030520E-02  0.00000000000E+00 0. -1.
         12    1    1    0    0    0 -0.43973257603E-03  0.28682955358E-02 -0.22852240069E-03  0.29107913883E-02  0.00000000000E+00 0.  1.
         14    1    1    0    0    0 -0.28895929476E-02 -0.43108023811E-02 -0.80068567974E-03  0.52510819961E-02  0.00000000000E+00 0.  1.
     999901    1    1    0    0    0  0.87140341468E-02  0.21973422577E-02  0.13534413507E-01  0.90014662309E+00  0.90000000000E+00 0.  1.
     999903    1    1    0    0    0 -0.17725924914E-02  0.39049941890E-02 -0.10716606526E-01  0.23091918915E-01  0.20000000000E-01 0.  0.
</event>
<event>
 7    1  0.4717691E-066  0.9118800E+02  0.7957747E-01            NaN
     999900   -1    0    0    0    0  0.00000000000E+00  0.00000000000E+00  0.99999998245E-14  0.93827000000E+00  0.93827000000E+00 0.  1.
        -11    1    1    0    0    0  0.61521465279E-03 -0.13254733219E-02 -0.14008885086E-02  0.20878166130E-02  0.51100000000E-03 0. -1.
        -14    1    1    0    0    0 -0.91830014739E-03 -0.30074936986E-02  0.10818134035E-04  0.31445843191E-02  0.00000000000E+00 0. -1.
         12    1    1    0    0    0 -0.32813770950E-03  0.77999356320E-03  0.20960776137E-02  0.22604436905E-02  0.00000000000E+00 0.  1.
         14    1    1    0    0    0  0.43026968175E-03 -0.57740870084E-02 -0.12285153078E-02  0.59189916912E-02  0.00000000000E+00 0.  1.
     999901    1    1    0    0    0  0.24252551641E-02  0.23333668401E-01 -0.77169553431E-03  0.90030602434E+00  0.90000000000E+00 0. -1.
     999903    1    1    0    0    0 -0.22243016417E-02 -0.14006607935E-01  0.12942036029E-02  0.24552139349E-01  0.20000000000E-01 0.  0.
</event>
<event>
 7    1  0.4717691E-066  0.9118800E+02  0.7957747E-01            NaN
     999900   -1    0    0    0    0  0.00000000000E+00  0.00000000000E+00  0.99999998245E-14  0.93827000000E+00  0.93827000000E+00 0.  1.
        -11    1    1    0    0    0  0.25118784832E-03  0.96634478256E-03 -0.31710703704E-02  0.33635882429E-02  0.51100000000E-03 0. -1.
        -14    1    1    0    0    0 -0.10913691800E-03 -0.22014817912E-02  0.19320611506E-02  0.29310907924E-02  0.00000000000E+00 0. -1.
         12    1    1    0    0    0 -0.35114274247E-02 -0.20899587733E-03 -0.52091661654E-02  0.62856355267E-02  0.00000000000E+00 0.  1.
         14    1    1    0    0    0 -0.10960478834E-02 -0.17321318857E-02  0.17664293541E-02  0.27058962462E-02  0.00000000000E+00 0.  1.
     999901    1    1    0    0    0  0.10813577180E-01  0.76262769337E-02 -0.32817550898E-02  0.90010325156E+00  0.90000000000E+00 0. -1.
     999903    1    1    0    0    0 -0.63481528024E-02 -0.44500121621E-02  0.79635011209E-02  0.22880537632E-01  0.20000000000E-01 0.  0.
</event>
<event>
 7    1  0.9288086E-066  0.9118800E+02  0.7957747E-01            NaN
     999900   -1    0    0    0    0  0.00000000000E+00  0.00000000000E+00  0.99999998245E-14  0.93827000000E+00  0.93827000000E+00 0. -1.
        -11    1    1    0    0    0  0.26681599514E-03 -0.20417062802E-02 -0.34432240537E-02  0.40443377942E-02  0.51100000000E-03 0. -1.
        -14    1    1    0    0    0 -0.41572744850E-02  0.17164998302E-02  0.41112723121E-02  0.60935919485E-02  0.00000000000E+00 0. -1.
         12    1    1    0    0    0 -0.24944543106E-02  0.76255067307E-03  0.32338847391E-02  0.41547318016E-02  0.00000000000E+00 0.  1.
         14    1    1    0    0    0  0.23936982326E-02 -0.12781863506E-02 -0.15046030085E-02  0.31028022478E-02  0.00000000000E+00 0.  1.
     999901    1    1    0    0    0  0.60470675431E-02  0.92882142774E-03 -0.78042016977E-02  0.90005462906E+00  0.90000000000E+00 0.  1.
     999903    1    1    0    0    0 -0.20558529753E-02 -0.87979300179E-04  0.54068717086E-02  0.20819907144E-01  0.20000000000E-01 0.  0.
</event>
<event>
 7    1  0.4717691E-066  0.9118800E+02  0.7957747E-01            NaN
     999900   -1    0    0    0    0  0.00000000000E+00  0.00000000000E+00  0.99999998245E-14  0.93827000000E+00  0.93827000000E+00 0.  1.
        -11    1    1    0    0    0  0.18732232965E-02 -0.13453918078E-02 -0.40974359625E-03  0.23975102606E-02  0.51100000000E-03 0. -1.
        -14    1    1    0    0    0 -0.36825582955E-02  0.47204044591E-02 -0.20534014609E-02  0.63292899615E-02  0.00000000000E+00 0. -1.
         12    1    1    0    0    0  0.63374050046E-03  0.21820476102E-03  0.15927824668E-02  0.17280614359E-02  0.00000000000E+00 0.  1.
         14    1    1    0    0    0 -0.44958883479E-02  0.94929091981E-03 -0.12003924876E-02  0.47492217691E-02  0.00000000000E+00 0.  1.
     999901    1    1    0    0    0 -0.33470348448E-02 -0.11171539780E-01  0.37779377534E-02  0.90008348433E+00  0.90000000000E+00 0. -1.
     999903    1    1    0    0    0  0.90185176914E-02  0.66290314478E-02 -0.17071826754E-02  0.22982432247E-01  0.20000000000E-01 0.  0.
</event>
<event>
 7    1  0.4717691E-066  0.9118800E+02  0.7957747E-01            NaN
     999900   -1    0    0    0    0  0.00000000000E+00  0.00000000000E+00  0.99999998245E-14  0.93827000000E+00  0.93827000000E+00 0.  1.
        -11    1    1    0    0    0 -0.20820975899E-02  0.39935058018E-03  0.13454816910E-02  0.25624311192E-02  0.51100000000E-03 0. -1.
        -14    1    1    0    0    0  0.44934616533E-02  0.22140045705E-02  0.13965047463E-03  0.50112389808E-02  0.00000000000E+00 0. -1.
         12    1    1    0    0    0 -0.98576459453E-03 -0.31059019607E-02  0.17873057191E-02  0.37165603128E-02  0.00000000000E+00 0.  1.
         14    1    1    0    0    0  0.29625771748E-02  0.45979942629E-02 -0.30018084587E-02  0.62393323987E-02  0.00000000000E+00 0.  1.
     999901    1    1    0    0    0 -0.55373288597E-02 -0.89371289394E-02 -0.19641494254E-02  0.90006354896E+00  0.90000000000E+00 0.  1.
     999903    1    1    0    0    0  0.11491522160E-02  0.48316814865E-02  0.16935199994E-02  0.20676888228E-01  0.20000000000E-01 0.  0.
</event>
<event>
 7    1  0.6163011E-066  0.9118800E+02  0.7957747E-01            NaN
     999900   -1    0    0    0    0  0.00000000000E+00  0.00000000000E+00  0.99999998245E-14  0.93827000000E+00  0.93827000000E+00 0.  1.
        -11    1    1    0    0    0 -0.87654735977E-03  0.11714475217E-02 -0.12763422430E-02  0.20076840118E-02  0.51100000000E-03 0. -1.
        -14    1    1    0    0    0  0.12151458956E-01 -0.44825812022E-02  0.35897178489E-02  0.13440147440E-01  0.00000000000E+00 0. -1.
         12    1    1    0    0    0  0.37187247225E-03  0.82882951864E-03 -0.34308134713E-03  0.97105731928E-03  0.00000000000E+00 0.  1.
         14    1    1    0    0    0 -0.41386970626E-03 -0.24269863849E-03  0.85874490773E-03  0.98368367855E-03  0.00000000000E+00 0.  1.
     999901    1    1    0    0    0 -0.73025247988E-02  0.31314040830E-02  0.14517426738E-02  0.90003624378E+00  0.90000000000E+00 0. -1.
     999903    1    1    0    0    0 -0.39303895629E-02 -0.40640128257E-03 -0.42807818402E-02  0.20831183771E-01  0.20000000000E-01 0.  0.
</event>
<event>
 7    1  0.4717691E-066  0.9118800E+02  0.7957747E-01            NaN
     999900   -1    0    0    0    0  0.00000000000E+00  0.00000000000E+00  0.99999998245E-14  0.93827000000E+00  0.93827000000E+00 0.  1.
        -11    1    1    0    0    0 -0.14068827556E-02 -0.15442190369E-02  0.23262911665E-03  0.21631386520E-02  0.51100000000E-03 0. -1.
        -14    1    1    0    0    0 -0.20961998623E-02  0.39934021998E-02  0.27556679355E-02  0.52853590950E-02  0.00000000000E+00 0. -1.
         12    1    1    0    0    0  0.44124617771E-03  0.11500109629E-02  0.42864662080E-02  0.44599345237E-02  0.00000000000E+00 0.  1.
         14    1    1    0    0    0  0.64735967410E-03  0.81858432661E-04 -0.90719098926E-03  0.11174841572E-02  0.00000000000E+00 0.  1.
     999901    1    1    0    0    0 -0.25082067930E-02  0.62660162427E-02  0.42299944380E-02  0.90003524760E+00  0.90000000000E+00 0. -1.
     999903    1    1    0    0    0  0.49226835590E-02 -0.99470688012E-02 -0.10597566709E-01  0.25208835977E-01  0.20000000000E-01 0.  0.
</event>
<event>
 7    1  0.4717691E-066  0.9118800E+02  0.7957747E-01            NaN
     999900   -1    0    0    0    0  0.00000000000E+00  0.00000000000E+00  0.99999998245E-14  0.93827000000E+00  0.93827000000E+00 0.  1.
        -11    1    1    0    0    0 -0.24271637816E-02  0.46764063414E-03  0.72316042876E-03  0.26256225531E-02  0.51100000000E-03 0. -1.
        -14    1    1    0    0    0 -0.39467966549E-04 -0.33520266470E-02  0.60289545060E-03  0.34060421734E-02  0.00000000000E+00 0. -1.
         12    1    1    0    0    0  0.13366897405E-02 -0.22341305376E-02 -0.21618887873E-03  0.26124349471E-02  0.00000000000E+00 0.  1.
         14    1    1    0    0    0 -0.35820585036E-02  0.53445504760E-02 -0.95994324936E-03  0.65051405793E-02  0.00000000000E+00 0.  1.
     999901    1    1    0    0    0  0.18619514736E-02 -0.71510149769E-02 -0.88158111503E-02  0.90007350945E+00  0.90000000000E+00 0.  1.
     999903    1    1    0    0    0  0.28500490377E-02  0.69249810513E-02  0.86658873990E-02  0.23047250302E-01  0.20000000000E-01 0.  0.
</event>
<event>
 7    1  0.4717691E-066  0.9118800E+02  0.7957747E-01            NaN
     999900   -1    0    0    0    0  0.00000000000E+00  0.00000000000E+00  0.99999998245E-14  0.93827000000E+00  0.93827000000E+00 0.  1.
        -11    1    1    0    0    0  0.52664775802E-02  0.83265736682E-03 -0.31931932101E-02  0.62359208037E-02  0.51100000000E-03 0. -1.
        -14    1    1    0    0    0 -0.59007003921E-02  0.21451866636E-02 -0.11528551761E-02  0.63835073429E-02  0.00000000000E+00 0. -1.
         12    1    1    0    0    0  0.94581454277E-03 -0.10099739682E-02  0.12319073554E-02  0.18526220063E-02  0.00000000000E+00 0.  1.
         14    1    1    0    0    0  0.18020277901E-03  0.15455338959E-02 -0.16250535666E-02  0.22498771432E-02  0.00000000000E+00 0.  1.
     999901    1    1    0    0    0  0.45901543214E-02 -0.86361492896E-02  0.15923052211E-02  0.90005454725E+00  0.90000000000E+00 0. -1.
     999903    1    1    0    0    0 -0.50819488312E-02  0.51227453315E-02  0.31468893763E-02  0.21493525453E-01  0.20000000000E-01 0.  0.
</event>
<event>
 7    1  0.4717691E-066  0.9118800E+02  0.7957747E-01            NaN
     999900   -1    0    0    0    0  0.00000000000E+00  0.00000000000E+00  0.99999998245E-14  0.93827000000E+00  0.93827000000E+00 0.  1.
        -11    1    1    0    0    0  0.65319107849E-03  0.20138741476E-02 -0.12318650595E-02  0.25021910783E-02  0.51100000000E-03 0. -1.
        -14    1    1    0    0    0 -0.21108846176E-02  0.28493558144E-03  0.18779195613E-02  0.28396485757E-02  0.00000000000E+00 0. -1.
         12    1    1    0    0    0  0.63827024285E-02 -0.24338594440E-02  0.50126014898E-02  0.84728233653E-02  0.00000000000E+00 0.  1.
         14    1    1    0    0    0  0.13044476334E-03 -0.14194936774E-04 -0.18952181094E-02  0.18997549881E-02  0.00000000000E+00 0.  1.
     999901    1    1    0    0    0 -0.38121835163E-02 -0.50938764852E-02 -0.12415187508E-01  0.90010811417E+00  0.90000000000E+00 0. -1.
     999903    1    1    0    0    0 -0.12432701364E-02  0.52431211368E-02  0.86517496257E-02  0.22447467819E-01  0.20000000000E-01 0.  0.
</event>
<event>
 7    1  0.4717691E-066  0.9118800E+02  0.7957747E-01            NaN
     999900   -1    0    0    0    0  0.00000000000E+00  0.00000000000E+00  0.99999998245E-14  0.93827000000E+00  0.93827000000E+00 0. -1.
        -11    1    1    0    0    0  0.26884408239E-02 -0.28452434524E-02 -0.12793928058E-02  0.41498302758E-02  0.51100000000E-03 0. -1.
        -14    1    1    0    0    0  0.23345154042E-03  0.12945071826E-02  0.73030216768E-03  0.15045230885E-02  0.00000000000E+00 0. -1.
         12    1    1    0    0    0  0.12511200928E-02  0.36669245289E-03  0.93963391225E-03  0.16070708543E-02  0.00000000000E+00 0.  1.
         14    1    1    0    0    0  0.37514288443E-02 -0.37030635358E-02 -0.12809161268E-02  0.54246330796E-02  0.00000000000E+00 0.  1.
     999901    1    1    0    0    0 -0.71272510591E-03  0.16911350688E-01 -0.60939074922E-02  0.90017978064E+00  0.90000000000E+00 0.  1.
     999903    1    1    0    0    0 -0.72117161955E-02 -0.12024243336E-01  0.69842803449E-02  0.25404162065E-01  0.20000000000E-01 0.  0.
</event>
<event>
 7    1  0.4717691E-066  0.9118800E+02  0.7957747E-01            NaN
     999900   -1    0    0    0    0  0.00000000000E+00  0.00000000000E+00  0.99999998245E-14  0.93827000000E+00  0.93827000000E+00 0. -1.
        -11    1    1    0    0    0 -0.15064648709E-02 -0.23948191598E-02  0.28478453887E-02  0.40467196064E-02  0.51100000000E-03 0. -1.
        -14    1    1    0    0    0 -0.18505945779E-02  0.12168541826E-02  0.16313637412E-02  0.27507784443E-02  0.00000000000E+00 0. -1.
         12    1    1    0    0    0  0.39336542005E-02 -0.22987081234E-03  0.15205350109E-02  0.42235651622E-02  0.00000000000E+00 0.  1.
         14    1    1    0    0    0 -0.95080812570E-03  0.72017456929E-03 -0.33709441075E-02  0.35757449123E-02  0.00000000000E+00 0.  1.
     999901    1    1    0    0    0 -0.62937874849E-02 -0.24447775177E-02  0.75424060988E-02  0.90005692964E+00  0.90000000000E+00 0. -1.
     999903    1    1    0    0    0  0.66680008588E-02  0.31324387379E-02 -0.10171206132E-01  0.23616262238E-01  0.20000000000E-01 0.  0.
</event>
<event>
 7    1  0.1662143E-065  0.9118800E+02  0.7957747E-01            NaN
     999900   -1    0    0    0    0  0.00000000000E+00  0.00000000000E+00  0.99999998245E-14  0.93827000000E+00  0.93827000000E+00 0.  1.
        -11    1    1    0    0    0 -0.13752683875E-02  0.11208433771E-01  0.55164488595E-02  0.12578262191E-01  0.51100000000E-03 0. -1.
        -14    1    1    0    0    0  0.18963872086E-03 -0.92021046532E-03  0.18098006132E-03  0.95681969436E-03  0.00000000000E+00 0. -1.
         12    1    1    0    0    0 -0.16486437181E-02  0.18863898621E-02 -0.49530822478E-03  0.25537860245E-02  0.00000000000E+00 0.  1.
         14    1    1    0    0    0  0.62236835287E-03 -0.88343016756E-03 -0.10604414556E-02  0.15140433641E-02  0.00000000000E+00 0.  1.
     999901    1    1    0    0    0  0.11866205302E-02 -0.76796450559E-02 -0.73673924037E-02  0.90006369968E+00  0.90000000000E+00 0. -1.
     999903    1    1    0    0    0  0.10252845017E-02 -0.36115379442E-02  0.32257131633E-02  0.20603389043E-01  0.20000000000E-01 0.  0.
</event>
<event>
 7    1  0.4717691E-066  0.9118800E+02  0.7957747E-01            NaN
     999900   -1    0    0    0    0  0.00000000000E+00  0.00000000000E+00  0.99999998245E-14  0.93827000000E+00  0.93827000000E+00 0.  1.
        -11    1    1    0    0    0  0.42930232387E-03  0.41135863153E-03  0.21678863520E-02  0.23052914445E-02  0.51100000000E-03 0. -1.
        -14    1    1    0    0    0 -0.42260894468E-03 -0.63272205613E-02  0.60287782147E-03  0.63699120888E-02  0.00000000000E+00 0. -1.
         12    1    1    0    0    0  0.17856356676E-02 -0.38794301698E-02 -0.16611024804E-02  0.45823285162E-02  0.00000000000E+00 0.  1.
         14    1    1    0    0    0 -0.78831201367E-03  0.17063207188E-02  0.32011884722E-02  0.37122195330E-02  0.00000000000E+00 0.  1.
     999901    1    1    0    0    0  0.48255109727E-02  0.80541199002E-02 -0.83111783515E-02  0.90008734581E+00  0.90000000000E+00 0.  1.
     999903    1    1    0    0    0 -0.58295280058E-02  0.34851480469E-04  0.40003281863E-02  0.21212902607E-01  0.20000000000E-01 0.  0.
</event>
<event>
 7    1  0.4717691E-066  0.9118800E+02  0.7957747E-01            NaN
     999900   -1    0    0    0    0  0.00000000000E+00  0.00000000000E+00  0.99999998245E-14  0.93827000000E+00  0.93827000000E+00 0. -1.
        -11    1    1    0    0    0  0.66425619593E-04  0.27498207204E-02  0.69111760852E-03  0.28817860618E-02  0.51100000000E-03 0. -1.
        -14    1    1    0    0    0 -0.22158483147E-02 -0.10056550138E-02  0.15286545238E-02  0.28736928182E-02  0.00000000000E+00 0. -1.
         12    1    1    0    0    0  0.71955924549E-03  0.25782611023E-02 -0.31199178105E-02  0.41108494212E-02  0.00000000000E+00 0.  1.
         14    1    1    0    0    0 -0.65013063328E-03 -0.52568311686E-03 -0.12125025736E-03  0.84481607738E-03  0.00000000000E+00 0.  1.
     999901    1    1    0    0    0 -0.32035542932E-02 -0.13062684330E-01  0.16257773836E-01  0.90024730585E+00  0.90000000000E+00 0. -1.
     999903    1    1    0    0    0  0.52835483761E-02  0.92659406379E-02 -0.15236377900E-01  0.27311549770E-01  0.20000000000E-01 0.  0.
</event>
<event>
 7    1  0.4717691E-066  0.9118800E+02  0.7957747E-01            NaN
     999900   -1    0    0    0    0  0.00000000000E+00  0.00000000000E+00  0.99999998245E-14  0.93827000000E+00  0.93827000000E+00 0.  1.
        -11    1    1    0    0    0 -0.37169059104E-02 -0.20855211620E-02 -0.86892620705E-03  0.43796052125E-02  0.51100000000E-03 0. -1.
        -14    1    1    0    0    0  0.64276126981E-02 -0.36984023799E-03  0.12131750188E-02  0.65515479411E-02  0.00000000000E+00 0. -1.
         12    1    1    0    0    0  0.85610412807E-03  0.18809553051E-02  0.28347245787E-02  0.35080722021E-02  0.00000000000E+00 0.  1.
         14    1    1    0    0    0  0.23118955824E-03 -0.16008102209E-03 -0.22754559241E-02  0.22927656243E-02  0.00000000000E+00 0.  1.
     999901    1    1    0    0    0 -0.27638220810E-02 -0.27305036366E-02 -0.79004530595E-02  0.90004306093E+00  0.90000000000E+00 0. -1.
     999903    1    1    0    0    0 -0.10341783930E-02  0.34649907536E-02  0.69969355931E-02  0.21494948094E-01  0.20000000000E-01 0.  0.
</event>
<event>
 7    1  0.4717691E-066  0.9118800E+02  0.7957747E-01            NaN
     999900   -1    0    0    0    0  0.00000000000E+00  0.00000000000E+00  0.99999998245E-14  0.93827000000E+00  0.93827000000E+00 0. -1.
        -11    1    1    0    0    0 -0.14119699195E-02  0.32570393644E-02  0.77280634094E-03  0.36688302108E-02  0.51100000000E-03 0. -1.
        -14    1    1    0    0    0  0.42394473496E-02 -0.12022654469E-02 -0.36347872819E-02  0.57122705310E-02  0.00000000000E+00 0. -1.
         12    1    1    0    0    0  0.90380656499E-03  0.88765574022E-03 -0.63361413595E-03  0.14164271578E-02  0.00000000000E+00 0.  1.
         14    1    1    0    0    0  0.14886284133E-02  0.31857487918E-04  0.19213440057E-02  0.24307596016E-02  0.00000000000E+00 0.  1.
     999901    1    1    0    0    0 -0.15081713172E-01 -0.11674494114E-01  0.80751414124E-02  0.90023827945E+00  0.90000000000E+00 0.  1.
     999903    1    1    0    0    0  0.98618007635E-02  0.87002069683E-02 -0.65008903413E-02  0.24803433045E-01  0.20000000000E-01 0.  0.
</event>
<event>
 7    1  0.4717691E-066  0.9118800E+02  0.7957747E-01            NaN
     999900   -1    0    0    0    0  0.00000000000E+00  0.00000000000E+00  0.99999998245E-14  0.93827000000E+00  0.93827000000E+00 0.  1.
        -11    1    1    0    0    0  0.17419301638E-03  0.21152613590E-02  0.20239559823E-02  0.29769435067E-02  0.51100000000E-03 0. -1.
        -14    1    1    0    0    0 -0.11843434773E-03 -0.20480294889E-02 -0.98143351537E-04  0.20537973609E-02  0.00000000000E+00 0. -1.
         12    1    1    0    0    0  0.97627386034E-03 -0.18262868908E-02 -0.90989756037E-03  0.22619345765E-02  0.00000000000E+00 0.  1.
         14    1    1    0    0    0 -0.92557273731E-02  0.20327663436E-02  0.33081333679E-02  0.10037149725E-01  0.00000000000E+00 0.  1.
     999901    1    1    0    0    0  0.12653484705E-01 -0.33074794835E-02 -0.19565765155E-02  0.90009714936E+00  0.90000000000E+00 0. -1.
     999903    1    1    0    0    0 -0.44297898610E-02  0.30337681605E-02 -0.23674719228E-02  0.20843025471E-01  0.20000000000E-01 0.  0.
</event>
<event>
 7    1  0.4717691E-066  0.9118800E+02  0.7957747E-01            NaN
     999900   -1    0    0    0    0  0.00000000000E+00  0.00000000000E+00  0.99999998245E-14  0.93827000000E+00  0.93827000000E+00 0.  1.
        -11    1    1    0    0    0  0.26250931413E-02 -0.73676761590E-03 -0.93585827375E-03  0.29276086195E-02  0.51100000000E-03 0. -1.
        -14    1    1    0    0    0  0.21998836384E-02  0.35247809805E-02 -0.25015192980E-02  0.48498626560E-02  0.00000000000E+00 0. -1.
         12    1    1    0    0    0 -0.24145884923E-03  0.24644280475E-02  0.48214950722E-03  0.25227318773E-02  0.00000000000E+00 0.  1.
         14    1    1    0    0    0  0.31545513166E-03  0.41148293148E-03 -0.15687714555E-02  0.16522330413E-02  0.00000000000E+00 0.  1.
     999901    1    1    0    0    0 -0.72994914781E-02 -0.44290151723E-02 -0.12175569218E-01  0.90012284897E+00  0.90000000000E+00 0. -1.
     999903    1    1    0    0    0  0.24005184160E-02 -0.12349091714E-02  0.16699568738E-01  0.26194714837E-01  0.20000000000E-01 0.  0.
</event>
<event>
 7    1  0.4717691E-066  0.9118800E+02  0.7957747E-01            NaN
     999900   -1    0    0    0    0  0.00000000000E+00  0.00000000000E+00  0.99999998245E-14  0.93827000000E+00  0.93827000000E+00 0.  1.
        -11    1    1    0    0    0 -0.70455479972E-02  0.27926450393E-02  0.19038375318E-02  0.78309853304E-02  0.51100000000E-03 0. -1.
        -14    1    1    0    0    0  0.26722779392E-02  0.21714773335E-02 -0.23575427932E-02  0.41730553814E-02  0.00000000000E+00 0. -1.
         12    1    1    0    0    0  0.22544575431E-03 -0.55977277307E-03 -0.22098113410E-02  0.22907285977E-02  0.00000000000E+00 0.  1.
         14    1    1    0    0    0 -0.45467412193E-03 -0.11674469832E-02  0.36039309777E-03  0.13036656782E-02  0.00000000000E+00 0.  1.
     999901    1    1    0    0    0 -0.58258028231E-02 -0.33320848966E-02  0.27694732471E-03  0.90002506602E+00  0.90000000000E+00 0.  1.
     999903    1    1    0    0    0  0.10428301249E-01  0.95182279958E-04  0.20261761800E-02  0.22646498990E-01  0.20000000000E-01 0.  0.
</event>
<event>
 7    1  0.4717691E-066  0.9118800E+02  0.7957747E-01            NaN
     999900   -1    0    0    0    0  0.00000000000E+00  0.00000000000E+00  0.99999998245E-14  0.93827000000E+00  0.93827000000E+00 0. -1.
        -11    1    1    0    0    0 -0.13711300737E-02 -0.17275787565E-02 -0.41702230604E-02  0.47451456682E-02  0.51100000000E-03 0. -1.
        -14    1    1    0    0    0 -0.78426679581E-03  0.40552279875E-02 -0.28224305042E-02  0.50026055600E-02  0.00000000000E+00 0. -1.
         12    1    1    0    0    0 -0.80534472110E-03  0.31017910607E-02  0.15869522312E-03  0.32085623070E-02  0.00000000000E+00 0.  1.
         14    1    1    0    0    0 -0.85028877223E-03 -0.16507012197E-02  0.32780124237E-02  0.37673825082E-02  0.00000000000E+00 0.  1.
     999901    1    1    0    0    0  0.71817406123E-03 -0.33626343629E-02 -0.37842609997E-02  0.90001452417E+00  0.90000000000E+00 0.  1.
     999903    1    1    0    0    0  0.30928563016E-02 -0.41610470907E-03  0.73402069175E-02  0.21531779788E-01  0.20000000000E-01 0.  0.
</event>
<event>
 7    1  0.4717691E-066  0.9118800E+02  0.7957747E-01            NaN
     999900   -1    0    0    0    0  0.00000000000E+00  0.00000000000E+00  0.99999998245E-14  0.93827000000E+00  0.93827000000E+00 0. -1.
        -11    1    1    0    0    0 -0.32169189331E-02  0.71483394445E-03  0.58602364027E-02  0.67426290633E-02  0.51100000000E-03 0. -1.
        -14    1    1    0    0    0  0.15366627524E-02  0.68444396331E-03 -0.98348531876E-03  0.19485993241E-02  0.00000000000E+00 0. -1.
         12    1    1    0    0    0  0.15352759522E-02  0.96253244921E-03 -0.12257646432E-02  0.21877019737E-02  0.00000000000E+00 0.  1.
         14    1    1    0    0    0  0.48054352750E-02  0.83708961355E-03 -0.19735714857E-02  0.52619304074E-02  0.00000000000E+00 0.  1.
     999901    1    1    0    0    0 -0.96847341277E-02  0.38389275573E-02  0.18124313541E-02  0.90006211805E+00  0.90000000000E+00 0.  1.
     999903    1    1    0    0    0  0.50242790811E-02 -0.70378275278E-02 -0.34898463091E-02  0.22067021182E-01  0.20000000000E-01 0.  0.
</event>
<event>
 7    1  0.4717691E-066  0.9118800E+02  0.7957747E-01            NaN
     999900   -1    0    0    0    0  0.00000000000E+00  0.00000000000E+00  0.99999998245E-14  0.93827000000E+00  0.93827000000E+00 0.  1.
        -11    1    1    0    0    0 -0.59001314125E-02  0.86613108310E-03  0.38738979564E-02  0.71295119128E-02  0.51100000000E-03 0. -1.
        -14    1    1    0    0    0  0.74938875622E-03  0.14912392203E-02  0.16298889810E-02  0.23327914631E-02  0.00000000000E+00 0. -1.
         12    1    1    0    0    0 -0.13523041139E-02  0.16057341056E-02 -0.31243336077E-02  0.37641159555E-02  0.00000000000E+00 0.  1.
         14    1    1    0    0    0 -0.29558166455E-03  0.17680209733E-04  0.27067682971E-02  0.27229167678E-02  0.00000000000E+00 0.  1.
     999901    1    1    0    0    0  0.81857725597E-03  0.31987767030E-02 -0.18380190004E-02  0.90000793361E+00  0.90000000000E+00 0. -1.
     999903    1    1    0    0    0  0.59800511788E-02 -0.71795613218E-02 -0.32482026264E-02  0.22312730294E-01  0.20000000000E-01 0.  0.
</event>
<event>
 7    1  0.4717691E-066  0.9118800E+02  0.7957747E-01            NaN
     999900   -1    0    0    0    0  0.00000000000E+00  0.00000000000E+00  0.99999998245E-14  0.93827000000E+00  0.93827000000E+00 0.  1.
        -11    1    1    0    0    0 -0.12813727445E-02  0.10906727815E-02  0.36616666022E-02  0.40620692426E-02  0.51100000000E-03 0. -1.
        -14    1    1    0    0    0 -0.10869054840E-02 -0.84146861203E-03  0.11030188293E-02  0.17624084356E-02  0.00000000000E+00 0. -1.
         12    1    1    0    0    0  0.70596903455E-03 -0.49510160930E-02  0.46594822463E-02  0.68353293582E-02  0.00000000000E+00 0.  1.
         14    1    1    0    0    0 -0.12872801126E-02 -0.79648197171E-03 -0.23911258156E-02  0.28300099445E-02  0.00000000000E+00 0.  1.
     999901    1    1    0    0    0 -0.43369003358E-02  0.11323236217E-01 -0.11990859126E-01  0.90016154388E+00  0.90000000000E+00 0. -1.
     999903    1    1    0    0    0  0.72864896423E-02 -0.58249423216E-02  0.49578172634E-02  0.22618639136E-01  0.20000000000E-01 0.  0.
</event>
<event>
 7    1  0.4717691E-066  0.9118800E+02  0.7957747E-01            NaN
     999900   -1    0    0    0    0  0.00000000000E+00  0.00000000000E+00  0.99999998245E-14  0.93827000000E+00  0.93827000000E+00 0. -1.
        -11    1    1    0    0    0 -0.76934560406E-03 -0.30769301212E-02 -0.66252082110E-02  0.73630086560E-02  0.51100000000E-03 0. -1.
        -14    1    1    0    0    0  0.15260544732E-02 -0.26027839260E-02 -0.64264015241E-03  0.30848521498E-02  0.00000000000E+00 0. -1.
         12    1    1    0    0    0 -0.30406158643E-02 -0.85243249940E-03  0.12563445370E-02  0.33985861171E-02  0.00000000000E+00 0.  1.
         14    1    1    0    0    0  0.17308068195E-02  0.12943808828E-02  0.20868047805E-02  0.30043082912E-02  0.00000000000E+00 0.  1.
     999901    1    1    0    0    0 -0.24121878962E-02  0.10605819346E-01  0.80279150209E-02  0.90010152176E+00  0.90000000000E+00 0. -1.
     999903    1    1    0    0    0  0.29652880717E-02 -0.53680536823E-02 -0.41032159749E-02  0.21317723026E-01  0.20000000000E-01 0.  0.
</event>
<event>
 7    1  0.4717691E-066  0.9118800E+02  0.7957747E-01            NaN
     999900   -1    0    0    0    0  0.00000000000E+00  0.00000000000E+00  0.99999998245E-14  0.93827000000E+00  0.93827000000E+00 0. -1.
        -11    1    1    0    0    0  0.30700361581E-02 -0.18204494671E-03 -0.13090314864E-02  0.33812640842E-02  0.51100000000E-03 0. -1.
        -14    1    1    0    0    0 -0.66489931204E-03  0.19630545108E-02  0.42543105443E-02  0.47323178586E-02  0.00000000000E+00 0. -1.
         12    1    1    0    0    0 -0.19032503561E-02  0.27338204957E-02  0.37501793389E-02  0.50159726369E-02  0.00000000000E+00 0.  1.
         14    1    1    0    0    0 -0.12821069362E-02 -0.70543910405E-03 -0.30174174845E-02  0.33535430221E-02  0.00000000000E+00 0.  1.
     999901    1    1    0    0    0  0.79256226869E-03  0.44433133496E-02 -0.59605052006E-02  0.90003105436E+00  0.90000000000E+00 0.  1.
     999903    1    1    0    0    0 -0.12341822467E-04 -0.82527043054E-02  0.22824642883E-02  0.21755848039E-01  0.20000000000E-01 0.  0.
</event>
<event>
 7    1  0.4717691E-066  0.9118800E+02  0.7957747E-01            NaN
     999900   -1    0    0    0    0  0.00000000000E+00  0.00000000000E+00  0.99999998245E-14  0.93827000000E+00  0.93827000000E+00 0.  1.
        -11    1    1    0    0    0  0.28649418803E-02  0.96677413977E-03 -0.22684048813E-02  0.38143578647E-02  0.51100000000E-03 0. -1.
        -14    1    1    0    0    0 -0.40547156619E-03 -0.70472973184E-02  0.85763896859E-03  0.71108615009E-02  0.00000000000E+00 0. -1.
         12    1    1    0    0    0 -0.15816168004E-02 -0.83678919826E-03 -0.28576871146E-03  0.18120131407E-02  0.00000000000E+00 0.  1.
         14    1    1    0    0    0 -0.15115211570E-02  0.16269034877E-03 -0.32741587069E-03  0.15551094849E-02  0.00000000000E+00 0.  1.
     999901    1    1    0    0    0 -0.82837901738E-02  0.69673622526E-02  0.11445711853E-01  0.90013786146E+00  0.90000000000E+00 0.  1.
     999903    1    1    0    0    0  0.89174578171E-02 -0.21274022453E-03 -0.94217613585E-02  0.23839796547E-01  0.20000000000E-01 0.  0.
</event>
<event>
 7    1  0.4717691E-066  0.9118800E+02  0.7957747E-01            NaN
     999900   -1    0    0    0    0  0.00000000000E+00  0.00000000000E+00  0.99999998245E-14  0.93827000000E+00  0.93827000000E+00 0.  1.
        -11    1    1    0    0    0 -0.17238975642E-02 -0.16050666616E-02 -0.13364252162E-03  0.24139269093E-02  0.51100000000E-03 0. -1.
        -14    1    1    0    0    0  0.93182512111E-03  0.17378061361E-02  0.10332328812E-02  0.22261712445E-02  0.00000000000E+00 0. -1.
         12    1    1    0    0    0 -0.98004040556E-03 -0.95259335173E-03 -0.25331798654E-02  0.28783525706E-02  0.00000000000E+00 0.  1.
         14    1    1    0    0    0 -0.15943428190E-02 -0.38456801767E-03  0.33286356972E-02  0.37107461769E-02  0.00000000000E+00 0.  1.
     999901    1    1    0    0    0  0.17920979624E-01 -0.64084096651E-02  0.53561232030E-02  0.90021715007E+00  0.90000000000E+00 0.  1.
     999903    1    1    0    0    0 -0.14554523956E-01  0.76128315600E-02 -0.70511693944E-02  0.26823653028E-01  0.20000000000E-01 0.  0.
</event>
<event>
 7    1  0.4717691E-066  0.9118800E+02  0.7957747E-01            NaN
     999900   -1    0    0    0    0  0.00000000000E+00  0.00000000000E+00  0.99999998245E-14  0.93827000000E+00  0.93827000000E+00 0. -1.
        -11    1    1    0    0    0  0.63166983240E-03  0.44632753690E-03  0.18197718116E-03  0.94469664010E-03  0.51100000000E-03 0. -1.
        -14    1    1    0    0    0  0.77428617335E-03 -0.42000218985E-02 -0.27563480990E-02  0.50830264478E-02  0.00000000000E+00 0. -1.
         12    1    1    0    0    0 -0.39933185910E-02  0.26074864019E-02  0.17252228447E-02  0.50716834059E-02  0.00000000000E+00 0.  1.
         14    1    1    0    0    0 -0.98923075173E-03 -0.91136579285E-03  0.42796942276E-02  0.44860837899E-02  0.00000000000E+00 0.  1.
     999901    1    1    0    0    0  0.78524541894E-02  0.24598070354E-02  0.62368573949E-02  0.90005922587E+00  0.90000000000E+00 0. -1.
     999903    1    1    0    0    0 -0.42758608524E-02 -0.40223328290E-03 -0.96674035493E-02  0.22625283844E-01  0.20000000000E-01 0.  0.
</event>
<event>
 7    1  0.4717691E-066  0.9118800E+02  0.7957747E-01            NaN
     999900   -1    0    0    0    0  0.00000000000E+00  0.00000000000E+00  0.99999998245E-14  0.93827000000E+00  0.93827000000E+00 0. -1.
        -11    1    1    0    0    0  0.12557829751E-03 -0.80445042061E-03 -0.10008254507E-02  0.13876897963E-02  0.51100000000E-03 0. -1.
        -14    1    1    0    0    0 -0.35293363793E-03 -0.12370226819E-02  0.27450893775E-02  0.30315512463E-02  0.00000000000E+00 0. -1.
         12    1    1    0    0    0  0.12618888915E-02  0.24571748473E-02  0.16761404280E-02  0.32310243792E-02  0.00000000000E+00 0.  1.
         14    1    1    0    0    0 -0.68579134380E-03 -0.48211479618E-02  0.13104196306E-02  0.50429135473E-02  0.00000000000E+00 0.  1.
     999901    1    1    0    0    0 -0.75942372874E-02  0.60739172963E-02  0.91909190823E-02  0.90009946001E+00  0.90000000000E+00 0.  1.
     999903    1    1    0    0    0  0.72454950802E-02 -0.16684710792E-02 -0.13921743068E-01  0.25477361024E-01  0.20000000000E-01 0.  0.
</event>
<event>
 7    1  0.4717691E-066  0.9118800E+02  0.7957747E-01            NaN
     999900   -1    0    0    0    0  0.00000000000E+00  0.00000000000E+00  0.99999998245E-14  0.93827000000E+00  0.93827000000E+00 0. -1.
        -11    1    1    0    0    0  0.19640301318E-02 -0.10210736603E-02  0.55244140706E-03  0.23380158867E-02  0.51100000000E-03 0. -1.
        -14    1    1    0    0    0 -0.17987034017E-02  0.37450341085E-02  0.40332870850E-02  0.57903384280E-02  0.00000000000E+00 0. -1.
         12    1    1    0    0    0  0.15513679284E-02 -0.17726559221E-02  0.33508626135E-02  0.40960141262E-02  0.00000000000E+00 0.  1.
         14    1    1    0    0    0 -0.86064125280E-03  0.20447946626E-02  0.27624419628E-02  0.35430176652E-02  0.00000000000E+00 0.  1.
     999901    1    1    0    0    0 -0.54689244557E-02 -0.24186273829E-02 -0.19334314230E-01  0.90022751269E+00  0.90000000000E+00 0.  1.
     999903    1    1    0    0    0  0.46128710500E-02 -0.57747180582E-03  0.86352811612E-02  0.22275101206E-01  0.20000000000E-01 0.  0.
</event>
<event>
 7    1  0.4717691E-066  0.9118800E+02  0.7957747E-01            NaN
     999900   -1    0    0    0    0  0.00000000000E+00  0.00000000000E+00  0.99999998245E-14  0.93827000000E+00  0.93827000000E+00 0.  1.
        -11    1    1    0    0    0  0.13579343233E-02  0.11077555798E-02  0.23675432569E-02  0.29895635341E-02  0.51100000000E-03 0. -1.
        -14    1    1    0    0    0 -0.12458491016E-02 -0.90000599798E-03  0.22321373765E-03  0.15530534933E-02  0.00000000000E+00 0. -1.
         12    1    1    0    0    0 -0.17991242186E-02  0.18708648234E-02  0.11941045446E-02  0.28570734686E-02  0.00000000000E+00 0.  1.
         14    1    1    0    0    0  0.47162761112E-02 -0.85716040752E-03  0.21217305921E-02  0.52421107416E-02  0.00000000000E+00 0.  1.
     999901    1    1    0    0    0  0.11823173622E-01 -0.20602229176E-02 -0.30217378757E-03  0.90008006492E+00  0.90000000000E+00 0. -1.
     999903    1    1    0    0    0 -0.14852410736E-01  0.83876892001E-03 -0.56044183437E-02  0.25548133845E-01  0.20000000000E-01 0.  0.
</event>
<event>
 7    1  0.4717691E-066  0.9118800E+02  0.7957747E-01            NaN
     999900   -1    0    0    0    0  0.00000000000E+00  0.00000000000E+00  0.99999998245E-14  0.93827000000E+00  0.93827000000E+00 0. -1.
        -11    1    1    0    0    0 -0.16611772538E-02  0.30704063386E-02 -0.21320507756E-02  0.41223374998E-02  0.51100000000E-03 0. -1.
        -14    1    1    0    0    0 -0.34418779948E-02 -0.10598378295E-02  0.74880431382E-04  0.36021365098E-02  0.00000000000E+00 0. -1.
         12    1    1    0    0    0 -0.27220870431E-02 -0.14024117167E-02 -0.26587719676E-02  0.40553156313E-02  0.00000000000E+00 0.  1.
         14    1    1    0    0    0  0.19213367057E-03 -0.22453845850E-02 -0.10004799235E-02  0.24656900371E-02  0.00000000000E+00 0.  1.
     999901    1    1    0    0    0  0.13123351164E-01  0.11111945618E-01  0.12446867733E-01  0.90025031086E+00  0.90000000000E+00 0. -1.
     999903    1    1    0    0    0 -0.54903425424E-02 -0.94747178256E-02 -0.67304454974E-02  0.23774209465E-01  0.20000000000E-01 0.  0.
</event>
<event>
 7    1  0.4717691E-066  0.9118800E+02  0.7957747E-01            NaN
     999900   -1    0    0    0    0  0.00000000000E+00  0.00000000000E+00  0.99999998245E-14  0.93827000000E+00  0.93827000000E+00 0.  1.
        -11    1    1    0    0    0 -0.48569098781E-02  0.14722186337E-02  0.95963891923E-03  0.51902821816E-02  0.51100000000E-03 0. -1.
        -14    1    1    0    0    0 -0.90009631404E-03  0.98778392783E-03 -0.33865186363E-02  0.36406591349E-02  0.00000000000E+00 0. -1.
         12    1    1    0    0    0  0.30436609701E-02 -0.11058952347E-02 -0.21832246189E-02  0.39055532397E-02  0.00000000000E+00 0.  1.
         14    1    1    0    0    0 -0.31336258905E-02 -0.66301714551E-04  0.21777552823E-04  0.31344028779E-02  0.00000000000E+00 0.  1.
     999901    1    1    0    0    0 -0.24628820339E-04 -0.83979597892E-02  0.82291026850E-02  0.90007679920E+00  0.90000000000E+00 0.  1.
     999903    1    1    0    0    0  0.58715999329E-02  0.71101541769E-02 -0.36407759019E-02  0.22322303361E-01  0.20000000000E-01 0.  0.
</event>
<event>
 7    1  0.4717691E-066  0.9118800E+02  0.7957747E-01            NaN
     999900   -1    0    0    0    0  0.00000000000E+00  0.00000000000E+00  0.99999998245E-14  0.93827000000E+00  0.93827000000E+00 0.  1.
        -11    1    1    0    0    0  0.18947297410E-02 -0.29845550537E-02  0.50718141315E-03  0.36077588121E-02  0.51100000000E-03 0. -1.
        -14    1    1    0    0    0  0.61602422805E-03  0.12833021285E-02  0.38595421257E-02  0.41136863787E-02  0.00000000000E+00 0. -1.
         12    1    1    0    0    0 -0.29499580658E-02  0.17434957384E-02  0.21910152614E-02  0.40672567974E-02  0.00000000000E+00 0.  1.
         14    1    1    0    0    0 -0.55539284978E-03 -0.12314601981E-02 -0.15204549718E-02  0.20338974306E-02  0.00000000000E+00 0.  1.
     999901    1    1    0    0    0  0.23172001031E-02  0.31883801724E-02  0.87264935315E-02  0.90005093571E+00  0.90000000000E+00 0.  1.
     999903    1    1    0    0    0 -0.13226031565E-02 -0.19991627875E-02 -0.13763777360E-01  0.24396464870E-01  0.20000000000E-01 0.  0.
</event>
<event>
 7    1  0.4717691E-066  0.9118800E+02  0.7957747E-01            NaN
     999900   -1    0    0    0    0  0.00000000000E+00  0.00000000000E+00  0.99999998245E-14  0.93827000000E+00  0.93827000000E+00 0.  1.
        -11    1    1    0    0    0 -0.30391359818E-03  0.23364996565E-02 -0.15924426401E-02  0.28893924417E-02  0.51100000000E-03 0. -1.
        -14    1    1    0    0    0  0.17362711276E-03 -0.72491732615E-04  0.85294795495E-04  0.20658322227E-03  0.00000000000E+00 0. -1.
         12    1    1    0    0    0  0.23983927355E-02  0.43810676131E-03 -0.27765144027E-02  0.36950314581E-02  0.00000000000E+00 0.  1.
         14    1    1    0    0    0 -0.12427917754E-02 -0.63008712925E-02 -0.22733111506E-02  0.68127420346E-02  0.00000000000E+00 0.  1.
     999901    1    1    0    0    0 -0.20101469554E-02  0.13756686881E-01  0.16143215865E-01  0.90025212610E+00  0.90000000000E+00 0.  1.
     999903    1    1    0    0    0  0.98483248073E-03 -0.10157930274E-01 -0.95862424671E-02  0.24414124746E-01  0.20000000000E-01 0.  0.
</event>
<event>
 7    1  0.4717691E-066  0.9118800E+02  0.7957747E-01            NaN
     999900   -1    0    0    0    0  0.00000000000E+00  0.00000000000E+00  0.99999998245E-14  0.93827000000E+00  0.93827000000E+00 0. -1.
        -11    1    1    0    0    0 -0.23562504570E-03 -0.10110307164E-03  0.20984438682E-03  0.60901285696E-03  0.51100000000E-03 0. -1.
        -14    1    1    0    0    0  0.51032922136E-02 -0.35905229566E-02 -0.19303527860E-02  0.65315930980E-02  0.00000000000E+00 0. -1.
         12    1    1    0    0    0 -0.22288691516E-02 -0.83731492134E-03  0.14013338447E-02  0.27627324367E-02  0.00000000000E+00 0.  1.
         14    1    1    0    0    0  0.35155549332E-02  0.25073044971E-02 -0.14252644529E-02  0.45472058553E-02  0.00000000000E+00 0.  1.
     999901    1    1    0    0    0 -0.14097154759E-01  0.11743456656E-01  0.80968152273E-03  0.90018736612E+00  0.90000000000E+00 0. -1.
     999903    1    1    0    0    0  0.79428018093E-02 -0.97218202031E-02  0.93475748469E-03  0.23632089628E-01  0.20000000000E-01 0.  0.
</event>
<event>
 7    1  0.4717691E-066  0.9118800E+02  0.7957747E-01            NaN
     999900   -1    0    0    0    0  0.00000000000E+00  0.00000000000E+00  0.99999998245E-14  0.93827000000E+00  0.93827000000E+00 0.  1.
        -11    1    1    0    0    0 -0.98946162880E-03  0.94611889350E-03  0.15247541188E-03  0.14691987703E-02  0.51100000000E-03 0. -1.
        -14    1    1    0    0    0  0.23208871946E-02  0.53102661002E-02 -0.12548627555E-02  0.59295972848E-02  0.00000000000E+00 0. -1.
         12    1    1    0    0    0 -0.17540220854E-02  0.12726147284E-02 -0.16294948755E-02  0.27113456571E-02  0.00000000000E+00 0.  1.
         14    1    1    0    0    0 -0.63578774280E-03 -0.47428932428E-03 -0.12447423982E-02  0.14759945986E-02  0.00000000000E+00 0.  1.
     999901    1    1    0    0    0 -0.38656556747E-02  0.22824031132E-02 -0.10059320234E-01  0.90006741002E+00  0.90000000000E+00 0. -1.
     999903    1    1    0    0    0  0.49240399370E-02 -0.93371135109E-02  0.14035944851E-01  0.26616453669E-01  0.20000000000E-01 0.  0.
</event>
<event>
 7    1  0.4717691E-066  0.9118800E+02  0.7957747E-01            NaN
     999900   -1    0    0    0    0  0.00000000000E+00  0.00000000000E+00  0.99999998245E-14  0.93827000000E+00  0.93827000000E+00 0.  1.
        -11    1    1    0    0    0  0.44172199472E-02  0.67355333032E-04  0.14380468966E-03  0.44495134106E-02  0.51100000000E-03 0. -1.
        -14    1    1    0    0    0 -0.18909042686E-03  0.60670336875E-04  0.38192163501E-03  0.43046511426E-03  0.00000000000E+00 0. -1.
         12    1    1    0    0    0  0.17986040200E-03  0.54238675669E-03  0.34609158850E-02  0.35077730715E-02  0.00000000000E+00 0.  1.
         14    1    1    0    0    0 -0.26742460791E-02 -0.59803376328E-02 -0.34685465434E-02  0.74126139396E-02  0.00000000000E+00 0.  1.
     999901    1    1    0    0    0  0.50311819883E-02 -0.15018924428E-02 -0.39307125890E-02  0.90002389911E+00  0.90000000000E+00 0. -1.
     999903    1    1    0    0    0 -0.67649258315E-02  0.68118176490E-02  0.34126169227E-02  0.22445735351E-01  0.20000000000E-01 0.  0.
</event>
<event>
 7    1  0.4717691E-066  0.9118800E+02  0.7957747E-01            NaN
     999900   -1    0    0    0    0  0.00000000000E+00  0.00000000000E+00  0.99999998245E-14  0.93827000000E+00  0.93827000000E+00 0.  1.
        -11    1    1    0    0    0 -0.65829080159E-03  0.29520285475E-02 -0.11057803580E-02  0.32606273207E-02  0.51100000000E-03 0. -1.
        -14    1    1    0    0    0 -0.36430323811E-02 -0.96870689425E-03 -0.21123462145E-02  0.43211207466E-02  0.00000000000E+00 0. -1.
         12    1    1    0    0    0  0.18236894491E-02 -0.39304180667E-03 -0.31785510743E-02  0.36855816366E-02  0.00000000000E+00 0.  1.
         14    1    1    0    0    0 -0.14839291227E-02  0.16371137257E-02  0.33286725391E-02  0.39952781962E-02  0.00000000000E+00 0.  1.
     999901    1    1    0    0    0 -0.44695802285E-02 -0.45886381145E-02 -0.43396718162E-02  0.90003325800E+00  0.90000000000E+00 0. -1.
     999903    1    1    0    0    0  0.84311430848E-02  0.13612445423E-02  0.74076769239E-02  0.22974134104E-01  0.20000000000E-01 0.  0.
</event>
<event>
 7    1  0.4717691E-066  0.9118800E+02  0.7957747E-01            NaN
     999900   -1    0    0    0    0  0.00000000000E+00  0.00000000000E+00  0.99999998245E-14  0.93827000000E+00  0.93827000000E+00 0. -1.
        -11    1    1    0    0    0  0.65024742704E-03  0.11324903834E-02  0.18857760761E-03  0.14149341677E-02  0.51100000000E-03 0. -1.
        -14    1    1    0    0    0 -0.68458650266E-03  0.53148651715E-02 -0.41827069695E-02  0.67979032108E-02  0.00000000000E+00 0. -1.
         12    1    1    0    0    0 -0.55331044290E-02  0.26361258683E-02  0.18014082328E-02  0.63882294759E-02  0.00000000000E+00 0.  1.
         14    1    1    0    0    0  0.17573025148E-02 -0.69008795224E-03  0.19173776391E-02  0.26908494052E-02  0.00000000000E+00 0.  1.
     999901    1    1    0    0    0  0.81933448896E-02 -0.11791585499E-01 -0.18340644808E-02  0.90011640146E+00  0.90000000000E+00 0. -1.
     999903    1    1    0    0    0 -0.43832038998E-02  0.33981920276E-02  0.21094079708E-02  0.20861682278E-01  0.20000000000E-01 0.  0.
</event>
<event>
 7    1  0.4717691E-066  0.9118800E+02  0.7957747E-01            NaN
     999900   -1    0    0    0    0  0.00000000000E+00  0.00000000000E+00  0.99999998245E-14  0.93827000000E+00  0.93827000000E+00 0.  1.
        -11    1    1    0    0    0 -0.61818668549E-03  0.16022474187E-02 -0.19231443559E-02  0.26284894488E-02  0.51100000000E-03 0. -1.
        -14    1    1    0    0    0  0.16110526635E-02 -0.49722075116E-02 -0.98585916420E-03  0.53188585725E-02  0.00000000000E+00 0. -1.
         12    1    1    0    0    0  0.22443606095E-02 -0.10993047352E-02  0.72697933849E-03  0.26027148144E-02  0.00000000000E+00 0.  1.
         14    1    1    0    0    0 -0.10678103746E-02 -0.16006824606E-02 -0.20591191406E-02  0.28182219521E-02  0.00000000000E+00 0.  1.
     999901    1    1    0    0    0 -0.61387163206E-02 -0.47251513525E-02  0.13257786935E-01  0.90013097925E+00  0.90000000000E+00 0.  1.
     999903    1    1    0    0    0  0.39693001077E-02  0.10795098641E-01 -0.90166436122E-02  0.24770735961E-01  0.20000000000E-01 0.  0.
</event>
<event>
 7    1  0.4717691E-066  0.9118800E+02  0.7957747E-01            NaN
     999900   -1    0    0    0    0  0.00000000000E+00  0.00000000000E+00  0.99999998245E-14  0.93827000000E+00  0.93827000000E+00 0.  1.
        -11    1    1    0    0    0  0.17758731359E-03  0.21609770160E-02  0.12135864074E-02  0.25367837680E-02  0.51100000000E-03 0. -1.
        -14    1    1    0    0    0  0.16117858641E-02 -0.25309147636E-02  0.19903138143E-02  0.36006572027E-02  0.00000000000E+00 0. -1.
         12    1    1    0    0    0 -0.42738891718E-02 -0.39495677832E-02 -0.38420522324E-02  0.69732761084E-02  0.00000000000E+00 0.  1.
         14    1    1    0    0    0  0.27448583234E-02 -0.95946679668E-03 -0.14765681996E-02  0.32611466385E-02  0.00000000000E+00 0.  1.
     999901    1    1    0    0    0  0.30063403818E-02  0.12721189774E-01 -0.93506703652E-03  0.90009540667E+00  0.90000000000E+00 0.  1.
     999903    1    1    0    0    0 -0.32666827111E-02 -0.74422174464E-02  0.30497872467E-02  0.21802729616E-01  0.20000000000E-01 0.  0.
</event>
<event>
 7    1  0.4717691E-066  0.9118800E+02  0.7957747E-01            NaN
     999900   -1    0    0    0    0  0.00000000000E+00  0.00000000000E+00  0.99999998245E-14  0.93827000000E+00  0.93827000000E+00 0.  1.
        -11    1    1    0    0    0 -0.26948309899E-02 -0.66141076135E-02 -0.19738734036E-02  0.74273703826E-02  0.51100000000E-03 0. -1.
        -14    1    1    0    0    0 -0.21418450885E-02  0.37382611570E-03  0.42604559239E-03  0.22155724304E-02  0.00000000000E+00 0. -1.
         12    1    1    0    0    0  0.19159018648E-02  0.14490310161E-02  0.25762234844E-02  0.35223995063E-02  0.00000000000E+00 0.  1.
         14    1    1    0    0    0 -0.29490478665E-02 -0.26951047416E-02  0.10648224205E-02  0.41345277451E-02  0.00000000000E+00 0.  1.
     999901    1    1    0    0    0  0.13483881485E-02  0.38975980408E-02 -0.44524558115E-02  0.90002046298E+00  0.90000000000E+00 0. -1.
     999903    1    1    0    0    0  0.45214339316E-02  0.35887571826E-02  0.23592377178E-02  0.20949666955E-01  0.20000000000E-01 0.  0.
</event>
<event>
 7    1  0.4717691E-066  0.9118800E+02  0.7957747E-01            NaN
     999900   -1    0    0    0    0  0.00000000000E+00  0.00000000000E+00  0.99999998245E-14  0.93827000000E+00  0.93827000000E+00 0.  1.
        -11    1    1    0    0    0  0.46454858999E-03 -0.92968778163E-03 -0.36639927431E-02  0.38426668585E-02  0.51100000000E-03 0. -1.
        -14    1    1    0    0    0  0.16004460720E-02  0.31376564838E-02  0.25416260724E-02  0.43435214897E-02  0.00000000000E+00 0. -1.
         12    1    1    0    0    0 -0.11083493397E-02  0.10329415822E-02  0.11839345039E-02  0.19227863845E-02  0.00000000000E+00 0.  1.
         14    1    1    0    0    0  0.25676431582E-02 -0.57400210427E-02  0.96701238189E-03  0.63620551637E-02  0.00000000000E+00 0.  1.
     999901    1    1    0    0    0 -0.23197836887E-02  0.31670270065E-02  0.74324160370E-02  0.90003925040E+00  0.90000000000E+00 0.  1.
     999903    1    1    0    0    0 -0.12045047918E-02 -0.66791624819E-03 -0.84609962520E-02  0.21759719701E-01  0.20000000000E-01 0.  0.
</event>
<event>
 7    1  0.4717691E-066  0.9118800E+02  0.7957747E-01            NaN
     999900   -1    0    0    0    0  0.00000000000E+00  0.00000000000E+00  0.99999998245E-14  0.93827000000E+00  0.93827000000E+00 0.  1.
        -11    1    1    0    0    0 -0.31960203680E-03 -0.90638995830E-03 -0.71222193238E-02  0.72049161907E-02  0.51100000000E-03 0. -1.
        -14    1    1    0    0    0  0.35766946639E-02  0.20916739532E-02  0.15910207271E-02  0.44383771358E-02  0.00000000000E+00 0. -1.
         12    1    1    0    0    0  0.44809890494E-03  0.24949842558E-02 -0.42174704622E-04  0.25352549716E-02  0.00000000000E+00 0.  1.
         14    1    1    0    0    0 -0.20433783670E-03 -0.70904306105E-03 -0.23685549988E-03  0.77498163962E-03  0.00000000000E+00 0.  1.
     999901    1    1    0    0    0  0.41025098397E-02 -0.11697078686E-01  0.78461971121E-02  0.90011955597E+00  0.90000000000E+00 0.  1.
     999903    1    1    0    0    0 -0.76033635351E-02  0.87258534960E-02 -0.20359683109E-02  0.23196914089E-01  0.20000000000E-01 0.  0.
</event>
<event>
 7    1  0.4717691E-066  0.9118800E+02  0.7957747E-01            NaN
     999900   -1    0    0    0    0  0.00000000000E+00  0.00000000000E+00  0.99999998245E-14  0.93827000000E+00  0.93827000000E+00 0.  1.
        -11    1    1    0    0    0  0.30311148673E-02  0.15126395355E-02  0.24170600322E-02  0.41927360878E-02  0.51100000000E-03 0. -1.
        -14    1    1    0    0    0 -0.26679606406E-02  0.17257551745E-02 -0.50458453501E-03  0.32172737613E-02  0.00000000000E+00 0. -1.
         12    1    1    0    0    0 -0.45802597839E-02  0.40312878834E-03 -0.16036540732E-02  0.48695994593E-02  0.00000000000E+00 0.  1.
         14    1    1    0    0    0  0.33309932366E-03  0.38335836789E-02  0.21915650354E-02  0.44283491605E-02  0.00000000000E+00 0.  1.
     999901    1    1    0    0    0  0.46214570982E-02 -0.12514589418E-01  0.33696119718E-02  0.90010517558E+00  0.90000000000E+00 0. -1.
     999903    1    1    0    0    0 -0.73745086462E-03  0.50394822405E-02 -0.58699984311E-02  0.21456865955E-01  0.20000000000E-01 0.  0.
</event>
<event>
 7    1  0.4717691E-066  0.9118800E+02  0.7957747E-01            NaN
     999900   -1    0    0    0    0  0.00000000000E+00  0.00000000000E+00  0.99999998245E-14  0.93827000000E+00  0.93827000000E+00 0. -1.
        -11    1    1    0    0    0  0.53841973182E-03  0.86503369260E-03 -0.31365097280E-02  0.33372134141E-02  0.51100000000E-03 0. -1.
        -14    1    1    0    0    0 -0.19278153747E-02 -0.67661373811E-03  0.41329734021E-03  0.20844886570E-02  0.00000000000E+00 0. -1.
         12    1    1    0    0    0  0.22896260811E-02 -0.98816500635E-03  0.38866947958E-02  0.46179274687E-02  0.00000000000E+00 0.  1.
         14    1    1    0    0    0  0.23404731631E-02  0.11078382375E-02 -0.94063749632E-03  0.27549807780E-02  0.00000000000E+00 0.  1.
     999901    1    1    0    0    0 -0.13869199812E-01 -0.45329276363E-02  0.10228260816E-01  0.90017638241E+00  0.90000000000E+00 0.  1.
     999903    1    1    0    0    0  0.10628496211E-01  0.42248344507E-02 -0.10451105727E-01  0.25299007268E-01  0.20000000000E-01 0.  0.
</event>
<event>
 7    1  0.4717691E-066  0.9118800E+02  0.7957747E-01            NaN
     999900   -1    0    0    0    0  0.00000000000E+00  0.00000000000E+00  0.99999998245E-14  0.93827000000E+00  0.93827000000E+00 0.  1.
        -11    1    1    0    0    0  0.73407716300E-03  0.33008791104E-02  0.29988548547E-02  0.45485078457E-02  0.51100000000E-03 0. -1.
        -14    1    1    0    0    0 -0.67514159844E-03 -0.31742266475E-02 -0.37652615155E-03  0.32670021320E-02  0.00000000000E+00 0. -1.
         12    1    1    0    0    0 -0.16956757239E-02  0.49010158692E-02 -0.69271661991E-03  0.52321247143E-02  0.00000000000E+00 0.  1.
         14    1    1    0    0    0 -0.22127974954E-03 -0.21185935099E-02  0.76788177113E-03  0.22642980374E-02  0.00000000000E+00 0.  1.
     999901    1    1    0    0    0  0.81146901997E-02  0.31081168383E-02  0.43253096062E-02  0.90005234119E+00  0.90000000000E+00 0. -1.
     999903    1    1    0    0    0 -0.62566702909E-02 -0.60171916604E-02 -0.70228034606E-02  0.22905726076E-01  0.20000000000E-01 0.  0.
</event>
<event>
 7    1  0.4717691E-066  0.9118800E+02  0.7957747E-01            NaN
     999900   -1    0    0    0    0  0.00000000000E+00  0.00000000000E+00  0.99999998245E-14  0.93827000000E+00  0.93827000000E+00 0. -1.
        -11    1    1    0    0    0  0.24585827875E-02 -0.19565169727E-02 -0.93716872170E-03  0.33184324915E-02  0.51100000000E-03 0. -1.
        -14    1    1    0    0    0  0.18409878163E-02  0.14744913708E-02  0.29075385894E-03  0.23765308222E-02  0.00000000000E+00 0. -1.
         12    1    1    0    0    0  0.31235254399E-03  0.40252143581E-02 -0.18328538649E-02  0.44338773134E-02  0.00000000000E+00 0.  1.
         14    1    1    0    0    0 -0.17282729331E-02 -0.99525706057E-03  0.41157337682E-02  0.45734809936E-02  0.00000000000E+00 0.  1.
     999901    1    1    0    0    0 -0.69923786452E-02  0.13544227186E-03 -0.12850852661E-01  0.90011891221E+00  0.90000000000E+00 0.  1.
     999903    1    1    0    0    0  0.41087284305E-02 -0.26833739675E-02  0.11214387621E-01  0.23448766169E-01  0.20000000000E-01 0.  0.
</event>
<event>
 7    1  0.4717691E-066  0.9118800E+02  0.7957747E-01            NaN
     999900   -1    0    0    0    0  0.00000000000E+00  0.00000000000E+00  0.99999998245E-14  0.93827000000E+00  0.93827000000E+00 0.  1.
        -11    1    1    0    0    0  0.39661838677E-02  0.15406363179E-02  0.38352719963E-02  0.57510526882E-02  0.51100000000E-03 0. -1.
        -14    1    1    0    0    0 -0.90691817441E-03 -0.15091206034E-02 -0.36866509082E-02  0.40855037009E-02  0.00000000000E+00 0. -1.
         12    1    1    0    0    0  0.12494192275E-02 -0.65667105748E-03  0.26773434221E-03  0.14366443407E-02  0.00000000000E+00 0.  1.
         14    1    1    0    0    0 -0.40122282986E-02  0.33583252449E-02 -0.56934993952E-03  0.52631249011E-02  0.00000000000E+00 0.  1.
     999901    1    1    0    0    0  0.39156590236E-02 -0.83072083595E-02  0.47319596364E-02  0.90005929446E+00  0.90000000000E+00 0.  1.
     999903    1    1    0    0    0 -0.42121156458E-02  0.55740384576E-02 -0.45789651272E-02  0.21674379912E-01  0.20000000000E-01 0.  0.
</event>
<event>
 7    1  0.4717691E-066  0.9118800E+02  0.7957747E-01            NaN
     999900   -1    0    0    0    0  0.00000000000E+00  0.00000000000E+00  0.99999998245E-14  0.93827000000E+00  0.93827000000E+00 0. -1.
        -11    1    1    0    0    0 -0.97984437739E-03  0.63819438273E-02 -0.31140744131E-02  0.71866461211E-02  0.51100000000E-03 0. -1.
        -14    1    1    0    0    0  0.23972095217E-03 -0.27451894345E-02  0.21557550468E-03  0.27640557093E-02  0.00000000000E+00 0. -1.
         12    1    1    0    0    0 -0.17261870458E-02 -0.15404548326E-02 -0.56405363203E-03  0.23813608102E-02  0.00000000000E+00 0.  1.
         14    1    1    0    0    0  0.87263658822E-03  0.11183654442E-02 -0.23571612217E-02  0.27510806799E-02  0.00000000000E+00 0.  1.
     999901    1    1    0    0    0  0.10905219384E-01 -0.88329074590E-02  0.92961884260E-02  0.90015741023E+00  0.90000000000E+00 0. -1.
     999903    1    1    0    0    0 -0.93115455016E-02  0.56182424545E-02 -0.34764746638E-02  0.23029446454E-01  0.20000000000E-01 0.  0.
</event>
<event>
 7    1  0.4717691E-066  0.9118800E+02  0.7957747E-01            NaN
     999900   -1    0    0    0    0  0.00000000000E+00  0.00000000000E+00  0.99999998245E-14  0.93827000000E+00  0.93827000000E+00 0. -1.
        -11    1    1    0    0    0 -0.44263648775E-03  0.20750328059E-02 -0.25864317891E-02  0.33841451809E-02  0.51100000000E-03 0. -1.
        -14    1    1    0    0    0 -0.25684385725E-03 -0.41824780873E-02 -0.88619246138E-03  0.42830396678E-02  0.00000000000E+00 0. -1.
         12    1    1    0    0    0 -0.25874388722E-03  0.29546319384E-02 -0.24091909609E-02  0.38211254071E-02  0.00000000000E+00 0.  1.
         14    1    1    0    0    0  0.32955852965E-02 -0.79924753227E-03 -0.48495927473E-03  0.34256188583E-02  0.00000000000E+00 0.  1.
     999901    1    1    0    0    0  0.84892370219E-02  0.22317455979E-02  0.17826778133E-02  0.90004456877E+00  0.90000000000E+00 0.  1.
     999903    1    1    0    0    0 -0.10826598086E-01 -0.22796847226E-02  0.45840966728E-02  0.23311502115E-01  0.20000000000E-01 0.  0.
</event>
<event>
 7    1  0.4717691E-066  0.9118800E+02  0.7957747E-01            NaN
     999900   -1    0    0    0    0  0.00000000000E+00  0.00000000000E+00  0.99999998245E-14  0.93827000000E+00  0.93827000000E+00 0. -1.
        -11    1    1    0    0    0 -0.96185524442E-03  0.10726571705E-02  0.12003449008E-03  0.15333910772E-02  0.51100000000E-03 0. -1.
        -14    1    1    0    0    0  0.36451554302E-03  0.39053986480E-02 -0.67165241759E-02  0.77779629201E-02  0.00000000000E+00 0. -1.
         12    1    1    0    0    0 -0.77453929989E-04 -0.11721722469E-02 -0.14690010270E-03  0.11838777504E-02  0.00000000000E+00 0.  1.
         14    1    1    0    0    0 -0.49230697035E-03  0.17233371672E-02 -0.29499076417E-02  0.34516970087E-02  0.00000000000E+00 0.  1.
     999901    1    1    0    0    0  0.72553378789E-02 -0.79319348954E-02  0.21249585130E-01  0.90031500065E+00  0.90000000000E+00 0. -1.
     999903    1    1    0    0    0 -0.60882372771E-02  0.24027141565E-02 -0.11556287699E-01  0.24008070598E-01  0.20000000000E-01 0.  0.
</event>
<event>
 7    1  0.4717691E-066  0.9118800E+02  0.7957747E-01            NaN
     999900   -1    0    0    0    0  0.00000000000E+00  0.00000000000E+00  0.99999998245E-14  0.93827000000E+00  0.93827000000E+00 0.  1.
        -11    1    1    0    0    0  0.22555237723E-03  0.14478725644E-02  0.27703408643E-02  0.31753926280E-02  0.51100000000E-03 0. -1.
        -14    1    1    0    0    0  0.10857182123E-02 -0.13694867218E-02 -0.87957659546E-03  0.19565103897E-02  0.00000000000E+00 0. -1.
         12    1    1    0    0    0 -0.61421508591E-02 -0.14332700352E-02  0.64165667760E-03  0.63397163550E-02  0.00000000000E+00 0.  1.
         14    1    1    0    0    0  0.36806225751E-02  0.30554846886E-02 -0.31830866957E-02  0.57458689626E-02  0.00000000000E+00 0.  1.
     999901    1    1    0    0    0 -0.11042576661E-03 -0.56266520114E-02 -0.43515400745E-02  0.90002811473E+00  0.90000000000E+00 0. -1.
     999903    1    1    0    0    0  0.12606834611E-02  0.39260515154E-02  0.50022058237E-02  0.21024396933E-01  0.20000000000E-01 0.  0.
</event>
<event>
 7    1  0.4717691E-066  0.9118800E+02  0.7957747E-01            NaN
     999900   -1    0    0    0    0  0.00000000000E+00  0.00000000000E+00  0.99999998245E-14  0.93827000000E+00  0.93827000000E+00 0. -1.
        -11    1    1    0    0    0 -0.32332536837E-02 -0.14169695818E-02 -0.26595087741E-02  0.44492516335E-02  0.51100000000E-03 0. -1.
        -14    1    1    0    0    0  0.10203526141E-03  0.39569238985E-02  0.39012290260E-02  0.55576295168E-02  0.00000000000E+00 0. -1.
         12    1    1    0    0    0  0.19285478152E-02  0.22695747357E-03 -0.74095809928E-03  0.20784189364E-02  0.00000000000E+00 0.  1.
         14    1    1    0    0    0 -0.43297375696E-03 -0.73646392029E-03 -0.66018558243E-03  0.10796714238E-02  0.00000000000E+00 0.  1.
     999901    1    1    0    0    0 -0.21155288482E-02  0.17370519194E-02 -0.13856458179E-01  0.90011082331E+00  0.90000000000E+00 0.  1.
     999903    1    1    0    0    0  0.37511732122E-02 -0.37674997893E-02  0.14015881609E-01  0.24994205177E-01  0.20000000000E-01 0.  0.
</event>
<event>
 7    1  0.4717691E-066  0.9118800E+02  0.7957747E-01            NaN
     999900   -1    0    0    0    0  0.00000000000E+00  0.00000000000E+00  0.99999998245E-14  0.93827000000E+00  0.93827000000E+00 0. -1.
        -11    1    1    0    0    0 -0.20171311201E-02  0.34688976615E-03 -0.14808943656E-02  0.25774637897E-02  0.51100000000E-03 0. -1.
        -14    1    1    0    0    0  0.11020708770E-02 -0.20951383911E-02  0.41620641904E-02  0.47882087904E-02  0.00000000000E+00 0. -1.
         12    1    1    0    0    0  0.14293176801E-02  0.76985994747E-03  0.43300695593E-02  0.46244065303E-02  0.00000000000E+00 0.  1.
         14    1    1    0    0    0  0.70622358552E-03 -0.39565336843E-02  0.62227335226E-03  0.40669564385E-02  0.00000000000E+00 0.  1.
     999901    1    1    0    0    0 -0.25753791144E-02 -0.22212586447E-02 -0.13056679880E-02  0.90000737293E+00  0.90000000000E+00 0.  1.
     999903    1    1    0    0    0  0.13548980919E-02  0.71561810065E-02 -0.63278447483E-02  0.22205591516E-01  0.20000000000E-01 0.  0.
</event>
<event>
 7    1  0.4717691E-066  0.9118800E+02  0.7957747E-01            NaN
     999900   -1    0    0    0    0  0.00000000000E+00  0.00000000000E+00  0.99999998245E-14  0.93827000000E+00  0.93827000000E+00 0. -1.
        -11    1    1    0    0    0 -0.20671916138E-02 -0.24275426003E-03 -0.12319303827E-02  0.24720405067E-02  0.51100000000E-03 0. -1.
        -14    1    1    0    0    0  0.77116983983E-03  0.18215301181E-02  0.18192697781E-03  0.19863968179E-02  0.00000000000E+00 0. -1.
         12    1    1    0    0    0  0.14989476454E-02 -0.13385549776E-02 -0.28521681483E-02  0.34890452301E-02  0.00000000000E+00 0.  1.
         14    1    1    0    0    0 -0.53869531160E-02  0.14119820475E-03  0.62429102731E-02  0.82470073048E-02  0.00000000000E+00 0.  1.
     999901    1    1    0    0    0  0.13511396301E-01  0.32063511498E-02 -0.27908948515E-02  0.90011145288E+00  0.90000000000E+00 0. -1.
     999903    1    1    0    0    0 -0.83273690560E-02 -0.35877702350E-02  0.45015613155E-03  0.21964057257E-01  0.20000000000E-01 0.  0.
</event>
<event>
 7    1  0.4717691E-066  0.9118800E+02  0.7957747E-01            NaN
     999900   -1    0    0    0    0  0.00000000000E+00  0.00000000000E+00  0.99999998245E-14  0.93827000000E+00  0.93827000000E+00 0.  1.
        -11    1    1    0    0    0  0.29750612851E-02 -0.67432242219E-04 -0.58381449876E-03  0.30753043957E-02  0.51100000000E-03 0. -1.
        -14    1    1    0    0    0 -0.17562630286E-03  0.20583523615E-02 -0.95326050108E-03  0.22751625492E-02  0.00000000000E+00 0. -1.
         12    1    1    0    0    0  0.11369237738E-02 -0.43720991525E-02 -0.21861552434E-02  0.50186772575E-02  0.00000000000E+00 0.  1.
         14    1    1    0    0    0  0.18233895386E-02  0.27283450614E-02  0.65623798821E-02  0.73371279054E-02  0.00000000000E+00 0.  1.
     999901    1    1    0    0    0 -0.16031972856E-02 -0.22399435130E-02 -0.15041005364E-02  0.90000547215E+00  0.90000000000E+00 0. -1.
     999903    1    1    0    0    0 -0.41565510090E-02  0.18927774848E-02 -0.13350491024E-02  0.20558255738E-01  0.20000000000E-01 0.  0.
</event>
<event>
 7    1  0.4717691E-066  0.9118800E+02  0.7957747E-01            NaN
     999900   -1    0    0    0    0  0.00000000000E+00  0.00000000000E+00  0.99999998245E-14  0.93827000000E+00  0.93827000000E+00 0. -1.
        -11    1    1    0    0    0  0.10098012873E-02 -0.98999826046E-04  0.78401773686E-03  0.13803276485E-02  0.51100000000E-03 0. -1.
        -14    1    1    0    0    0  0.24017354820E-02 -0.59362829242E-02 -0.22766351878E-03  0.64077780049E-02  0.00000000000E+00 0. -1.
         12    1    1    0    0    0  0.13129970578E-02 -0.14353805345E-02  0.53405922027E-03  0.20172996315E-02  0.00000000000E+00 0.  1.
         14    1    1    0    0    0 -0.43643975826E-02 -0.88875843514E-03 -0.18974590576E-02  0.48413023754E-02  0.00000000000E+00 0.  1.
     999901    1    1    0    0    0 -0.57050101814E-02 -0.21384603038E-02 -0.34359812402E-02  0.90002718077E+00  0.90000000000E+00 0.  1.
     999903    1    1    0    0    0  0.53448739367E-02  0.10497882024E-01  0.42430268595E-02  0.23596111572E-01  0.20000000000E-01 0.  0.
</event>
<event>
 7    1  0.4717691E-066  0.9118800E+02  0.7957747E-01            NaN
     999900   -1    0    0    0    0  0.00000000000E+00  0.00000000000E+00  0.99999998245E-14  0.93827000000E+00  0.93827000000E+00 0.  1.
        -11    1    1    0    0    0 -0.48546529281E-03  0.10171723619E-02 -0.52446694539E-03  0.13440620302E-02  0.51100000000E-03 0. -1.
        -14    1    1    0    0    0 -0.21908444414E-02 -0.17250664988E-02  0.15740092752E-02  0.32020554321E-02  0.00000000000E+00 0. -1.
         12    1    1    0    0    0 -0.44170632591E-03 -0.54930913216E-02  0.35855385924E-02  0.65745907662E-02  0.00000000000E+00 0.  1.
         14    1    1    0    0    0  0.24171740252E-03  0.39231177738E-03 -0.36275226024E-02  0.36566728134E-02  0.00000000000E+00 0.  1.
     999901    1    1    0    0    0 -0.75885325352E-03  0.16938404609E-01 -0.36522089765E-02  0.90016710895E+00  0.90000000000E+00 0. -1.
     999903    1    1    0    0    0  0.36351519111E-02 -0.11129730928E-01  0.26446506567E-02  0.23325510006E-01  0.20000000000E-01 0.  0.
</event>
<event>
 7    1  0.4717691E-066  0.9118800E+02  0.7957747E-01            NaN
     999900   -1    0    0    0    0  0.00000000000E+00  0.00000000000E+00  0.99999998245E-14  0.93827000000E+00  0.93827000000E+00 0. -1.
        -11    1    1    0    0    0 -0.86357541757E-03 -0.17854411493E-02 -0.12327404587E-02  0.23904670334E-02  0.51100000000E-03 0. -1.
        -14    1    1    0    0    0  0.40151557300E-02  0.82969484066E-03 -0.24948501746E-02  0.47993902173E-02  0.00000000000E+00 0. -1.
         12    1    1    0    0    0  0.83748331313E-03  0.31374522928E-02 -0.30402857853E-03  0.32615055673E-02  0.00000000000E+00 0.  1.
         14    1    1    0    0    0 -0.17589546407E-02 -0.25964789016E-02  0.38133661089E-03  0.31592786717E-02  0.00000000000E+00 0.  1.
     999901    1    1    0    0    0  0.61318523834E-04  0.14018126495E-01  0.12755425107E-03  0.90010917555E+00  0.90000000000E+00 0. -1.
     999903    1    1    0    0    0 -0.22914275086E-02 -0.13603353578E-01  0.35227283498E-02  0.24550182965E-01  0.20000000000E-01 0.  0.
</event>
<event>
 7    1  0.4717691E-066  0.9118800E+02  0.7957747E-01            NaN
     999900   -1    0    0    0    0  0.00000000000E+00  0.00000000000E+00  0.99999998245E-14  0.93827000000E+00  0.93827000000E+00 0.  1.
        -11    1    1    0    0    0  0.29648757436E-02 -0.33130892145E-03  0.37800433481E-02  0.48425305874E-02  0.51100000000E-03 0. -1.
        -14    1    1    0    0    0 -0.28760293117E-03 -0.80502714560E-03 -0.48367626620E-03  0.98220511181E-03  0.00000000000E+00 0. -1.
         12    1    1    0    0    0 -0.56443073476E-03 -0.34270641866E-02 -0.43618625237E-02  0.55757686169E-02  0.00000000000E+00 0.  1.
         14    1    1    0    0    0  0.14381132425E-02 -0.31564115187E-03  0.29138956483E-02  0.32647491303E-02  0.00000000000E+00 0.  1.
     999901    1    1    0    0    0 -0.24608262113E-02  0.14066736723E-01 -0.98313188770E-02  0.90016697539E+00  0.90000000000E+00 0. -1.
     999903    1    1    0    0    0 -0.10901291089E-02 -0.91876953178E-02  0.79829186706E-02  0.23437771166E-01  0.20000000000E-01 0.  0.
</event>
<event>
 7    1  0.4717691E-066  0.9118800E+02  0.7957747E-01            NaN
     999900   -1    0    0    0    0  0.00000000000E+00  0.00000000000E+00  0.99999998245E-14  0.93827000000E+00  0.93827000000E+00 0. -1.
        -11    1    1    0    0    0  0.41489561111E-02 -0.11541636098E-02  0.83930919966E-03  0.44171813844E-02  0.51100000000E-03 0. -1.
        -14    1    1    0    0    0  0.68447279965E-03  0.12170953791E-02  0.47608165966E-03  0.14752890977E-02  0.00000000000E+00 0. -1.
         12    1    1    0    0    0  0.23858059890E-02  0.73686823213E-03  0.35700972094E-03  0.25223998393E-02  0.00000000000E+00 0.  1.
         14    1    1    0    0    0 -0.22371980615E-02 -0.19551538702E-02 -0.27317973584E-02  0.40361365971E-02  0.00000000000E+00 0.  1.
     999901    1    1    0    0    0  0.63522968163E-03 -0.12140663795E-01  0.82768858898E-02  0.90012016202E+00  0.90000000000E+00 0. -1.
     999903    1    1    0    0    0 -0.56172665199E-02  0.13296017664E-01 -0.72174891116E-02  0.25698831062E-01  0.20000000000E-01 0.  0.
</event>
<event>
 7    1  0.4717691E-066  0.9118800E+02  0.7957747E-01            NaN
     999900   -1    0    0    0    0  0.00000000000E+00  0.00000000000E+00  0.99999998245E-14  0.93827000000E+00  0.93827000000E+00 0. -1.
        -11    1    1    0    0    0  0.27244186224E-02 -0.65647709478E-03 -0.26084063130E-02  0.38624245623E-02  0.51100000000E-03 0. -1.
        -14    1    1    0    0    0 -0.16779448983E-02  0.51170772101E-03 -0.23356238024E-02  0.29210413246E-02  0.00000000000E+00 0. -1.
         12    1    1    0    0    0 -0.22697581870E-02 -0.47691081553E-03 -0.25316708754E-02  0.34334535929E-02  0.00000000000E+00 0.  1.
         14    1    1    0    0    0  0.10019083435E-02 -0.15964181654E-03  0.26077355624E-02  0.27981405615E-02  0.00000000000E+00 0.  1.
     999901    1    1    0    0    0  0.88216953184E-02  0.79531138636E-02  0.14977408281E-01  0.90020297549E+00  0.90000000000E+00 0. -1.
     999903    1    1    0    0    0 -0.86003191990E-02 -0.71717918578E-02 -0.10109442853E-01  0.25051964465E-01  0.20000000000E-01 0.  0.
</event>
<event>
 7    1  0.4717691E-066  0.9118800E+02  0.7957747E-01            NaN
     999900   -1    0    0    0    0  0.00000000000E+00  0.00000000000E+00  0.99999998245E-14  0.93827000000E+00  0.93827000000E+00 0.  1.
        -11    1    1    0    0    0  0.64614824642E-03 -0.72441495723E-04 -0.15209487578E-02  0.17312311950E-02  0.51100000000E-03 0. -1.
        -14    1    1    0    0    0  0.18288934098E-02  0.12349660710E-02  0.46754192812E-02  0.51700616782E-02  0.00000000000E+00 0. -1.
         12    1    1    0    0    0 -0.15687365002E-02  0.22777353523E-02  0.49649952033E-02  0.56833256031E-02  0.00000000000E+00 0.  1.
         14    1    1    0    0    0 -0.21276755556E-02  0.55072007034E-03  0.82922455150E-04  0.21993571786E-02  0.00000000000E+00 0. -1.
     999901    1    1    0    0    0 -0.27294285290E-02  0.68298108950E-02 -0.40729788764E-02  0.90003926873E+00  0.90000000000E+00 0. -1.
     999903    1    1    0    0    0  0.39507989285E-02 -0.10820790893E-01 -0.41294093055E-02  0.23446755616E-01  0.20000000000E-01 0.  0.
</event>
<event>
 7    1  0.4717691E-066  0.9118800E+02  0.7957747E-01            NaN
     999900   -1    0    0    0    0  0.00000000000E+00  0.00000000000E+00  0.99999998245E-14  0.93827000000E+00  0.93827000000E+00 0.  1.
        -11    1    1    0    0    0 -0.10930143615E-02 -0.31183327954E-02 -0.13850632081E-02  0.36191436705E-02  0.51100000000E-03 0. -1.
        -14    1    1    0    0    0  0.32162133525E-02  0.24223662072E-02 -0.31045384588E-04  0.40265183703E-02  0.00000000000E+00 0. -1.
         12    1    1    0    0    0  0.13489070761E-02 -0.12253701686E-02 -0.16960261953E-02  0.24894953715E-02  0.00000000000E+00 0.  1.
         14    1    1    0    0    0 -0.38985560260E-02  0.58332379033E-02 -0.54061238389E-03  0.70368789441E-02  0.00000000000E+00 0.  1.
     999901    1    1    0    0    0  0.65870925780E-02 -0.46516256461E-02  0.57339188165E-02  0.90005439015E+00  0.90000000000E+00 0.  1.
     999903    1    1    0    0    0 -0.61606426191E-02  0.73972449964E-03 -0.20811716447E-02  0.21043573490E-01  0.20000000000E-01 0.  0.
</event>
<event>
 7    1  0.4717691E-066  0.9118800E+02  0.7957747E-01            NaN
     999900   -1    0    0    0    0  0.00000000000E+00  0.00000000000E+00  0.99999998245E-14  0.93827000000E+00  0.93827000000E+00 0. -1.
        -11    1    1    0    0    0  0.25837066334E-02  0.54226658071E-02 -0.36298317583E-02  0.70368774336E-02  0.51100000000E-03 0. -1.
        -14    1    1    0    0    0 -0.35093892752E-02  0.24526747859E-02  0.66854061988E-03  0.43334020412E-02  0.00000000000E+00 0. -1.
         12    1    1    0    0    0  0.12815922897E-02 -0.74712548195E-03  0.12945606629E-02  0.19688988275E-02  0.00000000000E+00 0.  1.
         14    1    1    0    0    0 -0.22479561387E-02  0.16765269110E-02  0.91535608413E-03  0.29499027180E-02  0.00000000000E+00 0.  1.
     999901    1    1    0    0    0 -0.22137365783E-02 -0.15024145969E-01 -0.39002189583E-02  0.90013656592E+00  0.90000000000E+00 0.  1.
     999903    1    1    0    0    0  0.41057830692E-02  0.62194039468E-02  0.46515933497E-02  0.21844353063E-01  0.20000000000E-01 0.  0.
</event>
<event>
 7    1  0.4717691E-066  0.9118800E+02  0.7957747E-01            NaN
     999900   -1    0    0    0    0  0.00000000000E+00  0.00000000000E+00  0.99999998245E-14  0.93827000000E+00  0.93827000000E+00 0.  1.
        -11    1    1    0    0    0 -0.44088162133E-03 -0.15150450684E-03  0.10510438261E-02  0.12582306402E-02  0.51100000000E-03 0. -1.
        -14    1    1    0    0    0  0.36361113674E-02 -0.41168494616E-02  0.29393002616E-02  0.62297063650E-02  0.00000000000E+00 0. -1.
         12    1    1    0    0    0 -0.24911750667E-02  0.15921647990E-02  0.17202653769E-02  0.34205635394E-02  0.00000000000E+00 0.  1.
         14    1    1    0    0    0  0.19977369453E-02 -0.22575001242E-02 -0.18744121959E-02  0.35497437645E-02  0.00000000000E+00 0.  1.
     999901    1    1    0    0    0  0.66537119148E-02 -0.18246993876E-02 -0.93352075180E-02  0.90007485661E+00  0.90000000000E+00 0. -1.
     999903    1    1    0    0    0 -0.93555035394E-02  0.67583886812E-02  0.54990102493E-02  0.23736899076E-01  0.20000000000E-01 0.  0.
</event>
<event>
 7    1  0.4717691E-066  0.9118800E+02  0.7957747E-01            NaN
     999900   -1    0    0    0    0  0.00000000000E+00  0.00000000000E+00  0.99999998245E-14  0.93827000000E+00  0.93827000000E+00 0. -1.
        -11    1    1    0    0    0  0.57750931394E-03 -0.32178778263E-02 -0.29902301927E-02  0.44599161784E-02  0.51100000000E-03 0. -1.
        -14    1    1    0    0    0  0.50195916057E-03 -0.10252633864E-02  0.39716815429E-02  0.41324789520E-02  0.00000000000E+00 0. -1.
         12    1    1    0    0    0 -0.51789460092E-03  0.35547096542E-03  0.32725028191E-02  0.33322438575E-02  0.00000000000E+00 0.  1.
         14    1    1    0    0    0 -0.93120138957E-03 -0.23010306569E-02 -0.16678168860E-02  0.29905670494E-02  0.00000000000E+00 0.  1.
     999901    1    1    0    0    0  0.76569613676E-02  0.12871254569E-01  0.38556401082E-02  0.90013285920E+00  0.90000000000E+00 0.  1.
     999903    1    1    0    0    0 -0.72873338516E-02 -0.66825536649E-02 -0.64417773914E-02  0.23221934762E-01  0.20000000000E-01 0.  0.
</event>
<event>
 7    1  0.4717691E-066  0.9118800E+02  0.7957747E-01            NaN
     999900   -1    0    0    0    0  0.00000000000E+00  0.00000000000E+00  0.99999998245E-14  0.93827000000E+00  0.93827000000E+00 0. -1.
        -11    1    1    0    0    0  0.19002582631E-02  0.66826196014E-03  0.34157787302E-03  0.21060275300E-02  0.51100000000E-03 0. -1.
        -14    1    1    0    0    0 -0.32164124969E-03 -0.13297664950E-02 -0.11553754520E-02  0.17907050176E-02  0.00000000000E+00 0. -1.
         12    1    1    0    0    0 -0.16517160820E-02 -0.10953638753E-02 -0.36589560733E-02  0.41612435138E-02  0.00000000000E+00 0.  1.
         14    1    1    0    0    0  0.43907749397E-02  0.44647749952E-02  0.48688060122E-02  0.79321114663E-02  0.00000000000E+00 0.  1.
     999901    1    1    0    0    0 -0.11414443367E-01 -0.85996460320E-02  0.20874034373E-02  0.90011588181E+00  0.90000000000E+00 0. -1.
     999903    1    1    0    0    0  0.70967674964E-02  0.58917394470E-02 -0.24834557972E-02  0.22164030665E-01  0.20000000000E-01 0.  0.
</event>
<event>
 7    1  0.4717691E-066  0.9118800E+02  0.7957747E-01            NaN
     999900   -1    0    0    0    0  0.00000000000E+00  0.00000000000E+00  0.99999998245E-14  0.93827000000E+00  0.93827000000E+00 0.  1.
        -11    1    1    0    0    0  0.22121359439E-02  0.41535615142E-02  0.25174987579E-02  0.53613934460E-02  0.51100000000E-03 0. -1.
        -14    1    1    0    0    0  0.66219756141E-03  0.94655159292E-03 -0.56466133190E-03  0.12858102302E-02  0.00000000000E+00 0. -1.
         12    1    1    0    0    0  0.42005202421E-02 -0.29751362975E-03  0.23269670357E-03  0.42174675363E-02  0.00000000000E+00 0.  1.
         14    1    1    0    0    0  0.33127671687E-02  0.33918351792E-02  0.40799910365E-02  0.62550219068E-02  0.00000000000E+00 0.  1.
     999901    1    1    0    0    0 -0.11780542701E-01 -0.12856124371E-01 -0.10034331199E-01  0.90022483243E+00  0.90000000000E+00 0.  1.
     999903    1    1    0    0    0  0.13929217852E-02  0.46616897142E-02  0.37688060327E-02  0.20925474451E-01  0.20000000000E-01 0.  0.
</event>
<event>
 7    1  0.4717691E-066  0.9118800E+02  0.7957747E-01            NaN
     999900   -1    0    0    0    0  0.00000000000E+00  0.00000000000E+00  0.99999998245E-14  0.93827000000E+00  0.93827000000E+00 0.  1.
        -11    1    1    0    0    0 -0.38839764532E-02  0.35406168343E-02  0.70329249443E-03  0.53270049736E-02  0.51100000000E-03 0. -1.
        -14    1    1    0    0    0  0.13388875798E-02 -0.36831179194E-03 -0.10138602277E-02  0.17193563007E-02  0.00000000000E+00 0. -1.
         12    1    1    0    0    0 -0.15720131364E-02 -0.14007871138E-02 -0.32030328390E-02  0.38331252532E-02  0.00000000000E+00 0.  1.
         14    1    1    0    0    0 -0.18504475446E-02 -0.88351699132E-03  0.29593686020E-02  0.36003639972E-02  0.00000000000E+00 0.  1.
     999901    1    1    0    0    0  0.78896146323E-02  0.81777946758E-02 -0.81032163358E-02  0.90010820708E+00  0.90000000000E+00 0. -1.
     999903    1    1    0    0    0 -0.19220650779E-02 -0.90657956130E-02  0.86574483060E-02  0.23681942391E-01  0.20000000000E-01 0.  0.
</event>
<event>
 7    1  0.4717691E-066  0.9118800E+02  0.7957747E-01            NaN
     999900   -1    0    0    0    0  0.00000000000E+00  0.00000000000E+00  0.99999998245E-14  0.93827000000E+00  0.93827000000E+00 0. -1.
        -11    1    1    0    0    0 -0.39796527106E-02 -0.83570697295E-03  0.84848141610E-03  0.41853415100E-02  0.51100000000E-03 0. -1.
        -14    1    1    0    0    0  0.17317953163E-03  0.99039801650E-03 -0.11840530921E-03  0.10123730530E-02  0.00000000000E+00 0. -1.
         12    1    1    0    0    0 -0.70589260534E-02  0.43713784125E-02 -0.41509578221E-02  0.92826632543E-02  0.00000000000E+00 0.  1.
         14    1    1    0    0    0  0.83525025549E-03 -0.10644341491E-02  0.17104816487E-02  0.21809196495E-02  0.00000000000E+00 0.  1.
     999901    1    1    0    0    0  0.74893864222E-02 -0.10642931080E-01 -0.49107561811E-03  0.90009421954E+00  0.90000000000E+00 0. -1.
     999903    1    1    0    0    0  0.25407625547E-02  0.71812957735E-02  0.22014756846E-02  0.21514482995E-01  0.20000000000E-01 0.  0.
</event>
<event>
 7    1  0.4717691E-066  0.9118800E+02  0.7957747E-01            NaN
     999900   -1    0    0    0    0  0.00000000000E+00  0.00000000000E+00  0.99999998245E-14  0.93827000000E+00  0.93827000000E+00 0.  1.
        -11    1    1    0    0    0 -0.33120477159E-02  0.33706166925E-02  0.37057007643E-02  0.60269441772E-02  0.51100000000E-03 0. -1.
        -14    1    1    0    0    0 -0.93275488285E-05  0.19561325129E-03 -0.82783240350E-03  0.85068092463E-03  0.00000000000E+00 0. -1.
         12    1    1    0    0    0  0.71576862422E-03  0.21058926505E-02  0.47264524631E-03  0.22738738109E-02  0.00000000000E+00 0.  1.
         14    1    1    0    0    0  0.11339841305E-02 -0.15831354977E-02 -0.25074823596E-03  0.19634440889E-02  0.00000000000E+00 0.  1.
     999901    1    1    0    0    0 -0.89766887680E-02  0.52884426443E-02 -0.14531297208E-01  0.90017759757E+00  0.90000000000E+00 0. -1.
     999903    1    1    0    0    0  0.10448311278E-01 -0.93774297409E-02  0.11431531837E-01  0.26977459429E-01  0.20000000000E-01 0.  0.
</event>
<event>
 7    1  0.4717691E-066  0.9118800E+02  0.7957747E-01            NaN
     999900   -1    0    0    0    0  0.00000000000E+00  0.00000000000E+00  0.99999998245E-14  0.93827000000E+00  0.93827000000E+00 0. -1.
        -11    1    1    0    0    0 -0.27181667635E-02  0.27009053274E-02  0.50792825180E-03  0.38990296550E-02  0.51100000000E-03 0. -1.
        -14    1    1    0    0    0  0.26257945692E-02  0.69595056553E-04 -0.13921262574E-04  0.26267535844E-02  0.00000000000E+00 0. -1.
         12    1    1    0    0    0 -0.16250860975E-02  0.10613181689E-02 -0.13941875926E-02  0.23897824427E-02  0.00000000000E+00 0.  1.
         14    1    1    0    0    0 -0.18845065739E-03 -0.52537826226E-03  0.15817697489E-02  0.16773584910E-02  0.00000000000E+00 0.  1.
     999901    1    1    0    0    0 -0.51285697812E-02 -0.37415109363E-02  0.16823757286E-01  0.90017961538E+00  0.90000000000E+00 0. -1.
     999903    1    1    0    0    0  0.70344787304E-02  0.43507064571E-03 -0.17505346432E-01  0.27497460449E-01  0.20000000000E-01 0.  0.
</event>
<event>
 7    1  0.4717691E-066  0.9118800E+02  0.7957747E-01            NaN
     999900   -1    0    0    0    0  0.00000000000E+00  0.00000000000E+00  0.99999998245E-14  0.93827000000E+00  0.93827000000E+00 0. -1.
        -11    1    1    0    0    0 -0.14128788810E-03  0.31592486219E-02 -0.16874757813E-02  0.36207056819E-02  0.51100000000E-03 0. -1.
        -14    1    1    0    0    0 -0.31901517840E-02 -0.53004593194E-02  0.17652252397E-02  0.64333473051E-02  0.00000000000E+00 0. -1.
         12    1    1    0    0    0 -0.34288741904E-02 -0.13285829032E-03 -0.18547292547E-02  0.39006217642E-02  0.00000000000E+00 0.  1.
         14    1    1    0    0    0 -0.39630218687E-03 -0.13915211772E-02  0.23414482336E-02  0.27524110232E-02  0.00000000000E+00 0.  1.
     999901    1    1    0    0    0  0.11817811144E-02  0.92311677454E-03  0.40499349032E-02  0.90001036145E+00  0.90000000000E+00 0. -1.
     999903    1    1    0    0    0  0.59748349350E-02  0.27424733905E-02 -0.46144033406E-02  0.21552552772E-01  0.20000000000E-01 0.  0.
</event>
<event>
 7    1  0.4717691E-066  0.9118800E+02  0.7957747E-01            NaN
     999900   -1    0    0    0    0  0.00000000000E+00  0.00000000000E+00  0.99999998245E-14  0.93827000000E+00  0.93827000000E+00 0.  1.
        -11    1    1    0    0    0  0.13015700786E-02 -0.46610672974E-04  0.15073648922E-02  0.20565814213E-02  0.51100000000E-03 0. -1.
        -14    1    1    0    0    0 -0.14665771770E-04 -0.17655955834E-02  0.61085638765E-03  0.18683383996E-02  0.00000000000E+00 0. -1.
         12    1    1    0    0    0  0.25037865576E-02  0.91997334452E-03 -0.34043471735E-02  0.43249136128E-02  0.00000000000E+00 0.  1.
         14    1    1    0    0    0  0.10867023675E-02  0.79818053497E-02 -0.68791743754E-03  0.80847615349E-02  0.00000000000E+00 0.  1.
     999901    1    1    0    0    0 -0.12717447562E-01 -0.60325869607E-02 -0.17259105118E-02  0.90011171770E+00  0.90000000000E+00 0.  1.
     999903    1    1    0    0    0  0.78400543300E-02 -0.10569854771E-02  0.36999538430E-02  0.21823687329E-01  0.20000000000E-01 0.  0.
</event>
<event>
 7    1  0.4717691E-066  0.9118800E+02  0.7957747E-01            NaN
     999900   -1    0    0    0    0  0.00000000000E+00  0.00000000000E+00  0.99999998245E-14  0.93827000000E+00  0.93827000000E+00 0.  1.
        -11    1    1    0    0    0 -0.16041857046E-02 -0.49593585879E-03 -0.37511131642E-02  0.41414170427E-02  0.51100000000E-03 0. -1.
        -14    1    1    0    0    0  0.10297680551E-02 -0.67915672510E-02  0.26690521334E-02  0.73695079391E-02  0.00000000000E+00 0. -1.
         12    1    1    0    0    0  0.12127351197E-02  0.16242596423E-02 -0.87648282720E-03  0.22084311179E-02  0.00000000000E+00 0.  1.
         14    1    1    0    0    0 -0.30893941051E-02 -0.20005279457E-02  0.18182710911E-02  0.41051891258E-02  0.00000000000E+00 0.  1.
     999901    1    1    0    0    0 -0.11140300632E-02  0.71967073463E-02  0.20860113166E-02  0.90003188005E+00  0.90000000000E+00 0. -1.
     999903    1    1    0    0    0  0.35651066981E-02  0.46706406695E-03 -0.19457385498E-02  0.20413574727E-01  0.20000000000E-01 0.  0.
</event>
<event>
 7    1  0.4717691E-066  0.9118800E+02  0.7957747E-01            NaN
     999900   -1    0    0    0    0  0.00000000000E+00  0.00000000000E+00  0.99999998245E-14  0.93827000000E+00  0.93827000000E+00 0. -1.
        -11    1    1    0    0    0 -0.27481896008E-02 -0.15127079379E-02  0.70926842856E-02  0.77722662565E-02  0.51100000000E-03 0. -1.
        -14    1    1    0    0    0  0.17581709149E-02  0.37524919217E-03 -0.46950779819E-03  0.18580674086E-02  0.00000000000E+00 0. -1.
         12    1    1    0    0    0 -0.18835141444E-02  0.14302321908E-02  0.10929657734E-02  0.26053337279E-02  0.00000000000E+00 0.  1.
         14    1    1    0    0    0 -0.20610680147E-02  0.15536261410E-02  0.17136312486E-02  0.30981103278E-02  0.00000000000E+00 0. -1.
     999901    1    1    0    0    0  0.68871083217E-02  0.42657695549E-02 -0.30695458153E-03  0.90003651219E+00  0.90000000000E+00 0.  1.
     999903    1    1    0    0    0 -0.19525074767E-02 -0.61121691410E-02 -0.91228189279E-02  0.22899710091E-01  0.20000000000E-01 0.  0.
</event>
<event>
 7    1  0.4717691E-066  0.9118800E+02  0.7957747E-01            NaN
     999900   -1    0    0    0    0  0.00000000000E+00  0.00000000000E+00  0.99999998245E-14  0.93827000000E+00  0.93827000000E+00 0. -1.
        -11    1    1    0    0    0  0.27312183230E-02 -0.78500816703E-03  0.63398091009E-03  0.29561536064E-02  0.51100000000E-03 0. -1.
        -14    1    1    0    0    0  0.54406177599E-03 -0.36839537424E-03  0.10757512982E-02  0.12605392590E-02  0.00000000000E+00 0. -1.
         12    1    1    0    0    0 -0.16776882583E-02  0.12191498493E-02 -0.46454161769E-02  0.50873230391E-02  0.00000000000E+00 0.  1.
         14    1    1    0    0    0  0.38459672214E-02  0.44186083339E-02  0.51639182435E-02  0.78090726147E-02  0.00000000000E+00 0.  1.
     999901    1    1    0    0    0 -0.38625543182E-02  0.21663419546E-02 -0.16279181124E-02  0.90001236796E+00  0.90000000000E+00 0. -1.
     999903    1    1    0    0    0 -0.15810047438E-02 -0.66506965965E-02 -0.60031616248E-03  0.21144543521E-01  0.20000000000E-01 0.  0.
</event>
<event>
 7    1  0.4717691E-066  0.9118800E+02  0.7957747E-01            NaN
     999900   -1    0    0    0    0  0.00000000000E+00  0.00000000000E+00  0.99999998245E-14  0.93827000000E+00  0.93827000000E+00 0.  1.
        -11    1    1    0    0    0 -0.50721106318E-03  0.32330008060E-02 -0.71464601940E-03  0.33884210493E-02  0.51100000000E-03 0. -1.
        -14    1    1    0    0    0  0.88473298662E-03 -0.21387461427E-02  0.22373094045E-02  0.32190900721E-02  0.00000000000E+00 0. -1.
         12    1    1    0    0    0 -0.31243770626E-02  0.56880632006E-03  0.15309853076E-02  0.35255054490E-02  0.00000000000E+00 0.  1.
         14    1    1    0    0    0  0.35077886425E-02 -0.44423005806E-02 -0.42499701258E-02  0.70781962165E-02  0.00000000000E+00 0.  1.
     999901    1    1    0    0    0 -0.63150196337E-02  0.49153166284E-02  0.36954690827E-02  0.90004316358E+00  0.90000000000E+00 0.  1.
     999903    1    1    0    0    0  0.55540861303E-02 -0.21360770311E-02 -0.24991476496E-02  0.21015623636E-01  0.20000000000E-01 0.  0.
</event>
<event>
 7    1  0.4717691E-066  0.9118800E+02  0.7957747E-01            NaN
     999900   -1    0    0    0    0  0.00000000000E+00  0.00000000000E+00  0.99999998245E-14  0.93827000000E+00  0.93827000000E+00 0. -1.
        -11    1    1    0    0    0  0.47316072838E-02 -0.60311262568E-05 -0.33201105856E-03  0.47706913760E-02  0.51100000000E-03 0. -1.
        -14    1    1    0    0    0 -0.15936875371E-02 -0.12890460271E-02 -0.34152237053E-04  0.20500356098E-02  0.00000000000E+00 0. -1.
         12    1    1    0    0    0 -0.33260430233E-02  0.59337050223E-03  0.78615770095E-03  0.34688174753E-02  0.00000000000E+00 0.  1.
         14    1    1    0    0    0 -0.24747260993E-02  0.28915882303E-02 -0.21928612790E-02  0.43925154922E-02  0.00000000000E+00 0. -1.
     999901    1    1    0    0    0  0.11172383963E-01 -0.23704342225E-02  0.10582571432E-01  0.90013467433E+00  0.90000000000E+00 0. -1.
     999903    1    1    0    0    0 -0.85095345873E-02  0.18055264335E-03 -0.88097045583E-02  0.23453265712E-01  0.20000000000E-01 0.  0.
</event>
<event>
 7    1  0.4717691E-066  0.9118800E+02  0.7957747E-01            NaN
     999900   -1    0    0    0    0  0.00000000000E+00  0.00000000000E+00  0.99999998245E-14  0.93827000000E+00  0.93827000000E+00 0. -1.
        -11    1    1    0    0    0  0.29726617817E-02 -0.52726358854E-03 -0.32914433753E-02  0.44954916809E-02  0.51100000000E-03 0. -1.
        -14    1    1    0    0    0 -0.41633777433E-03  0.52241314754E-03 -0.19675549045E-02  0.20778654772E-02  0.00000000000E+00 0. -1.
         12    1    1    0    0    0  0.12310495566E-02 -0.10696196254E-02 -0.18226147199E-02  0.24457092164E-02  0.00000000000E+00 0.  1.
         14    1    1    0    0    0 -0.26357683219E-02 -0.66352835059E-03  0.41305593082E-03  0.27492107451E-02  0.00000000000E+00 0.  1.
     999901    1    1    0    0    0  0.36745040708E-02  0.65324234459E-02  0.22161845387E-01  0.90030401639E+00  0.90000000000E+00 0. -1.
     999903    1    1    0    0    0 -0.48261093129E-02 -0.47944250289E-02 -0.15493288319E-01  0.26197706491E-01  0.20000000000E-01 0.  0.
</event>
<event>
 7    1  0.4717691E-066  0.9118800E+02  0.7957747E-01            NaN
     999900   -1    0    0    0    0  0.00000000000E+00  0.00000000000E+00  0.99999998245E-14  0.93827000000E+00  0.93827000000E+00 0. -1.
        -11    1    1    0    0    0 -0.87388502765E-03 -0.12431818183E-02 -0.34013070839E-02  0.37602110252E-02  0.51100000000E-03 0. -1.
        -14    1    1    0    0    0  0.23126836702E-02 -0.21805680541E-02  0.12868098365E-02  0.34291780870E-02  0.00000000000E+00 0. -1.
         12    1    1    0    0    0  0.18997010572E-02 -0.15534691693E-02 -0.66530246148E-03  0.25425888248E-02  0.00000000000E+00 0.  1.
         14    1    1    0    0    0  0.31426918593E-02  0.56918453510E-02 -0.27751676344E-02  0.70693119199E-02  0.00000000000E+00 0.  1.
     999901    1    1    0    0    0 -0.48409066553E-02 -0.26591023086E-02  0.12620264692E-01  0.90010542509E+00  0.90000000000E+00 0. -1.
     999903    1    1    0    0    0 -0.16402849037E-02  0.19444759993E-02 -0.70652973486E-02  0.21363285049E-01  0.20000000000E-01 0.  0.
</event>
<event>
 7    1  0.4717691E-066  0.9118800E+02  0.7957747E-01            NaN
     999900   -1    0    0    0    0  0.00000000000E+00  0.00000000000E+00  0.99999998245E-14  0.93827000000E+00  0.93827000000E+00 0.  1.
        -11    1    1    0    0    0 -0.17435640386E-02 -0.12954484864E-02 -0.13714828103E-02  0.26192152329E-02  0.51100000000E-03 0. -1.
        -14    1    1    0    0    0  0.17397652940E-03 -0.39225096572E-02 -0.21701881822E-02  0.44862084871E-02  0.00000000000E+00 0. -1.
         12    1    1    0    0    0  0.24587115570E-02 -0.22991687202E-02  0.10752076596E-03  0.33679370599E-02  0.00000000000E+00 0.  1.
         14    1    1    0    0    0 -0.18063647096E-02  0.13170648395E-02 -0.14430565898E-02  0.26608317453E-02  0.00000000000E+00 0.  1.
     999901    1    1    0    0    0 -0.59044012054E-03 -0.82705372413E-02  0.88799558419E-02  0.90008199850E+00  0.90000000000E+00 0.  1.
     999903    1    1    0    0    0  0.15076807824E-02  0.14470599266E-01 -0.40027490256E-02  0.25053808976E-01  0.20000000000E-01 0.  0.
</event>
<event>
 7    1  0.4717691E-066  0.9118800E+02  0.7957747E-01            NaN
     999900   -1    0    0    0    0  0.00000000000E+00  0.00000000000E+00  0.99999998245E-14  0.93827000000E+00  0.93827000000E+00 0. -1.
        -11    1    1    0    0    0 -0.61543638057E-03 -0.39734197578E-03 -0.20191298291E-02  0.22078606955E-02  0.51100000000E-03 0. -1.
        -14    1    1    0    0    0 -0.15148954662E-02  0.50506051751E-02  0.74005631797E-03  0.53245848910E-02  0.00000000000E+00 0. -1.
         12    1    1    0    0    0 -0.54604414750E-04 -0.13831251649E-02  0.28389955290E-02  0.31584667922E-02  0.00000000000E+00 0.  1.
         14    1    1    0    0    0 -0.29149307907E-03  0.80064588998E-04 -0.11570106406E-02  0.11958478900E-02  0.00000000000E+00 0.  1.
     999901    1    1    0    0    0 -0.13697297491E-01 -0.54508139983E-02 -0.51915744913E-02  0.90013570076E+00  0.90000000000E+00 0.  1.
     999903    1    1    0    0    0  0.16173726832E-01  0.21006113749E-02  0.47886631139E-02  0.26247538974E-01  0.20000000000E-01 0.  0.
</event>
<event>
 7    1  0.4717691E-066  0.9118800E+02  0.7957747E-01            NaN
     999900   -1    0    0    0    0  0.00000000000E+00  0.00000000000E+00  0.99999998245E-14  0.93827000000E+00  0.93827000000E+00 0. -1.
        -11    1    1    0    0    0  0.26828158594E-02  0.54378462498E-03 -0.61739966922E-02  0.67729283777E-02  0.51100000000E-03 0. -1.
        -14    1    1    0    0    0 -0.64757297950E-03  0.28254616528E-03  0.58904943602E-03  0.91987082646E-03  0.00000000000E+00 0. -1.
         12    1    1    0    0    0 -0.18681361878E-02 -0.44269969723E-02 -0.50540611302E-03  0.48315287796E-02  0.00000000000E+00 0.  1.
         14    1    1    0    0    0 -0.14790477936E-02 -0.15889672155E-02  0.21370611660E-02  0.30462156219E-02  0.00000000000E+00 0.  1.
     999901    1    1    0    0    0 -0.71803716485E-02  0.10128714694E-01  0.97021302770E-04  0.90008563927E+00  0.90000000000E+00 0.  1.
     999903    1    1    0    0    0  0.84923127500E-02 -0.49390812962E-02  0.38562709004E-02  0.22613817129E-01  0.20000000000E-01 0.  0.
</event>
<event>
 7    1  0.4717691E-066  0.9118800E+02  0.7957747E-01            NaN
     999900   -1    0    0    0    0  0.00000000000E+00  0.00000000000E+00  0.99999998245E-14  0.93827000000E+00  0.93827000000E+00 0.  1.
        -11    1    1    0    0    0  0.61875105687E-03  0.15210687409E-02  0.77104941636E-03  0.18847124947E-02  0.51100000000E-03 0. -1.
        -14    1    1    0    0    0  0.38854760921E-02 -0.13313129537E-02  0.83072974048E-03  0.41903974209E-02  0.00000000000E+00 0. -1.
         12    1    1    0    0    0  0.55524046238E-03 -0.30496000864E-02  0.23644501205E-02  0.38985865426E-02  0.00000000000E+00 0.  1.
         14    1    1    0    0    0 -0.46009764374E-02 -0.32015988745E-02 -0.35179994411E-02  0.66178198524E-02  0.00000000000E+00 0.  1.
     999901    1    1    0    0    0  0.76587213042E-02  0.69341074405E-02  0.40882522134E-03  0.90005938970E+00  0.90000000000E+00 0.  1.
     999903    1    1    0    0    0 -0.81172124782E-02 -0.87266426690E-03 -0.85705505762E-03  0.21619093985E-01  0.20000000000E-01 0.  0.
</event>
<event>
 7    1  0.4717691E-066  0.9118800E+02  0.7957747E-01            NaN
     999900   -1    0    0    0    0  0.00000000000E+00  0.00000000000E+00  0.99999998245E-14  0.93827000000E+00  0.93827000000E+00 0.  1.
        -11    1    1    0    0    0  0.11262044902E-02  0.38998304044E-02 -0.42601969739E-03  0.41133474834E-02  0.51100000000E-03 0. -1.
        -14    1    1    0    0    0 -0.57586594566E-03 -0.24905933402E-02 -0.49357642523E-03  0.26035157886E-02  0.00000000000E+00 0. -1.
         12    1    1    0    0    0  0.28119738760E-02  0.76512711493E-03 -0.27643680215E-02  0.40167582874E-02  0.00000000000E+00 0.  1.
         14    1    1    0    0    0  0.47803532601E-03 -0.10888640853E-03  0.22545787264E-02  0.23072709542E-02  0.00000000000E+00 0.  1.
     999901    1    1    0    0    0  0.73352446614E-02 -0.80171296717E-02  0.98079153601E-02  0.90011903401E+00  0.90000000000E+00 0.  1.
     999903    1    1    0    0    0 -0.11175592408E-01  0.59516519012E-02 -0.83785299423E-02  0.25110073477E-01  0.20000000000E-01 0.  0.
</event>
<event>
 7    1  0.4717691E-066  0.9118800E+02  0.7957747E-01            NaN
     999900   -1    0    0    0    0  0.00000000000E+00  0.00000000000E+00  0.99999998245E-14  0.93827000000E+00  0.93827000000E+00 0. -1.
        -11    1    1    0    0    0 -0.12308262758E-02 -0.10960910840E-02 -0.17001939841E-02  0.24224222525E-02  0.51100000000E-03 0. -1.
        -14    1    1    0    0    0  0.30947505108E-02  0.11733983029E-02  0.31856804945E-03  0.33250308124E-02  0.00000000000E+00 0. -1.
         12    1    1    0    0    0  0.37947989476E-02 -0.19474406822E-02  0.50519258275E-02  0.66117303961E-02  0.00000000000E+00 0.  1.
         14    1    1    0    0    0 -0.17696710158E-02 -0.29504275468E-02 -0.23748755345E-02  0.41805253279E-02  0.00000000000E+00 0.  1.
     999901    1    1    0    0    0 -0.76067232016E-02  0.11301773987E-01 -0.46695032577E-02  0.90011521296E+00  0.90000000000E+00 0.  1.
     999903    1    1    0    0    0  0.37176710348E-02 -0.64812129773E-02  0.33740788992E-02  0.21615078256E-01  0.20000000000E-01 0.  0.
</event>
<event>
 7    1  0.4717691E-066  0.9118800E+02  0.7957747E-01            NaN
     999900   -1    0    0    0    0  0.00000000000E+00  0.00000000000E+00  0.99999998245E-14  0.93827000000E+00  0.93827000000E+00 0. -1.
        -11    1    1    0    0    0  0.67860351447E-03 -0.21069460395E-04  0.17565487943E-02  0.19512896552E-02  0.51100000000E-03 0. -1.
        -14    1    1    0    0    0 -0.84173814900E-04 -0.32985790515E-03 -0.25389395744E-02  0.25616607174E-02  0.00000000000E+00 0. -1.
         12    1    1    0    0    0 -0.27230633337E-02  0.21267601943E-02  0.57040466942E-02  0.66689078216E-02  0.00000000000E+00 0.  1.
         14    1    1    0    0    0 -0.10375680646E-03 -0.40459089045E-02 -0.28336813683E-02  0.49406370475E-02  0.00000000000E+00 0.  1.
     999901    1    1    0    0    0  0.30736975385E-02  0.10041865364E-01 -0.71323635050E-02  0.90008952737E+00  0.90000000000E+00 0.  1.
     999903    1    1    0    0    0 -0.84130709788E-03 -0.77717892882E-02  0.50443889592E-02  0.22057977386E-01  0.20000000000E-01 0.  0.
</event>
<event>
 7    1  0.4717691E-066  0.9118800E+02  0.7957747E-01            NaN
     999900   -1    0    0    0    0  0.00000000000E+00  0.00000000000E+00  0.99999998245E-14  0.93827000000E+00  0.93827000000E+00 0.  1.
        -11    1    1    0    0    0 -0.35180315060E-02  0.24190758998E-02  0.25751188199E-02  0.50120686171E-02  0.51100000000E-03 0. -1.
        -14    1    1    0    0    0 -0.84194429092E-03 -0.86706500955E-03 -0.38661437098E-02  0.40506467514E-02  0.00000000000E+00 0. -1.
         12    1    1    0    0    0  0.12252510298E-02 -0.72076811380E-03  0.10491017463E-02  0.17667374547E-02  0.00000000000E+00 0.  1.
         14    1    1    0    0    0 -0.31855671121E-02  0.41306344750E-02 -0.70787044354E-03  0.52641295156E-02  0.00000000000E+00 0.  1.
     999901    1    1    0    0    0  0.11538620803E-01 -0.10329603490E-01  0.63237737131E-02  0.90015544802E+00  0.90000000000E+00 0. -1.
     999903    1    1    0    0    0 -0.52183289236E-02  0.53677262390E-02 -0.53739801260E-02  0.22020969645E-01  0.20000000000E-01 0.  0.
</event>
<event>
 7    1  0.4717691E-066  0.9118800E+02  0.7957747E-01            NaN
     999900   -1    0    0    0    0  0.00000000000E+00  0.00000000000E+00  0.99999998245E-14  0.93827000000E+00  0.93827000000E+00 0. -1.
        -11    1    1    0    0    0 -0.43411369898E-02 -0.32594613743E-02  0.37290928780E-03  0.54653216879E-02  0.51100000000E-03 0. -1.
        -14    1    1    0    0    0  0.38174529495E-02  0.22006926649E-02 -0.35268778659E-03  0.44204506446E-02  0.00000000000E+00 0. -1.
         12    1    1    0    0    0 -0.31808946374E-02  0.13167657183E-02  0.60755058114E-03  0.34958661816E-02  0.00000000000E+00 0.  1.
         14    1    1    0    0    0  0.43198123881E-02  0.15118443642E-02 -0.11407123985E-02  0.47167443461E-02  0.00000000000E+00 0.  1.
     999901    1    1    0    0    0 -0.14299128728E-02 -0.40240727504E-02 -0.34586099904E-03  0.90001019852E+00  0.90000000000E+00 0. -1.
     999903    1    1    0    0    0  0.81467916242E-03  0.22542313773E-02  0.85880131518E-03  0.20161418624E-01  0.20000000000E-01 0.  0.
</event>
<event>
 7    1  0.4717691E-066  0.9118800E+02  0.7957747E-01            NaN
     999900   -1    0    0    0    0  0.00000000000E+00  0.00000000000E+00  0.99999998245E-14  0.93827000000E+00  0.93827000000E+00 0.  1.
        -11    1    1    0    0    0 -0.40907980431E-03  0.10416856776E-02  0.13566555398E-02  0.18314176452E-02  0.51100000000E-03 0. -1.
        -14    1    1    0    0    0  0.50017507959E-02  0.56613698537E-02 -0.28454431523E-02  0.80724944334E-02  0.00000000000E+00 0. -1.
         12    1    1    0    0    0 -0.12442696976E-02 -0.48716194800E-03 -0.90375117559E-03  0.16131646014E-02  0.00000000000E+00 0.  1.
         14    1    1    0    0    0 -0.40185180484E-02  0.27962423387E-02  0.30843694670E-03  0.49053635820E-02  0.00000000000E+00 0.  1.
     999901    1    1    0    0    0  0.55882194569E-02 -0.13138226497E-01 -0.34726281169E-02  0.90011993664E+00  0.90000000000E+00 0. -1.
     999903    1    1    0    0    0 -0.49181027025E-02  0.41260905748E-02  0.55567299583E-02  0.21727623097E-01  0.20000000000E-01 0.  0.
</event>
<event>
 7    1  0.4717691E-066  0.9118800E+02  0.7957747E-01            NaN
     999900   -1    0    0    0    0  0.00000000000E+00  0.00000000000E+00  0.99999998245E-14  0.93827000000E+00  0.93827000000E+00 0.  1.
        -11    1    1    0    0    0  0.17911961284E-02  0.10848548524E-02  0.43694643979E-02  0.48722308798E-02  0.51100000000E-03 0. -1.
        -14    1    1    0    0    0  0.31077638262E-03 -0.25667117171E-02 -0.15135963942E-02  0.29959247392E-02  0.00000000000E+00 0. -1.
         12    1    1    0    0    0 -0.29177998445E-02  0.39775839104E-03  0.40353893985E-02  0.49956116010E-02  0.00000000000E+00 0.  1.
         14    1    1    0    0    0 -0.24377657030E-03  0.20782583057E-02 -0.28999503942E-02  0.35760728306E-02  0.00000000000E+00 0.  1.
     999901    1    1    0    0    0  0.58593293614E-02 -0.61705238729E-02  0.10031680265E-02  0.90004078433E+00  0.90000000000E+00 0.  1.
     999903    1    1    0    0    0 -0.47997254576E-02  0.51763640409E-02 -0.49944750346E-02  0.21789375623E-01  0.20000000000E-01 0.  0.
</event>
<event>
 7    1  0.5712874E-066  0.9118800E+02  0.7957747E-01            NaN
     999900   -1    0    0    0    0  0.00000000000E+00  0.00000000000E+00  0.99999998245E-14  0.93827000000E+00  0.93827000000E+00 0.  1.
        -11    1    1    0    0    0  0.18585534430E-02 -0.95381300421E-03  0.75621333419E-03  0.22796841347E-02  0.51100000000E-03 0. -1.
        -14    1    1    0    0    0 -0.29205782411E-02  0.79004852510E-03 -0.64126576622E-02  0.70905664250E-02  0.00000000000E+00 0. -1.
         12    1    1    0    0    0  0.29712872778E-02 -0.33393372079E-02 -0.30540828664E-02  0.54136072290E-02  0.00000000000E+00 0.  1.
         14    1    1    0    0    0 -0.19523771425E-02  0.50043832179E-03  0.13891107053E-02  0.24478242527E-02  0.00000000000E+00 0.  1.
     999901    1    1    0    0    0  0.23314367235E-02  0.87387227921E-02  0.60099592037E-02  0.90006550900E+00  0.90000000000E+00 0. -1.
     999903    1    1    0    0    0 -0.22883220607E-02 -0.57360594268E-02  0.13114572854E-02  0.20972808963E-01  0.20000000000E-01 0.  0.
</event>
<event>
 7    1  0.4717691E-066  0.9118800E+02  0.7957747E-01            NaN
     999900   -1    0    0    0    0  0.00000000000E+00  0.00000000000E+00  0.99999998245E-14  0.93827000000E+00  0.93827000000E+00 0. -1.
        -11    1    1    0    0    0  0.44973715130E-02 -0.49923108256E-02 -0.29631663288E-02  0.73614532259E-02  0.51100000000E-03 0. -1.
        -14    1    1    0    0    0 -0.88362805607E-03  0.95969973941E-04  0.25519053656E-03  0.92473292757E-03  0.00000000000E+00 0. -1.
         12    1    1    0    0    0 -0.82106727581E-03  0.62898180262E-04 -0.22749462640E-02  0.24193983047E-02  0.00000000000E+00 0.  1.
         14    1    1    0    0    0 -0.10617320130E-04  0.36780198588E-03  0.11907896479E-03  0.38674387928E-03  0.00000000000E+00 0.  1.
     999901    1    1    0    0    0 -0.62950559076E-02  0.17424028602E-02 -0.12817582256E-01  0.90011496716E+00  0.90000000000E+00 0.  1.
     999903    1    1    0    0    0  0.35129970466E-02  0.27232378252E-02  0.17681425347E-01  0.27062704499E-01  0.20000000000E-01 0.  0.
</event>
<event>
 7    1  0.4717691E-066  0.9118800E+02  0.7957747E-01            NaN
     999900   -1    0    0    0    0  0.00000000000E+00  0.00000000000E+00  0.99999998245E-14  0.93827000000E+00  0.93827000000E+00 0.  1.
        -11    1    1    0    0    0 -0.45770005475E-02 -0.42701554507E-02  0.28733096823E-02  0.69065324958E-02  0.51100000000E-03 0. -1.
        -14    1    1    0    0    0  0.63262615911E-03  0.21013313254E-03  0.59587696165E-03  0.89411472642E-03  0.00000000000E+00 0. -1.
         12    1    1    0    0    0  0.31948943702E-02 -0.44809273724E-03  0.29118623399E-02  0.43459267624E-02  0.00000000000E+00 0.  1.
         14    1    1    0    0    0  0.22114478364E-03  0.41595413181E-03 -0.31023352145E-02  0.31378984430E-02  0.00000000000E+00 0.  1.
     999901    1    1    0    0    0 -0.15022489838E-02 -0.34023490344E-02 -0.11305679646E-01  0.90007869163E+00  0.90000000000E+00 0. -1.
     999903    1    1    0    0    0  0.20305842184E-02  0.74945099580E-02  0.80269658770E-02  0.22906835944E-01  0.20000000000E-01 0.  0.
</event>
<event>
 7    1  0.4717691E-066  0.9118800E+02  0.7957747E-01            NaN
     999900   -1    0    0    0    0  0.00000000000E+00  0.00000000000E+00  0.99999998245E-14  0.93827000000E+00  0.93827000000E+00 0. -1.
        -11    1    1    0    0    0 -0.30298058530E-02  0.34034755680E-04 -0.39309412497E-03  0.30978259897E-02  0.51100000000E-03 0. -1.
        -14    1    1    0    0    0  0.62812835577E-03  0.20317198811E-02  0.84641724302E-02  0.87272358645E-02  0.00000000000E+00 0. -1.
         12    1    1    0    0    0 -0.44255903144E-03  0.87452986672E-03  0.64743725427E-03  0.11746641998E-02  0.00000000000E+00 0.  1.
         14    1    1    0    0    0  0.31079388783E-02 -0.79630747977E-03 -0.13251060115E-02  0.34712095320E-02  0.00000000000E+00 0.  1.
     999901    1    1    0    0    0 -0.77224491741E-02 -0.46424218953E-02 -0.10355103289E-01  0.90010466973E+00  0.90000000000E+00 0.  1.
     999903    1    1    0    0    0  0.74587468244E-02  0.24984448715E-02  0.29616937414E-02  0.21694394686E-01  0.20000000000E-01 0.  0.
</event>
<event>
 7    1  0.4717691E-066  0.9118800E+02  0.7957747E-01            NaN
     999900   -1    0    0    0    0  0.00000000000E+00  0.00000000000E+00  0.99999998245E-14  0.93827000000E+00  0.93827000000E+00 0. -1.
        -11    1    1    0    0    0 -0.17177078849E-02 -0.60253436247E-03 -0.62481010474E-02  0.65278982632E-02  0.51100000000E-03 0. -1.
        -14    1    1    0    0    0 -0.26541949117E-03  0.31369515128E-02 -0.16204639371E-02  0.35407366001E-02  0.00000000000E+00 0. -1.
         12    1    1    0    0    0  0.65284451432E-03  0.47831363051E-02 -0.16703488112E-02  0.51082936510E-02  0.00000000000E+00 0.  1.
         14    1    1    0    0    0 -0.53118374598E-04 -0.14819933324E-03  0.45330651536E-03  0.47986602397E-03  0.00000000000E+00 0.  1.
     999901    1    1    0    0    0 -0.13279160260E-02 -0.11635825119E-01  0.17622070983E-01  0.90024868407E+00  0.90000000000E+00 0. -1.
     999903    1    1    0    0    0  0.27113172623E-02  0.44664709965E-02 -0.85364637026E-02  0.22364521390E-01  0.20000000000E-01 0.  0.
</event>
<event>
 7    1  0.4717691E-066  0.9118800E+02  0.7957747E-01            NaN
     999900   -1    0    0    0    0  0.00000000000E+00  0.00000000000E+00  0.99999998245E-14  0.93827000000E+00  0.93827000000E+00 0.  1.
        -11    1    1    0    0    0  0.23065653536E-03  0.13082998029E-02  0.92027283034E-03  0.16949554253E-02  0.51100000000E-03 0. -1.
        -14    1    1    0    0    0 -0.74909726785E-03  0.12464114099E-02 -0.25203537208E-02  0.29097888235E-02  0.00000000000E+00 0. -1.
         12    1    1    0    0    0 -0.28980133994E-02 -0.49603457804E-02  0.15179807250E-02  0.59420347866E-02  0.00000000000E+00 0.  1.
         14    1    1    0    0    0  0.14476770287E-02 -0.28361360426E-02 -0.11770410469E-02  0.33948287228E-02  0.00000000000E+00 0.  1.
     999901    1    1    0    0    0  0.88590448551E-02 -0.57095505862E-02 -0.33412599394E-02  0.90006791169E+00  0.90000000000E+00 0. -1.
     999903    1    1    0    0    0 -0.68902677519E-02  0.10951321196E-01  0.46004011517E-02  0.24260480547E-01  0.20000000000E-01 0.  0.
</event>
<event>
 7    1  0.4717691E-066  0.9118800E+02  0.7957747E-01            NaN
     999900   -1    0    0    0    0  0.00000000000E+00  0.00000000000E+00  0.99999998245E-14  0.93827000000E+00  0.93827000000E+00 0.  1.
        -11    1    1    0    0    0 -0.11905536804E-02 -0.32647435946E-03  0.30716972202E-02  0.33496937750E-02  0.51100000000E-03 0. -1.
        -14    1    1    0    0    0 -0.17881128655E-02 -0.62819541147E-03 -0.37344531915E-02  0.41878535951E-02  0.00000000000E+00 0. -1.
         12    1    1    0    0    0 -0.46270596597E-03 -0.15331064890E-03 -0.12673675022E-02  0.13578738349E-02  0.00000000000E+00 0.  1.
         14    1    1    0    0    0  0.20664353211E-02 -0.19666298253E-02 -0.17979862041E-02  0.33720234572E-02  0.00000000000E+00 0.  1.
     999901    1    1    0    0    0  0.15305768217E-01  0.92463391299E-02 -0.21570514435E-02  0.90018021207E+00  0.90000000000E+00 0.  1.
     999903    1    1    0    0    0 -0.13930831026E-01 -0.61717288848E-02  0.58851611210E-02  0.25822343270E-01  0.20000000000E-01 0.  0.
</event>
<event>
 7    1  0.4717691E-066  0.9118800E+02  0.7957747E-01            NaN
     999900   -1    0    0    0    0  0.00000000000E+00  0.00000000000E+00  0.99999998245E-14  0.93827000000E+00  0.93827000000E+00 0. -1.
        -11    1    1    0    0    0  0.82558496376E-03  0.57655569325E-03  0.36170395016E-02  0.37892087243E-02  0.51100000000E-03 0. -1.
        -14    1    1    0    0    0 -0.15853592470E-02  0.44765793398E-02 -0.12204104779E-02  0.49033180869E-02  0.00000000000E+00 0. -1.
         12    1    1    0    0    0 -0.32076453663E-02  0.58746472936E-03  0.66742638775E-03  0.33285975406E-02  0.00000000000E+00 0.  1.
         14    1    1    0    0    0  0.13091412561E-02  0.14487893378E-03  0.35070383584E-02  0.37462192650E-02  0.00000000000E+00 0.  1.
     999901    1    1    0    0    0  0.12391755595E-01 -0.64623118409E-02 -0.41479861551E-02  0.90011806052E+00  0.90000000000E+00 0. -1.
     999903    1    1    0    0    0 -0.97334772019E-02  0.67683314473E-03 -0.24231076149E-02  0.22384595865E-01  0.20000000000E-01 0.  0.
</event>
<event>
 7    1  0.4717691E-066  0.9118800E+02  0.7957747E-01            NaN
     999900   -1    0    0    0    0  0.00000000000E+00  0.00000000000E+00  0.99999998245E-14  0.93827000000E+00  0.93827000000E+00 0. -1.
        -11    1    1    0    0    0  0.18361690846E-02 -0.51987457312E-03 -0.14759594343E-02  0.24660421186E-02  0.51100000000E-03 0. -1.
        -14    1    1    0    0    0 -0.12304034305E-02  0.21893240023E-02  0.25910086520E-02  0.36083733210E-02  0.00000000000E+00 0. -1.
         12    1    1    0    0    0  0.10426975895E-02 -0.43344350585E-03  0.16883421777E-02  0.20311550519E-02  0.00000000000E+00 0.  1.
         14    1    1    0    0    0  0.12742698573E-02  0.62041202286E-03 -0.59105386925E-02  0.60780870661E-02  0.00000000000E+00 0.  1.
     999901    1    1    0    0    0  0.86016445162E-02 -0.63809270589E-02 -0.17632561816E-02  0.90006544962E+00  0.90000000000E+00 0.  1.
     999903    1    1    0    0    0 -0.11524377617E-01  0.45245091127E-02  0.48704034787E-02  0.24020892827E-01  0.20000000000E-01 0.  0.
</event>
<event>
 7    1  0.4717691E-066  0.9118800E+02  0.7957747E-01            NaN
     999900   -1    0    0    0    0  0.00000000000E+00  0.00000000000E+00  0.99999998245E-14  0.93827000000E+00  0.93827000000E+00 0.  1.
        -11    1    1    0    0    0  0.12733672508E-02 -0.16674236636E-02 -0.18007664076E-02  0.28116981496E-02  0.51100000000E-03 0. -1.
        -14    1    1    0    0    0 -0.26013360676E-02 -0.20029795165E-02  0.14093177552E-02  0.35728214082E-02  0.00000000000E+00 0. -1.
         12    1    1    0    0    0 -0.29338496955E-02  0.77569555496E-03 -0.12450055918E-02  0.32801244723E-02  0.00000000000E+00 0.  1.
         14    1    1    0    0    0  0.74514639649E-03  0.13827878577E-02 -0.61338767674E-03  0.16862947113E-02  0.00000000000E+00 0.  1.
     999901    1    1    0    0    0  0.21204866875E-02  0.19123600951E-01  0.10442530546E-02  0.90020625361E+00  0.90000000000E+00 0. -1.
     999903    1    1    0    0    0  0.13961854283E-02 -0.17611681184E-01  0.12055888663E-02  0.26712807647E-01  0.20000000000E-01 0.  0.
</event>
<event>
 7    1  0.4717691E-066  0.9118800E+02  0.7957747E-01            NaN
     999900   -1    0    0    0    0  0.00000000000E+00  0.00000000000E+00  0.99999998245E-14  0.93827000000E+00  0.93827000000E+00 0. -1.
        -11    1    1    0    0    0 -0.31479246890E-02  0.27497040026E-02  0.92585132980E-03  0.43114526130E-02  0.51100000000E-03 0. -1.
        -14    1    1    0    0    0  0.14304269692E-02 -0.21545757847E-02 -0.93189655941E-04  0.25878567268E-02  0.00000000000E+00 0. -1.
         12    1    1    0    0    0 -0.88831874039E-03  0.10774101860E-02 -0.50156164138E-03  0.14837408714E-02  0.00000000000E+00 0.  1.
         14    1    1    0    0    0  0.19400826973E-02 -0.30850380252E-02 -0.18203593549E-02  0.40737069937E-02  0.00000000000E+00 0.  1.
     999901    1    1    0    0    0  0.15046110536E-01  0.85422989186E-02  0.17185600041E-02  0.90016793420E+00  0.90000000000E+00 0. -1.
     999903    1    1    0    0    0 -0.14380376773E-01 -0.71297992972E-02 -0.22930068165E-03  0.25645308595E-01  0.20000000000E-01 0.  0.
</event>
<event>
 7    1  0.4717691E-066  0.9118800E+02  0.7957747E-01            NaN
     999900   -1    0    0    0    0  0.00000000000E+00  0.00000000000E+00  0.99999998245E-14  0.93827000000E+00  0.93827000000E+00 0.  1.
        -11    1    1    0    0    0 -0.39519433428E-03 -0.41122257136E-02 -0.38451825261E-02  0.56668446724E-02  0.51100000000E-03 0. -1.
        -14    1    1    0    0    0  0.95266559699E-03 -0.16218534289E-02  0.87514266145E-03  0.20745734410E-02  0.00000000000E+00 0. -1.
         12    1    1    0    0    0 -0.54945660544E-03 -0.50825306178E-03 -0.68814234854E-03  0.10167416722E-02  0.00000000000E+00 0.  1.
         14    1    1    0    0    0  0.36422930274E-02 -0.99173248159E-04  0.43685491818E-02  0.56886163331E-02  0.00000000000E+00 0.  1.
     999901    1    1    0    0    0 -0.65194720485E-02 -0.13951572994E-02  0.90925930211E-02  0.90007062236E+00  0.90000000000E+00 0.  1.
     999903    1    1    0    0    0  0.28691643638E-02  0.77366627518E-02 -0.98029599897E-02  0.23752601526E-01  0.20000000000E-01 0.  0.
</event>
<event>
 7    1  0.4717691E-066  0.9118800E+02  0.7957747E-01            NaN
     999900   -1    0    0    0    0  0.00000000000E+00  0.00000000000E+00  0.99999998245E-14  0.93827000000E+00  0.93827000000E+00 0.  1.
        -11    1    1    0    0    0  0.19773538172E-02 -0.21671952163E-03  0.12113890987E-02  0.23844244626E-02  0.51100000000E-03 0. -1.
        -14    1    1    0    0    0 -0.26447775292E-02  0.30461755495E-03 -0.36262419324E-02  0.44985853983E-02  0.00000000000E+00 0. -1.
         12    1    1    0    0    0  0.23630685218E-03 -0.65956988309E-03 -0.53818262188E-02  0.54272393359E-02  0.00000000000E+00 0.  1.
         14    1    1    0    0    0  0.14977874605E-02  0.24378656850E-02  0.13139098238E-02  0.31484782673E-02  0.00000000000E+00 0.  1.
     999901    1    1    0    0    0  0.94832141745E-02 -0.13104254183E-03  0.46912107405E-02  0.90006219562E+00  0.90000000000E+00 0. -1.
     999903    1    1    0    0    0 -0.10549884775E-01 -0.17351512934E-02  0.17915584882E-02  0.22749076917E-01  0.20000000000E-01 0.  0.
</event>
<event>
 7    1  0.4717691E-066  0.9118800E+02  0.7957747E-01            NaN
     999900   -1    0    0    0    0  0.00000000000E+00  0.00000000000E+00  0.99999998245E-14  0.93827000000E+00  0.93827000000E+00 0. -1.
        -11    1    1    0    0    0 -0.45413271504E-02 -0.28891149389E-03 -0.15794266004E-03  0.45818324961E-02  0.51100000000E-03 0. -1.
        -14    1    1    0    0    0  0.56072208433E-04  0.22960474723E-02 -0.36074497963E-03  0.23248903260E-02  0.00000000000E+00 0. -1.
         12    1    1    0    0    0 -0.65879136258E-02 -0.25573697915E-03 -0.17426961132E-02  0.68193106020E-02  0.00000000000E+00 0.  1.
         14    1    1    0    0    0  0.23038470631E-02 -0.48078091003E-03  0.19967242005E-02  0.30863844716E-02  0.00000000000E+00 0.  1.
     999901    1    1    0    0    0  0.13220719918E-01  0.45566325319E-02  0.16577399999E-02  0.90011015906E+00  0.90000000000E+00 0. -1.
     999903    1    1    0    0    0 -0.44513984138E-02 -0.58272506212E-02 -0.13930804476E-02  0.21347423048E-01  0.20000000000E-01 0.  0.
</event>
<event>
 7    1  0.4717691E-066  0.9118800E+02  0.7957747E-01            NaN
     999900   -1    0    0    0    0  0.00000000000E+00  0.00000000000E+00  0.99999998245E-14  0.93827000000E+00  0.93827000000E+00 0.  1.
        -11    1    1    0    0    0 -0.33851814191E-03  0.27093689772E-02 -0.25206515147E-02  0.37510105099E-02  0.51100000000E-03 0. -1.
        -14    1    1    0    0    0  0.30292200049E-02  0.39625881176E-02  0.87828473795E-03  0.50645495860E-02  0.00000000000E+00 0. -1.
         12    1    1    0    0    0  0.19525944762E-02  0.61773231276E-03 -0.24353045035E-02  0.31819689539E-02  0.00000000000E+00 0.  1.
         14    1    1    0    0    0 -0.13578925608E-02  0.81586743752E-03  0.22422925308E-02  0.27454303262E-02  0.00000000000E+00 0.  1.
     999901    1    1    0    0    0  0.12662586034E-02  0.97160393727E-03 -0.52097151575E-02  0.90001649349E+00  0.90000000000E+00 0. -1.
     999903    1    1    0    0    0 -0.45516623818E-02 -0.90771607823E-02  0.70450939069E-02  0.23510547132E-01  0.20000000000E-01 0.  0.
</event>
<event>
 7    1  0.4717691E-066  0.9118800E+02  0.7957747E-01            NaN
     999900   -1    0    0    0    0  0.00000000000E+00  0.00000000000E+00  0.99999998245E-14  0.93827000000E+00  0.93827000000E+00 0.  1.
        -11    1    1    0    0    0 -0.40193342054E-04  0.25682180380E-02 -0.16768815750E-02  0.31097286396E-02  0.51100000000E-03 0. -1.
        -14    1    1    0    0    0  0.62776033464E-04 -0.21681796810E-02 -0.11165196474E-02  0.24395819483E-02  0.00000000000E+00 0. -1.
         12    1    1    0    0    0 -0.49640113325E-02 -0.74833846001E-02  0.10218199725E-02  0.90380622723E-02  0.00000000000E+00 0.  1.
         14    1    1    0    0    0  0.90676565988E-03 -0.20330316870E-02  0.39201819624E-04  0.22264273141E-02  0.00000000000E+00 0.  1.
     999901    1    1    0    0    0  0.81134391622E-02  0.42947140399E-02 -0.25480870773E-02  0.90005042370E+00  0.90000000000E+00 0.  1.
     999903    1    1    0    0    0 -0.40787761810E-02  0.48216638903E-02  0.42804665075E-02  0.21405776121E-01  0.20000000000E-01 0.  0.
</event>
<event>
 7    1  0.4717691E-066  0.9118800E+02  0.7957747E-01            NaN
     999900   -1    0    0    0    0  0.00000000000E+00  0.00000000000E+00  0.99999998245E-14  0.93827000000E+00  0.93827000000E+00 0. -1.
        -11    1    1    0    0    0 -0.26793361203E-02  0.52134163762E-03 -0.37707833783E-02  0.46830083744E-02  0.51100000000E-03 0. -1.
        -14    1    1    0    0    0 -0.78533589619E-03 -0.53158398054E-03 -0.14493074104E-03  0.95934296157E-03  0.00000000000E+00 0. -1.
         12    1    1    0    0    0  0.18768519685E-02 -0.32116597122E-02 -0.28301547534E-02  0.46740889323E-02  0.00000000000E+00 0.  1.
         14    1    1    0    0    0 -0.26950459076E-03 -0.31634325421E-03  0.64236893470E-02  0.64371181910E-02  0.00000000000E+00 0.  1.
     999901    1    1    0    0    0 -0.41838325910E-02  0.82825406750E-02  0.16750407228E-02  0.90004939348E+00  0.90000000000E+00 0.  1.
     999903    1    1    0    0    0  0.60411572298E-02 -0.47442953657E-02 -0.13528611970E-02  0.21467048065E-01  0.20000000000E-01 0.  0.
</event>
<event>
 7    1  0.4717691E-066  0.9118800E+02  0.7957747E-01            NaN
     999900   -1    0    0    0    0  0.00000000000E+00  0.00000000000E+00  0.99999998245E-14  0.93827000000E+00  0.93827000000E+00 0.  1.
        -11    1    1    0    0    0  0.56435236154E-02  0.34822937097E-02 -0.89089577624E-03  0.67104802035E-02  0.51100000000E-03 0. -1.
        -14    1    1    0    0    0 -0.56172025086E-03 -0.75943265676E-03 -0.80609152665E-03  0.12417935214E-02  0.00000000000E+00 0. -1.
         12    1    1    0    0    0  0.18993744330E-02 -0.11173262835E-02  0.71302594368E-03  0.23161276426E-02  0.00000000000E+00 0.  1.
         14    1    1    0    0    0  0.61353317501E-03 -0.24141920238E-02 -0.16300334471E-02  0.29768700212E-02  0.00000000000E+00 0.  1.
     999901    1    1    0    0    0 -0.70826420280E-02 -0.45328353467E-03 -0.12180233603E-01  0.90011039733E+00  0.90000000000E+00 0. -1.
     999903    1    1    0    0    0 -0.51206894458E-03  0.12619407890E-02  0.14794228409E-01  0.24914331285E-01  0.20000000000E-01 0.  0.
</event>
<event>
 7    1  0.4717691E-066  0.9118800E+02  0.7957747E-01            NaN
     999900   -1    0    0    0    0  0.00000000000E+00  0.00000000000E+00  0.99999998245E-14  0.93827000000E+00  0.93827000000E+00 0. -1.
        -11    1    1    0    0    0  0.38785096258E-02  0.22610878644E-02  0.53102239671E-02  0.69724425296E-02  0.51100000000E-03 0. -1.
        -14    1    1    0    0    0  0.13052544036E-02 -0.11624563889E-03 -0.35584119659E-02  0.37920308313E-02  0.00000000000E+00 0. -1.
         12    1    1    0    0    0 -0.12780628734E-02  0.15317575138E-02 -0.12457668294E-02  0.23519482950E-02  0.00000000000E+00 0.  1.
         14    1    1    0    0    0  0.22147006585E-02  0.60776194298E-03  0.10049646561E-02  0.25068361626E-02  0.00000000000E+00 0.  1.
     999901    1    1    0    0    0 -0.32311392367E-03  0.24536978883E-03 -0.90402475038E-02  0.90004549367E+00  0.90000000000E+00 0.  1.
     999903    1    1    0    0    0 -0.57972878910E-02 -0.45297314711E-02  0.75292376759E-02  0.22601248507E-01  0.20000000000E-01 0.  0.
</event>
<event>
 7    1  0.4717691E-066  0.9118800E+02  0.7957747E-01            NaN
     999900   -1    0    0    0    0  0.00000000000E+00  0.00000000000E+00  0.99999998245E-14  0.93827000000E+00  0.93827000000E+00 0. -1.
        -11    1    1    0    0    0  0.67679423917E-03  0.51840153980E-02  0.15155338059E-02  0.54671774990E-02  0.51100000000E-03 0. -1.
        -14    1    1    0    0    0  0.59546871186E-03 -0.83660154971E-03  0.79474974049E-03  0.12985038659E-02  0.00000000000E+00 0. -1.
         12    1    1    0    0    0  0.12810850642E-02 -0.54865312647E-03  0.32526581814E-03  0.14310824740E-02  0.00000000000E+00 0.  1.
         14    1    1    0    0    0  0.37927724008E-02  0.54612615826E-02 -0.24315087000E-02  0.70797411758E-02  0.00000000000E+00 0.  1.
     999901    1    1    0    0    0 -0.18328067018E-02 -0.10840305596E-01  0.98110078710E-02  0.90012061818E+00  0.90000000000E+00 0. -1.
     999903    1    1    0    0    0 -0.45133137143E-02  0.15802832915E-02 -0.10015048536E-01  0.22872876801E-01  0.20000000000E-01 0.  0.
</event>
<event>
 7    1  0.4717691E-066  0.9118800E+02  0.7957747E-01            NaN
     999900   -1    0    0    0    0  0.00000000000E+00  0.00000000000E+00  0.99999998245E-14  0.93827000000E+00  0.93827000000E+00 0.  1.
        -11    1    1    0    0    0  0.27804652714E-02  0.26989704166E-02  0.14348841526E-03  0.39111556298E-02  0.51100000000E-03 0. -1.
        -14    1    1    0    0    0 -0.42040370979E-02  0.14993513885E-02 -0.26161194682E-02  0.51735929081E-02  0.00000000000E+00 0. -1.
         12    1    1    0    0    0  0.68890725612E-03 -0.12306264147E-02  0.29906998334E-03  0.14416925591E-02  0.00000000000E+00 0.  1.
         14    1    1    0    0    0  0.33456929180E-02 -0.14070943327E-03 -0.23918328084E-02  0.41151335858E-02  0.00000000000E+00 0.  1.
     999901    1    1    0    0    0 -0.81238736715E-02 -0.12877541175E-01  0.16232403984E-05  0.90012878434E+00  0.90000000000E+00 0.  1.
     999903    1    1    0    0    0  0.55128453239E-02  0.10050555218E-01  0.45637706376E-02  0.23499640980E-01  0.20000000000E-01 0.  0.
</event>
<event>
 7    1  0.4717691E-066  0.9118800E+02  0.7957747E-01            NaN
     999900   -1    0    0    0    0  0.00000000000E+00  0.00000000000E+00  0.99999998245E-14  0.93827000000E+00  0.93827000000E+00 0.  1.
        -11    1    1    0    0    0 -0.80712762846E-05 -0.89141344266E-03 -0.22753426924E-02  0.24965953696E-02  0.51100000000E-03 0. -1.
        -14    1    1    0    0    0 -0.93650187481E-05  0.12208285805E-02  0.57679710626E-03  0.13502610964E-02  0.00000000000E+00 0. -1.
         12    1    1    0    0    0 -0.30971893958E-02  0.37379756859E-02 -0.26765006062E-03  0.48617569804E-02  0.00000000000E+00 0.  1.
         14    1    1    0    0    0  0.20447373495E-02 -0.20504801025E-02 -0.26585770445E-02  0.39310878114E-02  0.00000000000E+00 0.  1.
     999901    1    1    0    0    0 -0.46024856347E-02  0.82072064208E-02 -0.61734712978E-02  0.90007035995E+00  0.90000000000E+00 0. -1.
     999903    1    1    0    0    0  0.56723739760E-02 -0.10224117142E-01  0.10798243989E-01  0.25559938793E-01  0.20000000000E-01 0.  0.
</event>
<event>
 7    1  0.4717691E-066  0.9118800E+02  0.7957747E-01            NaN
     999900   -1    0    0    0    0  0.00000000000E+00  0.00000000000E+00  0.99999998245E-14  0.93827000000E+00  0.93827000000E+00 0.  1.
        -11    1    1    0    0    0  0.20195693067E-02  0.41812649099E-03  0.38554074612E-02  0.44021333054E-02  0.51100000000E-03 0. -1.
        -14    1    1    0    0    0 -0.14028173643E-02 -0.20391933172E-02  0.14978763744E-03  0.24796455954E-02  0.00000000000E+00 0. -1.
         12    1    1    0    0    0 -0.17683725320E-02 -0.16697583613E-02 -0.24880626048E-03  0.24448187974E-02  0.00000000000E+00 0.  1.
         14    1    1    0    0    0  0.12096754715E-02 -0.45865328508E-02 -0.11436583493E-02  0.48792983879E-02  0.00000000000E+00 0.  1.
     999901    1    1    0    0    0 -0.17163454701E-02  0.55667091277E-02 -0.15409567619E-01  0.90015075897E+00  0.90000000000E+00 0. -1.
     999903    1    1    0    0    0  0.16582905881E-02  0.23106489107E-02  0.12796837131E-01  0.23913344948E-01  0.20000000000E-01 0.  0.
</event>
<event>
 7    1  0.4717691E-066  0.9118800E+02  0.7957747E-01            NaN
     999900   -1    0    0    0    0  0.00000000000E+00  0.00000000000E+00  0.99999998245E-14  0.93827000000E+00  0.93827000000E+00 0. -1.
        -11    1    1    0    0    0 -0.13418967779E-02 -0.47057465090E-02 -0.28287063819E-02  0.56751597303E-02  0.51100000000E-03 0. -1.
        -14    1    1    0    0    0  0.10121975087E-02  0.10951989329E-02  0.10227119010E-02  0.18082986843E-02  0.00000000000E+00 0. -1.
         12    1    1    0    0    0 -0.16149094495E-02  0.66787834840E-02  0.23545986666E-02  0.72634851302E-02  0.00000000000E+00 0.  1.
         14    1    1    0    0    0 -0.11931257334E-02 -0.11830491583E-02 -0.13302086972E-02  0.21430374483E-02  0.00000000000E+00 0.  1.
     999901    1    1    0    0    0  0.71780042735E-03  0.20180477516E-02  0.66845033074E-02  0.90002737199E+00  0.90000000000E+00 0. -1.
     999903    1    1    0    0    0  0.24199340248E-02 -0.39032345012E-02 -0.59028987959E-02  0.21352647013E-01  0.20000000000E-01 0.  0.
</event>
<event>
 7    1  0.4717691E-066  0.9118800E+02  0.7957747E-01            NaN
     999900   -1    0    0    0    0  0.00000000000E+00  0.00000000000E+00  0.99999998245E-14  0.93827000000E+00  0.93827000000E+00 0.  1.
        -11    1    1    0    0    0 -0.32295143567E-02  0.20816949539E-02 -0.17285663703E-02  0.42440876002E-02  0.51100000000E-03 0.  1.
        -14    1    1    0    0    0 -0.83803854543E-03  0.14800218641E-02 -0.27003974582E-02  0.31913821072E-02  0.00000000000E+00 0. -1.
         12    1    1    0    0    0  0.42398247437E-02  0.45179688004E-02  0.43473790744E-03  0.62110508762E-02  0.00000000000E+00 0.  1.
         14    1    1    0    0    0 -0.70559530171E-03  0.11260595879E-02 -0.44530280487E-03  0.14014883208E-02  0.00000000000E+00 0.  1.
     999901    1    1    0    0    0 -0.76046059668E-02 -0.12461618750E-01 -0.30907080240E-02  0.90012369953E+00  0.90000000000E+00 0. -1.
     999903    1    1    0    0    0  0.81379294270E-02  0.32558735440E-02  0.75302367499E-02  0.23098291569E-01  0.20000000000E-01 0.  0.
</event>
<event>
 7    1  0.4717691E-066  0.9118800E+02  0.7957747E-01            NaN
     999900   -1    0    0    0    0  0.00000000000E+00  0.00000000000E+00  0.99999998245E-14  0.93827000000E+00  0.93827000000E+00 0. -1.
        -11    1    1    0    0    0  0.14676747357E-02 -0.26904361992E-04  0.21828311665E-02  0.26796764499E-02  0.51100000000E-03 0. -1.
        -14    1    1    0    0    0  0.35372040125E-03  0.97836927927E-03 -0.24264773235E-02  0.26400978713E-02  0.00000000000E+00 0. -1.
         12    1    1    0    0    0  0.24637358704E-03 -0.88413817139E-02  0.42792873926E-03  0.88551597141E-02  0.00000000000E+00 0.  1.
         14    1    1    0    0    0 -0.21384895909E-02  0.19151939185E-02  0.73511137080E-03  0.29633586018E-02  0.00000000000E+00 0.  1.
     999901    1    1    0    0    0  0.33497230296E-02  0.21110677309E-02  0.35752038845E-02  0.90001581060E+00  0.90000000000E+00 0. -1.
     999903    1    1    0    0    0 -0.32790021627E-02  0.38636551473E-02 -0.44945978376E-02  0.21115896761E-01  0.20000000000E-01 0.  0.
</event>
<event>
 7    1  0.4717691E-066  0.9118800E+02  0.7957747E-01            NaN
     999900   -1    0    0    0    0  0.00000000000E+00  0.00000000000E+00  0.99999998245E-14  0.93827000000E+00  0.93827000000E+00 0. -1.
        -11    1    1    0    0    0  0.15641753719E-02 -0.11086118663E-03  0.17613255447E-02  0.24129491232E-02  0.51100000000E-03 0. -1.
        -14    1    1    0    0    0 -0.14745042018E-03  0.13878488765E-02 -0.21001939173E-02  0.25216424450E-02  0.00000000000E+00 0. -1.
         12    1    1    0    0    0 -0.25314640602E-02 -0.21372891690E-02  0.21519816100E-02  0.39506126271E-02  0.00000000000E+00 0.  1.
         14    1    1    0    0    0 -0.14843983171E-02  0.52936411513E-02 -0.40522059831E-02  0.68298205197E-02  0.00000000000E+00 0.  1.
     999901    1    1    0    0    0 -0.73689766248E-02 -0.20654406019E-02  0.36386365782E-02  0.90003989219E+00  0.90000000000E+00 0. -1.
     999903    1    1    0    0    0  0.99681140504E-02 -0.23678990703E-02 -0.13995438325E-02  0.22515083093E-01  0.20000000000E-01 0.  0.
</event>
<event>
 7    1  0.4717691E-066  0.9118800E+02  0.7957747E-01            NaN
     999900   -1    0    0    0    0  0.00000000000E+00  0.00000000000E+00  0.99999998245E-14  0.93827000000E+00  0.93827000000E+00 0.  1.
        -11    1    1    0    0    0 -0.32071152205E-02  0.21264691003E-02 -0.21353253019E-02  0.44303717697E-02  0.51100000000E-03 0. -1.
        -14    1    1    0    0    0 -0.25047731990E-02  0.45226740592E-02  0.64955832476E-02  0.83018715451E-02  0.00000000000E+00 0. -1.
         12    1    1    0    0    0 -0.20554208006E-02 -0.26752622132E-03 -0.12449347857E-02  0.24178890726E-02  0.00000000000E+00 0.  1.
         14    1    1    0    0    0  0.29223006822E-04 -0.10237709555E-03 -0.46806807001E-03  0.48002372024E-03  0.00000000000E+00 0.  1.
     999901    1    1    0    0    0  0.16888110924E-01 -0.24914065219E-02  0.33802368505E-04  0.90016188352E+00  0.90000000000E+00 0.  1.
     999903    1    1    0    0    0 -0.91500247108E-02 -0.37878333208E-02 -0.26810574585E-02  0.22477960374E-01  0.20000000000E-01 0.  0.
</event>
<event>
 7    1  0.4717691E-066  0.9118800E+02  0.7957747E-01            NaN
     999900   -1    0    0    0    0  0.00000000000E+00  0.00000000000E+00  0.99999998245E-14  0.93827000000E+00  0.93827000000E+00 0. -1.
        -11    1    1    0    0    0  0.10121910821E-02  0.19123263435E-02 -0.15730621562E-02  0.27234478842E-02  0.51100000000E-03 0. -1.
        -14    1    1    0    0    0  0.64258743787E-03 -0.98410064078E-03  0.15602952787E-03  0.11856297483E-02  0.00000000000E+00 0. -1.
         12    1    1    0    0    0  0.25135962022E-02 -0.51298802174E-02 -0.13668993593E-02  0.58738616574E-02  0.00000000000E+00 0.  1.
         14    1    1    0    0    0  0.17606617343E-04  0.34040437049E-03 -0.59839242424E-03  0.68866437530E-03  0.00000000000E+00 0.  1.
     999901    1    1    0    0    0 -0.53796220014E-02  0.21039964660E-01 -0.44355987466E-02  0.90027290028E+00  0.90000000000E+00 0. -1.
     999903    1    1    0    0    0  0.11936406618E-02 -0.17178714516E-01  0.78179231585E-02  0.27525496053E-01  0.20000000000E-01 0.  0.
</event>
<event>
 7    1  0.4717691E-066  0.9118800E+02  0.7957747E-01            NaN
     999900   -1    0    0    0    0  0.00000000000E+00  0.00000000000E+00  0.99999998245E-14  0.93827000000E+00  0.93827000000E+00 0.  1.
        -11    1    1    0    0    0  0.19086862391E-02 -0.28748459514E-02 -0.63309063288E-04  0.34889757009E-02  0.51100000000E-03 0. -1.
        -14    1    1    0    0    0 -0.19990454383E-02  0.96079318508E-03  0.17383242283E-02  0.28179917196E-02  0.00000000000E+00 0. -1.
         12    1    1    0    0    0  0.58082427616E-02 -0.32107887875E-02 -0.43700745225E-03  0.66510017387E-02  0.00000000000E+00 0.  1.
         14    1    1    0    0    0 -0.18133756148E-02 -0.81942046442E-03  0.11405205597E-02  0.22935928508E-02  0.00000000000E+00 0.  1.
     999901    1    1    0    0    0 -0.11339843256E-01  0.25907102653E-03 -0.84719120170E-02  0.90011134448E+00  0.90000000000E+00 0.  1.
     999903    1    1    0    0    0  0.74353353083E-02  0.56851909917E-02  0.60933837446E-02  0.22907093513E-01  0.20000000000E-01 0.  0.
</event>
<event>
 7    1  0.4717691E-066  0.9118800E+02  0.7957747E-01            NaN
     999900   -1    0    0    0    0  0.00000000000E+00  0.00000000000E+00  0.99999998245E-14  0.93827000000E+00  0.93827000000E+00 0. -1.
        -11    1    1    0    0    0  0.14186856952E-02  0.53699152370E-02  0.17666662668E-02  0.58507170033E-02  0.51100000000E-03 0. -1.
        -14    1    1    0    0    0 -0.93749880324E-03 -0.41548649904E-03  0.93485873897E-03  0.13876216699E-02  0.00000000000E+00 0. -1.
         12    1    1    0    0    0 -0.39893637048E-02 -0.21986373803E-04 -0.34613473327E-02  0.52817072550E-02  0.00000000000E+00 0.  1.
         14    1    1    0    0    0 -0.46394828321E-03 -0.10340147112E-02  0.31807604965E-02  0.33766361617E-02  0.00000000000E+00 0.  1.
     999901    1    1    0    0    0 -0.37393800832E-02 -0.37408946162E-02  0.39035791605E-02  0.90002400812E+00  0.90000000000E+00 0. -1.
     999903    1    1    0    0    0  0.77115051793E-02 -0.15753303667E-03 -0.63245173301E-02  0.22349309794E-01  0.20000000000E-01 0.  0.
</event>
<event>
 7    1  0.4717691E-066  0.9118800E+02  0.7957747E-01            NaN
     999900   -1    0    0    0    0  0.00000000000E+00  0.00000000000E+00  0.99999998245E-14  0.93827000000E+00  0.93827000000E+00 0. -1.
        -11    1    1    0    0    0 -0.39024726375E-03  0.15587305200E-02 -0.52881410838E-02  0.55504496109E-02  0.51100000000E-03 0. -1.
        -14    1    1    0    0    0 -0.10111744142E-03 -0.32961928163E-02  0.78907850599E-03  0.33908342200E-02  0.00000000000E+00 0. -1.
         12    1    1    0    0    0 -0.16340343366E-02  0.10326406075E-03  0.64125208333E-03  0.17583901483E-02  0.00000000000E+00 0.  1.
         14    1    1    0    0    0  0.49326304918E-02  0.16863986048E-02  0.40527626639E-02  0.66030045458E-02  0.00000000000E+00 0.  1.
     999901    1    1    0    0    0 -0.68362079168E-03  0.26725189141E-02 -0.53761241499E-02  0.90002028444E+00  0.90000000000E+00 0.  1.
     999903    1    1    0    0    0 -0.21236106584E-02 -0.27247192834E-02  0.51811719804E-02  0.20947037034E-01  0.20000000000E-01 0.  0.
</event>
<event>
 7    1  0.4717691E-066  0.9118800E+02  0.7957747E-01            NaN
     999900   -1    0    0    0    0  0.00000000000E+00  0.00000000000E+00  0.99999998245E-14  0.93827000000E+00  0.93827000000E+00 0.  1.
        -11    1    1    0    0    0  0.42036385133E-02 -0.66963660395E-03 -0.13063184531E-02  0.44818053095E-02  0.51100000000E-03 0. -1.
        -14    1    1    0    0    0 -0.23227827769E-02  0.38274737427E-03 -0.23410453014E-02  0.33199862175E-02  0.00000000000E+00 0. -1.
         12    1    1    0    0    0 -0.34383298681E-03  0.37979013075E-04 -0.14963760695E-04  0.34624766048E-03  0.00000000000E+00 0.  1.
         14    1    1    0    0    0 -0.41168244921E-03 -0.25575272774E-03  0.58804339274E-02  0.59003724519E-02  0.00000000000E+00 0.  1.
     999901    1    1    0    0    0  0.35917081534E-02  0.50926885910E-03  0.10475671033E-01  0.90006827486E+00  0.90000000000E+00 0.  1.
     999903    1    1    0    0    0 -0.47170484537E-02 -0.46059147539E-05 -0.12693777445E-01  0.24153313503E-01  0.20000000000E-01 0.  0.
</event>
<event>
 7    1  0.4717691E-066  0.9118800E+02  0.7957747E-01            NaN
     999900   -1    0    0    0    0  0.00000000000E+00  0.00000000000E+00  0.99999998245E-14  0.93827000000E+00  0.93827000000E+00 0. -1.
        -11    1    1    0    0    0 -0.12999997665E-02  0.85461632563E-03  0.87899053865E-03  0.18585246364E-02  0.51100000000E-03 0. -1.
        -14    1    1    0    0    0  0.43569903398E-02 -0.23573210119E-02 -0.15856095110E-02  0.52013925727E-02  0.00000000000E+00 0. -1.
         12    1    1    0    0    0 -0.18221500904E-02  0.26258639604E-02  0.55771788097E-03  0.32444478306E-02  0.00000000000E+00 0.  1.
         14    1    1    0    0    0  0.22049656628E-02  0.21326975189E-02 -0.30019875716E-02  0.42921092322E-02  0.00000000000E+00 0.  1.
     999901    1    1    0    0    0 -0.12777448672E-01 -0.20807110257E-02  0.11163617699E-01  0.90016232920E+00  0.90000000000E+00 0. -1.
     999903    1    1    0    0    0  0.93376425261E-02 -0.11751457675E-02 -0.80127290360E-02  0.23511196527E-01  0.20000000000E-01 0.  0.
</event>
<event>
 7    1  0.4717691E-066  0.9118800E+02  0.7957747E-01            NaN
     999900   -1    0    0    0    0  0.00000000000E+00  0.00000000000E+00  0.99999998245E-14  0.93827000000E+00  0.93827000000E+00 0.  1.
        -11    1    1    0    0    0 -0.19107876757E-02 -0.13964313951E-02 -0.36141670332E-02  0.43502246524E-02  0.51100000000E-03 0. -1.
        -14    1    1    0    0    0 -0.11000090682E-03  0.25528494071E-02  0.16699245901E-02  0.30525052714E-02  0.00000000000E+00 0. -1.
         12    1    1    0    0    0  0.90773328995E-03 -0.21740578199E-03  0.19914710288E-02  0.21993639668E-02  0.00000000000E+00 0.  1.
         14    1    1    0    0    0  0.32752000466E-02  0.20583788674E-02  0.20358673713E-02  0.43713401676E-02  0.00000000000E+00 0.  1.
     999901    1    1    0    0    0 -0.11886574216E-01 -0.12274298486E-01 -0.73077897356E-03  0.90016247594E+00  0.90000000000E+00 0. -1.
     999903    1    1    0    0    0  0.97244294621E-02  0.92769073887E-02 -0.13523169835E-02  0.24134090003E-01  0.20000000000E-01 0.  0.
</event>
<event>
 7    1  0.4717691E-066  0.9118800E+02  0.7957747E-01            NaN
     999900   -1    0    0    0    0  0.00000000000E+00  0.00000000000E+00  0.99999998245E-14  0.93827000000E+00  0.93827000000E+00 0.  1.
        -11    1    1    0    0    0 -0.18726704935E-02  0.20306897088E-02 -0.20247221184E-02  0.34628335402E-02  0.51100000000E-03 0. -1.
        -14    1    1    0    0    0  0.24510292949E-02  0.25499289567E-02  0.40301246503E-03  0.35597895072E-02  0.00000000000E+00 0. -1.
         12    1    1    0    0    0  0.28771045406E-02 -0.23917526102E-02  0.26469604775E-02  0.45830787530E-02  0.00000000000E+00 0.  1.
         14    1    1    0    0    0 -0.21584874673E-02 -0.20267715148E-02 -0.74887923243E-03  0.30541268841E-02  0.00000000000E+00 0.  1.
     999901    1    1    0    0    0 -0.90104568413E-02 -0.91276942296E-02  0.33242925493E-02  0.90009752475E+00  0.90000000000E+00 0. -1.
     999903    1    1    0    0    0  0.77134809664E-02  0.89655996891E-02 -0.36006641410E-02  0.23512646569E-01  0.20000000000E-01 0.  0.
</event>
<event>
 7    1  0.4717691E-066  0.9118800E+02  0.7957747E-01            NaN
     999900   -1    0    0    0    0  0.00000000000E+00  0.00000000000E+00  0.99999998245E-14  0.93827000000E+00  0.93827000000E+00 0.  1.
        -11    1    1    0    0    0  0.14177001257E-02  0.56349102098E-02  0.21890992345E-02  0.62301976836E-02  0.51100000000E-03 0. -1.
        -14    1    1    0    0    0 -0.56209752968E-03  0.42983316504E-03 -0.10520580580E-02  0.12678865643E-02  0.00000000000E+00 0. -1.
         12    1    1    0    0    0 -0.17616569667E-03 -0.23360187092E-02 -0.25486819487E-02  0.34617621868E-02  0.00000000000E+00 0.  1.
         14    1    1    0    0    0 -0.20687183626E-02  0.24756756697E-02  0.24861060747E-03  0.32357955621E-02  0.00000000000E+00 0.  1.
     999901    1    1    0    0    0  0.12464892009E-01 -0.70430488523E-02  0.81602687803E-02  0.90015085850E+00  0.90000000000E+00 0.  1.
     999903    1    1    0    0    0 -0.11075610545E-01  0.83864851695E-03 -0.69972386156E-02  0.23923499504E-01  0.20000000000E-01 0.  0.
</event>
<event>
 7    1  0.4717691E-066  0.9118800E+02  0.7957747E-01            NaN
     999900   -1    0    0    0    0  0.00000000000E+00  0.00000000000E+00  0.99999998245E-14  0.93827000000E+00  0.93827000000E+00 0.  1.
        -11    1    1    0    0    0  0.26419846811E-02  0.25074899086E-02  0.27206748413E-02  0.45750170807E-02  0.51100000000E-03 0. -1.
        -14    1    1    0    0    0 -0.37353810502E-03  0.23051486313E-02 -0.15286956018E-02  0.27910842286E-02  0.00000000000E+00 0. -1.
         12    1    1    0    0    0  0.28831633398E-02  0.36476486770E-02 -0.16832109137E-02  0.49448125035E-02  0.00000000000E+00 0.  1.
         14    1    1    0    0    0 -0.18038871633E-02  0.39350424371E-03  0.22795849588E-02  0.29334897430E-02  0.00000000000E+00 0.  1.
     999901    1    1    0    0    0  0.31150738763E-02 -0.13524726038E-02  0.38216442914E-02  0.90001452090E+00  0.90000000000E+00 0.  1.
     999903    1    1    0    0    0 -0.64627966289E-02 -0.75013188567E-02 -0.56099975760E-02  0.23011075543E-01  0.20000000000E-01 0.  0.
</event>
<event>
 7    1  0.4717691E-066  0.9118800E+02  0.7957747E-01            NaN
     999900   -1    0    0    0    0  0.00000000000E+00  0.00000000000E+00  0.99999998245E-14  0.93827000000E+00  0.93827000000E+00 0. -1.
        -11    1    1    0    0    0  0.20011579882E-02 -0.78431832033E-03  0.38016775795E-02  0.43970060200E-02  0.51100000000E-03 0. -1.
        -14    1    1    0    0    0 -0.19797060400E-02 -0.39174275908E-02 -0.62364512766E-03  0.44333292433E-02  0.00000000000E+00 0. -1.
         12    1    1    0    0    0  0.75439207556E-04  0.36229117310E-02  0.31262944286E-02  0.47859061147E-02  0.00000000000E+00 0.  1.
         14    1    1    0    0    0  0.75378536924E-03  0.13660946351E-02 -0.18120012509E-02  0.23911828596E-02  0.00000000000E+00 0.  1.
     999901    1    1    0    0    0  0.43152839293E-02 -0.74527024981E-02 -0.82449094869E-02  0.90007896486E+00  0.90000000000E+00 0.  1.
     999903    1    1    0    0    0 -0.51659604542E-02  0.71654420433E-02  0.37525838572E-02  0.22183610903E-01  0.20000000000E-01 0.  0.
</event>
<event>
 7    1  0.4717691E-066  0.9118800E+02  0.7957747E-01            NaN
     999900   -1    0    0    0    0  0.00000000000E+00  0.00000000000E+00  0.99999998245E-14  0.93827000000E+00  0.93827000000E+00 0. -1.
        -11    1    1    0    0    0 -0.17364204950E-02  0.27083411677E-02 -0.16381229002E-02  0.36462083940E-02  0.51100000000E-03 0. -1.
        -14    1    1    0    0    0 -0.20900614580E-02  0.12104281429E-02  0.19796698851E-02  0.31229130698E-02  0.00000000000E+00 0. -1.
         12    1    1    0    0    0  0.48429338027E-02  0.56256441884E-02 -0.24168473444E-02  0.78066017856E-02  0.00000000000E+00 0.  1.
         14    1    1    0    0    0 -0.90471384110E-03 -0.56760940548E-03 -0.73929275492E-03  0.12989385470E-02  0.00000000000E+00 0.  1.
     999901    1    1    0    0    0 -0.85348442997E-02 -0.13636373294E-01  0.12546646216E-02  0.90014463750E+00  0.90000000000E+00 0.  1.
     999903    1    1    0    0    0  0.84231062911E-02  0.46595692005E-02  0.15599284927E-02  0.22250700700E-01  0.20000000000E-01 0.  0.
</event>
<event>
 7    1  0.4717691E-066  0.9118800E+02  0.7957747E-01            NaN
     999900   -1    0    0    0    0  0.00000000000E+00  0.00000000000E+00  0.99999998245E-14  0.93827000000E+00  0.93827000000E+00 0. -1.
        -11    1    1    0    0    0  0.72423068723E-03 -0.26260360174E-02  0.54229839543E-03  0.28241430209E-02  0.51100000000E-03 0. -1.
        -14    1    1    0    0    0  0.86007129478E-03  0.13100003619E-02  0.86744284131E-03  0.17911674024E-02  0.00000000000E+00 0. -1.
         12    1    1    0    0    0  0.75189266708E-06 -0.24280926675E-02 -0.59061746539E-02  0.63858072011E-02  0.00000000000E+00 0.  1.
         14    1    1    0    0    0  0.56073902549E-02 -0.36794114994E-03  0.11647591916E-03  0.56206559048E-02  0.00000000000E+00 0.  1.
     999901    1    1    0    0    0 -0.49023717325E-02  0.56813684782E-02  0.11876851138E-01  0.90010964376E+00  0.90000000000E+00 0. -1.
     999903    1    1    0    0    0 -0.22900723971E-02 -0.15692990053E-02 -0.74968936400E-02  0.21538582711E-01  0.20000000000E-01 0.  0.
</event>
<event>
 7    1  0.4717691E-066  0.9118800E+02  0.7957747E-01            NaN
     999900   -1    0    0    0    0  0.00000000000E+00  0.00000000000E+00  0.99999998245E-14  0.93827000000E+00  0.93827000000E+00 0. -1.
        -11    1    1    0    0    0 -0.81434268950E-03 -0.35502695398E-02 -0.38502857651E-02  0.53247900705E-02  0.51100000000E-03 0. -1.
        -14    1    1    0    0    0  0.42427561078E-03  0.32407953237E-02  0.19425444705E-02  0.38021366551E-02  0.00000000000E+00 0. -1.
         12    1    1    0    0    0  0.28943248226E-03  0.12812235546E-02 -0.12222618989E-02  0.17942210310E-02  0.00000000000E+00 0.  1.
         14    1    1    0    0    0 -0.75032390268E-03 -0.25690269019E-03 -0.76317898038E-03  0.11006484940E-02  0.00000000000E+00 0.  1.
     999901    1    1    0    0    0  0.41920609712E-03  0.10650338319E-01  0.16091279617E-01  0.90020693994E+00  0.90000000000E+00 0. -1.
     999903    1    1    0    0    0  0.43175240202E-03 -0.11365184967E-01 -0.12198097443E-01  0.26041263808E-01  0.20000000000E-01 0.  0.
</event>
<event>
 7    1  0.4717691E-066  0.9118800E+02  0.7957747E-01            NaN
     999900   -1    0    0    0    0  0.00000000000E+00  0.00000000000E+00  0.99999998245E-14  0.93827000000E+00  0.93827000000E+00 0. -1.
        -11    1    1    0    0    0 -0.23057668538E-02  0.15539931012E-02  0.15413572629E-02  0.32199935643E-02  0.51100000000E-03 0. -1.
        -14    1    1    0    0    0 -0.12137803802E-02 -0.72171113018E-03 -0.36050702761E-02  0.38717775585E-02  0.00000000000E+00 0. -1.
         12    1    1    0    0    0  0.41071194681E-02  0.85980184117E-03 -0.26307552396E-02  0.49526318924E-02  0.00000000000E+00 0.  1.
         14    1    1    0    0    0 -0.99380566823E-03  0.25403775333E-02  0.17286551640E-02  0.32294606971E-02  0.00000000000E+00 0.  1.
     999901    1    1    0    0    0 -0.71074243923E-04 -0.65077730753E-02 -0.80203221448E-02  0.90005926568E+00  0.90000000000E+00 0.  1.
     999903    1    1    0    0    0  0.47730767809E-03  0.22753117298E-02  0.10986135234E-01  0.22936870612E-01  0.20000000000E-01 0.  0.
</event>
<event>
 7    1  0.4717691E-066  0.9118800E+02  0.7957747E-01            NaN
     999900   -1    0    0    0    0  0.00000000000E+00  0.00000000000E+00  0.99999998245E-14  0.93827000000E+00  0.93827000000E+00 0.  1.
        -11    1    1    0    0    0  0.17171924129E-02  0.35021970629E-02 -0.37472727061E-03  0.39516674427E-02  0.51100000000E-03 0. -1.
        -14    1    1    0    0    0  0.44166656194E-03 -0.38885841548E-02  0.50704127124E-04  0.39139145353E-02  0.00000000000E+00 0. -1.
         12    1    1    0    0    0  0.38281944194E-03 -0.20729537211E-02 -0.14321408096E-02  0.25484731023E-02  0.00000000000E+00 0.  1.
         14    1    1    0    0    0 -0.29939347000E-02  0.80275177828E-03  0.13123216353E-02  0.33660427032E-02  0.00000000000E+00 0.  1.
     999901    1    1    0    0    0  0.57187976226E-02  0.36221519706E-02 -0.12315228653E-01  0.90010970970E+00  0.90000000000E+00 0. -1.
     999903    1    1    0    0    0 -0.52665413394E-02 -0.19655629359E-02  0.12759070971E-01  0.24380192521E-01  0.20000000000E-01 0.  0.
</event>
<event>
 7    1  0.4717691E-066  0.9118800E+02  0.7957747E-01            NaN
     999900   -1    0    0    0    0  0.00000000000E+00  0.00000000000E+00  0.99999998245E-14  0.93827000000E+00  0.93827000000E+00 0.  1.
        -11    1    1    0    0    0  0.96715626591E-03  0.24658165395E-02  0.90237726659E-03  0.28444767850E-02  0.51100000000E-03 0. -1.
        -14    1    1    0    0    0 -0.83027619665E-03  0.97844901146E-03  0.22108339906E-03  0.13021516425E-02  0.00000000000E+00 0. -1.
         12    1    1    0    0    0 -0.21566915345E-02 -0.39435510336E-02 -0.35078630625E-03  0.45084325616E-02  0.00000000000E+00 0.  1.
         14    1    1    0    0    0  0.30578737495E-02  0.91254848474E-03 -0.42437078566E-02  0.53096509280E-02  0.00000000000E+00 0.  1.
     999901    1    1    0    0    0 -0.62797633384E-02  0.23699577920E-02 -0.88655323124E-02  0.90006869171E+00  0.90000000000E+00 0. -1.
     999903    1    1    0    0    0  0.52417010541E-02 -0.27832207941E-02  0.12336565810E-01  0.24236596376E-01  0.20000000000E-01 0.  0.
</event>
<event>
 7    1  0.4717691E-066  0.9118800E+02  0.7957747E-01            NaN
     999900   -1    0    0    0    0  0.00000000000E+00  0.00000000000E+00  0.99999998245E-14  0.93827000000E+00  0.93827000000E+00 0. -1.
        -11    1    1    0    0    0 -0.35160731717E-03 -0.39678624396E-02 -0.11897182533E-02  0.41885690358E-02  0.51100000000E-03 0. -1.
        -14    1    1    0    0    0  0.26196475046E-02  0.40680831049E-02 -0.49097578995E-02  0.68932993427E-02  0.00000000000E+00 0. -1.
         12    1    1    0    0    0  0.68527356963E-03 -0.11087366421E-02 -0.39991943220E-02  0.42062396546E-02  0.00000000000E+00 0.  1.
         14    1    1    0    0    0  0.90250844314E-03 -0.62418144182E-03  0.84362463446E-03  0.13841338397E-02  0.00000000000E+00 0.  1.
     999901    1    1    0    0    0 -0.66142745509E-02 -0.55951828014E-02  0.73819990886E-02  0.90007196857E+00  0.90000000000E+00 0. -1.
     999903    1    1    0    0    0  0.27584523507E-02  0.72278802200E-02  0.18730467518E-02  0.21525789555E-01  0.20000000000E-01 0.  0.
</event>
<event>
 7    1  0.4717691E-066  0.9118800E+02  0.7957747E-01            NaN
     999900   -1    0    0    0    0  0.00000000000E+00  0.00000000000E+00  0.99999998245E-14  0.93827000000E+00  0.93827000000E+00 0.  1.
        -11    1    1    0    0    0  0.27547420428E-02 -0.34705557221E-03  0.10938696542E-02  0.30276596759E-02  0.51100000000E-03 0. -1.
        -14    1    1    0    0    0 -0.24007217635E-02  0.42456245725E-03 -0.25904647326E-02  0.35572778633E-02  0.00000000000E+00 0. -1.
         12    1    1    0    0    0 -0.23955955428E-02  0.28337933211E-02  0.72433291776E-03  0.37807301897E-02  0.00000000000E+00 0.  1.
         14    1    1    0    0    0  0.32371292717E-02  0.44148408488E-02 -0.17874882959E-02  0.57589009411E-02  0.00000000000E+00 0.  1.
     999901    1    1    0    0    0  0.53450178422E-02 -0.19230133134E-02  0.66307786112E-02  0.90004235146E+00  0.90000000000E+00 0.  1.
     999903    1    1    0    0    0 -0.65405718504E-02 -0.54031277414E-02 -0.40710281546E-02  0.22103079870E-01  0.20000000000E-01 0.  0.
</event>
<event>
 7    1  0.4717691E-066  0.9118800E+02  0.7957747E-01            NaN
     999900   -1    0    0    0    0  0.00000000000E+00  0.00000000000E+00  0.99999998245E-14  0.93827000000E+00  0.93827000000E+00 0. -1.
        -11    1    1    0    0    0 -0.56033720699E-03 -0.19361438386E-03  0.55334028813E-03  0.95852532029E-03  0.51100000000E-03 0. -1.
        -14    1    1    0    0    0  0.28735432362E-02  0.10066430253E-04 -0.18280118374E-03  0.28793694337E-02  0.00000000000E+00 0. -1.
         12    1    1    0    0    0 -0.27327666520E-02 -0.35021149765E-02  0.39017234864E-02  0.59123826878E-02  0.00000000000E+00 0.  1.
         14    1    1    0    0    0 -0.19973894350E-02  0.41844654004E-02  0.30045166801E-02  0.55250733682E-02  0.00000000000E+00 0.  1.
     999901    1    1    0    0    0 -0.69810224602E-02  0.54036580464E-02 -0.56023708075E-02  0.90006073170E+00  0.90000000000E+00 0.  1.
     999903    1    1    0    0    0  0.93979725181E-02 -0.59024605168E-02 -0.16744084634E-02  0.22933917487E-01  0.20000000000E-01 0.  0.
</event>
<event>
 7    1  0.4717691E-066  0.9118800E+02  0.7957747E-01            NaN
     999900   -1    0    0    0    0  0.00000000000E+00  0.00000000000E+00  0.99999998245E-14  0.93827000000E+00  0.93827000000E+00 0.  1.
        -11    1    1    0    0    0  0.18287339610E-02 -0.29340302153E-02  0.18162156463E-02  0.39385989233E-02  0.51100000000E-03 0. -1.
        -14    1    1    0    0    0 -0.40417963490E-02 -0.21722356843E-02 -0.11260083051E-02  0.47246820314E-02  0.00000000000E+00 0. -1.
         12    1    1    0    0    0 -0.17222218278E-04  0.25363534056E-02 -0.21440726943E-02  0.33212095570E-02  0.00000000000E+00 0.  1.
         14    1    1    0    0    0  0.12922840866E-02 -0.36282093285E-02  0.13413572810E-02  0.40783747311E-02  0.00000000000E+00 0.  1.
     999901    1    1    0    0    0 -0.33631921560E-02  0.10007773429E-01 -0.73747778364E-02  0.90009213636E+00  0.90000000000E+00 0. -1.
     999903    1    1    0    0    0  0.43011926756E-02 -0.38096516066E-02  0.74872859085E-02  0.22114998396E-01  0.20000000000E-01 0.  0.
</event>
<event>
 7    1  0.4717691E-066  0.9118800E+02  0.7957747E-01            NaN
     999900   -1    0    0    0    0  0.00000000000E+00  0.00000000000E+00  0.99999998245E-14  0.93827000000E+00  0.93827000000E+00 0.  1.
        -11    1    1    0    0    0  0.42505362581E-03 -0.48659668806E-04 -0.36152478815E-02  0.36761632979E-02  0.51100000000E-03 0. -1.
        -14    1    1    0    0    0 -0.12793968229E-02  0.36100493250E-02 -0.42875699528E-03  0.38539778049E-02  0.00000000000E+00 0. -1.
         12    1    1    0    0    0  0.18324739052E-02 -0.50043763248E-02 -0.44884629361E-02  0.69676425384E-02  0.00000000000E+00 0.  1.
         14    1    1    0    0    0  0.51249429229E-03  0.10085751181E-02  0.93925143607E-03  0.14703970309E-02  0.00000000000E+00 0.  1.
     999901    1    1    0    0    0 -0.66821914880E-02  0.18193811214E-02  0.15431409204E-01  0.90015892498E+00  0.90000000000E+00 0.  1.
     999903    1    1    0    0    0  0.51915664875E-02 -0.13849695709E-02 -0.78381928276E-02  0.22142894348E-01  0.20000000000E-01 0.  0.
</event>
<event>
 7    1  0.4717691E-066  0.9118800E+02  0.7957747E-01            NaN
     999900   -1    0    0    0    0  0.00000000000E+00  0.00000000000E+00  0.99999998245E-14  0.93827000000E+00  0.93827000000E+00 0.  1.
        -11    1    1    0    0    0  0.45502249565E-03 -0.44886710887E-03 -0.69602431446E-03  0.10742895323E-02  0.51100000000E-03 0. -1.
        -14    1    1    0    0    0 -0.15234357847E-02 -0.32917490756E-02  0.48499175617E-02  0.60562504012E-02  0.00000000000E+00 0. -1.
         12    1    1    0    0    0  0.11956161530E-02 -0.58045397230E-04 -0.68837978713E-03  0.13808453877E-02  0.00000000000E+00 0.  1.
         14    1    1    0    0    0 -0.36049543536E-02 -0.20313942609E-02 -0.20792944904E-02  0.46309528299E-02  0.00000000000E+00 0.  1.
     999901    1    1    0    0    0 -0.23792329174E-02 -0.77411631183E-02  0.19279535491E-02  0.90003850104E+00  0.90000000000E+00 0. -1.
     999903    1    1    0    0    0  0.58569844070E-02  0.13571218961E-01 -0.33141725188E-02  0.25089160805E-01  0.20000000000E-01 0.  0.
</event>
<event>
 7    1  0.4717691E-066  0.9118800E+02  0.7957747E-01            NaN
     999900   -1    0    0    0    0  0.00000000000E+00  0.00000000000E+00  0.99999998245E-14  0.93827000000E+00  0.93827000000E+00 0.  1.
        -11    1    1    0    0    0  0.22057931090E-02 -0.12069055017E-02  0.16544268667E-03  0.25711157914E-02  0.51100000000E-03 0. -1.
        -14    1    1    0    0    0 -0.82981248325E-03  0.24510472356E-02  0.74038510739E-04  0.25887647652E-02  0.00000000000E+00 0. -1.
         12    1    1    0    0    0 -0.43969434990E-02 -0.34045047492E-02  0.38843201614E-02  0.67831930414E-02  0.00000000000E+00 0.  1.
         14    1    1    0    0    0 -0.20733700368E-02 -0.16768115114E-02 -0.14699481418E-02  0.30448822135E-02  0.00000000000E+00 0.  1.
     999901    1    1    0    0    0  0.15340995351E-02 -0.66408544785E-02  0.16263155076E-02  0.90002727698E+00  0.90000000000E+00 0.  1.
     999903    1    1    0    0    0  0.35602333748E-02  0.10478029005E-01 -0.42801687246E-02  0.23254767206E-01  0.20000000000E-01 0.  0.
</event>
<event>
 7    1  0.4717691E-066  0.9118800E+02  0.7957747E-01            NaN
     999900   -1    0    0    0    0  0.00000000000E+00  0.00000000000E+00  0.99999998245E-14  0.93827000000E+00  0.93827000000E+00 0. -1.
        -11    1    1    0    0    0  0.32296434735E-05 -0.13239126820E-02 -0.39541012320E-02  0.42010466283E-02  0.51100000000E-03 0. -1.
        -14    1    1    0    0    0  0.56020154748E-03 -0.10619821461E-02  0.26863816428E-02  0.29424952308E-02  0.00000000000E+00 0. -1.
         12    1    1    0    0    0  0.30508434925E-02 -0.41754001243E-03 -0.19531003352E-02  0.36464484909E-02  0.00000000000E+00 0.  1.
         14    1    1    0    0    0 -0.37032598969E-02 -0.45439073116E-02  0.10643416222E-03  0.58628112498E-02  0.00000000000E+00 0.  1.
     999901    1    1    0    0    0 -0.70190796982E-02  0.10157159691E-01  0.52521234451E-02  0.90010000565E+00  0.90000000000E+00 0. -1.
     999903    1    1    0    0    0  0.71080649117E-02 -0.28098175393E-02 -0.21377376829E-02  0.21517192749E-01  0.20000000000E-01 0.  0.
</event>
<event>
 7    1  0.4717691E-066  0.9118800E+02  0.7957747E-01            NaN
     999900   -1    0    0    0    0  0.00000000000E+00  0.00000000000E+00  0.99999998245E-14  0.93827000000E+00  0.93827000000E+00 0. -1.
        -11    1    1    0    0    0  0.10363505736E-02 -0.25511295465E-02 -0.33993964056E-02  0.44044638035E-02  0.51100000000E-03 0. -1.
        -14    1    1    0    0    0 -0.14319282422E-02 -0.62834507162E-03  0.92544115492E-03  0.18170518295E-02  0.00000000000E+00 0. -1.
         12    1    1    0    0    0 -0.62971869105E-02  0.96881221619E-03 -0.26455942300E-04  0.63713311021E-02  0.00000000000E+00 0.  1.
         14    1    1    0    0    0  0.22201296808E-02  0.11845223728E-02  0.30525556653E-03  0.25348076874E-02  0.00000000000E+00 0.  1.
     999901    1    1    0    0    0  0.85690238746E-03 -0.94232706136E-02  0.53978855385E-02  0.90006592507E+00  0.90000000000E+00 0.  1.
     999903    1    1    0    0    0  0.36157325109E-02  0.10449410643E-01 -0.32027299120E-02  0.23076420504E-01  0.20000000000E-01 0.  0.
</event>
<event>
 7    1  0.4717691E-066  0.9118800E+02  0.7957747E-01            NaN
     999900   -1    0    0    0    0  0.00000000000E+00  0.00000000000E+00  0.99999998245E-14  0.93827000000E+00  0.93827000000E+00 0. -1.
        -11    1    1    0    0    0 -0.13939388782E-03  0.11084395662E-02  0.10494405651E-02  0.16157089551E-02  0.51100000000E-03 0.  1.
        -14    1    1    0    0    0  0.24048373000E-02  0.36342216057E-02  0.57393801450E-03  0.43954765343E-02  0.00000000000E+00 0. -1.
         12    1    1    0    0    0  0.32514044255E-02  0.47257482843E-03  0.19593616477E-02  0.38254484408E-02  0.00000000000E+00 0.  1.
         14    1    1    0    0    0 -0.84231754314E-03 -0.10494905301E-02 -0.16639749277E-02  0.21400331250E-02  0.00000000000E+00 0.  1.
     999901    1    1    0    0    0 -0.13475559122E-01 -0.85191721950E-02  0.11631119764E-01  0.90021633507E+00  0.90000000000E+00 0. -1.
     999903    1    1    0    0    0  0.88010288277E-02  0.43534267248E-02 -0.13549885064E-01  0.26076997870E-01  0.20000000000E-01 0.  0.
</event>
<event>
 7    1  0.4717691E-066  0.9118800E+02  0.7957747E-01            NaN
     999900   -1    0    0    0    0  0.00000000000E+00  0.00000000000E+00  0.99999998245E-14  0.93827000000E+00  0.93827000000E+00 0.  1.
        -11    1    1    0    0    0  0.36503363313E-02 -0.63405381592E-03  0.13960009150E-02  0.39921071037E-02  0.51100000000E-03 0. -1.
        -14    1    1    0    0    0 -0.36887695858E-02 -0.42930645881E-02  0.11937709254E-02  0.57846792164E-02  0.00000000000E+00 0. -1.
         12    1    1    0    0    0  0.17044888127E-02  0.23759568755E-02 -0.30464121863E-03  0.29399420842E-02  0.00000000000E+00 0.  1.
         14    1    1    0    0    0 -0.14464066947E-02  0.50191812353E-03 -0.48225705644E-03  0.16051747561E-02  0.00000000000E+00 0.  1.
     999901    1    1    0    0    0 -0.97855817038E-02  0.64997014079E-03 -0.10440012545E-01  0.90011397830E+00  0.90000000000E+00 0.  1.
     999903    1    1    0    0    0  0.95659328403E-02  0.13992732643E-02  0.86371389792E-02  0.23834118539E-01  0.20000000000E-01 0.  0.
</event>
<event>
 7    1  0.4717691E-066  0.9118800E+02  0.7957747E-01            NaN
     999900   -1    0    0    0    0  0.00000000000E+00  0.00000000000E+00  0.99999998245E-14  0.93827000000E+00  0.93827000000E+00 0.  1.
        -11    1    1    0    0    0  0.92928973742E-03 -0.38790875352E-05  0.86486905108E-03  0.13684713877E-02  0.51100000000E-03 0. -1.
        -14    1    1    0    0    0 -0.80779235578E-03  0.13617391095E-02 -0.31337339099E-02  0.35110041456E-02  0.00000000000E+00 0. -1.
         12    1    1    0    0    0  0.50376740669E-03 -0.17849520751E-02  0.55981287353E-02  0.58973621940E-02  0.00000000000E+00 0.  1.
         14    1    1    0    0    0 -0.35015789824E-03  0.16714585246E-02 -0.40889154936E-02  0.44312090976E-02  0.00000000000E+00 0.  1.
     999901    1    1    0    0    0  0.98038151095E-02 -0.51162102847E-02  0.41805533958E-02  0.90007764522E+00  0.90000000000E+00 0.  1.
     999903    1    1    0    0    0 -0.10078922000E-01  0.38718438133E-02 -0.34209017788E-02  0.22984307955E-01  0.20000000000E-01 0.  0.
</event>
<event>
 7    1  0.4717691E-066  0.9118800E+02  0.7957747E-01            NaN
     999900   -1    0    0    0    0  0.00000000000E+00  0.00000000000E+00  0.99999998245E-14  0.93827000000E+00  0.93827000000E+00 0.  1.
        -11    1    1    0    0    0 -0.22998921676E-02 -0.17704228679E-02 -0.35292393876E-03  0.29680932297E-02  0.51100000000E-03 0. -1.
        -14    1    1    0    0    0  0.74650099522E-03  0.24496760186E-02 -0.36087570750E-03  0.25861955858E-02  0.00000000000E+00 0. -1.
         12    1    1    0    0    0 -0.29870853662E-02 -0.15149487324E-02  0.37445728579E-03  0.33701582909E-02  0.00000000000E+00 0.  1.
         14    1    1    0    0    0  0.54246841608E-02  0.52413391074E-02  0.34959835000E-03  0.75512285682E-02  0.00000000000E+00 0.  1.
     999901    1    1    0    0    0 -0.78852977353E-02 -0.88317835097E-02  0.17010157528E-02  0.90007948081E+00  0.90000000000E+00 0.  1.
     999903    1    1    0    0    0  0.70010901130E-02  0.44261399841E-02 -0.17112717424E-02  0.21714843516E-01  0.20000000000E-01 0.  0.
</event>
<event>
 7    1  0.4717691E-066  0.9118800E+02  0.7957747E-01            NaN
     999900   -1    0    0    0    0  0.00000000000E+00  0.00000000000E+00  0.99999998245E-14  0.93827000000E+00  0.93827000000E+00 0. -1.
        -11    1    1    0    0    0  0.88426208457E-03 -0.15556971095E-02 -0.29507940916E-02  0.34886128621E-02  0.51100000000E-03 0. -1.
        -14    1    1    0    0    0  0.77650037216E-03  0.10682482076E-02  0.16427836867E-02  0.21078058028E-02  0.00000000000E+00 0. -1.
         12    1    1    0    0    0  0.15151481826E-02  0.17124317307E-02 -0.44103883154E-02  0.49678588486E-02  0.00000000000E+00 0.  1.
         14    1    1    0    0    0  0.30676188601E-03  0.48159228808E-03  0.39613152809E-02  0.40022559565E-02  0.00000000000E+00 0.  1.
     999901    1    1    0    0    0  0.35479000106E-02 -0.29462394426E-02 -0.86525102096E-02  0.90005340611E+00  0.90000000000E+00 0.  1.
     999903    1    1    0    0    0 -0.70305725360E-02  0.12396643258E-02  0.10409593649E-01  0.23650060418E-01  0.20000000000E-01 0.  0.
</event>
<event>
 7    1  0.4717691E-066  0.9118800E+02  0.7957747E-01            NaN
     999900   -1    0    0    0    0  0.00000000000E+00  0.00000000000E+00  0.99999998245E-14  0.93827000000E+00  0.93827000000E+00 0. -1.
        -11    1    1    0    0    0  0.13882272746E-02  0.21463306189E-02 -0.12610529465E-02  0.28957357658E-02  0.51100000000E-03 0. -1.
        -14    1    1    0    0    0 -0.51438034725E-02 -0.24392116695E-02 -0.10293933592E-02  0.57851636468E-02  0.00000000000E+00 0. -1.
         12    1    1    0    0    0 -0.10002107337E-03 -0.20862471878E-02 -0.28844346908E-02  0.35612350427E-02  0.00000000000E+00 0.  1.
         14    1    1    0    0    0  0.40633537040E-02 -0.30486419915E-02  0.13785111229E-02  0.52635875819E-02  0.00000000000E+00 0.  1.
     999901    1    1    0    0    0 -0.13853958601E-02  0.41997443269E-02 -0.14723378050E-02  0.90001206934E+00  0.90000000000E+00 0. -1.
     999903    1    1    0    0    0  0.11776394273E-02  0.12280259031E-02  0.52687076786E-02  0.20752208626E-01  0.20000000000E-01 0.  0.
</event>
<event>
 7    1  0.4717691E-066  0.9118800E+02  0.7957747E-01            NaN
     999900   -1    0    0    0    0  0.00000000000E+00  0.00000000000E+00  0.99999998245E-14  0.93827000000E+00  0.93827000000E+00 0.  1.
        -11    1    1    0    0    0  0.13815358990E-02 -0.97406711845E-03 -0.97119244160E-03  0.20153867991E-02  0.51100000000E-03 0. -1.
        -14    1    1    0    0    0 -0.20155582156E-02 -0.78397272528E-02  0.50588255195E-02  0.95454446704E-02  0.00000000000E+00 0. -1.
         12    1    1    0    0    0 -0.19983241155E-03  0.13488668668E-03  0.84290345296E-03  0.87670613204E-03  0.00000000000E+00 0.  1.
         14    1    1    0    0    0  0.12730400673E-02  0.31371454318E-02 -0.12853450302E-02  0.36213843099E-02  0.00000000000E+00 0.  1.
     999901    1    1    0    0    0 -0.83120431635E-02  0.22018616023E-02  0.63990887076E-03  0.90004130335E+00  0.90000000000E+00 0.  1.
     999903    1    1    0    0    0  0.78728578244E-02  0.33399006505E-02 -0.42851003714E-02  0.22169774737E-01  0.20000000000E-01 0.  0.
</event>
<event>
 7    1  0.4717691E-066  0.9118800E+02  0.7957747E-01            NaN
     999900   -1    0    0    0    0  0.00000000000E+00  0.00000000000E+00  0.99999998245E-14  0.93827000000E+00  0.93827000000E+00 0. -1.
        -11    1    1    0    0    0  0.18271367669E-02 -0.27995334705E-02 -0.53709897305E-03  0.34242389992E-02  0.51100000000E-03 0. -1.
        -14    1    1    0    0    0  0.31054474515E-02  0.57171239759E-02  0.16325399214E-02  0.67077937524E-02  0.00000000000E+00 0. -1.
         12    1    1    0    0    0  0.30925346353E-03  0.46606101986E-02  0.59070878276E-04  0.46712326528E-02  0.00000000000E+00 0.  1.
         14    1    1    0    0    0  0.15818688489E-02  0.97953538298E-04  0.48631876983E-03  0.16578328917E-02  0.00000000000E+00 0.  1.
     999901    1    1    0    0    0 -0.70064864290E-02 -0.12042866362E-01  0.55078370477E-02  0.90012469011E+00  0.90000000000E+00 0. -1.
     999903    1    1    0    0    0  0.18277989818E-03  0.43667121199E-02 -0.71486676441E-02  0.21684211591E-01  0.20000000000E-01 0.  0.
</event>
<event>
 7    1  0.4717691E-066  0.9118800E+02  0.7957747E-01            NaN
     999900   -1    0    0    0    0  0.00000000000E+00  0.00000000000E+00  0.99999998245E-14  0.93827000000E+00  0.93827000000E+00 0. -1.
        -11    1    1    0    0    0  0.94293414671E-03  0.16594528347E-02 -0.46369740916E-02  0.50403926675E-02  0.51100000000E-03 0. -1.
        -14    1    1    0    0    0 -0.11599095916E-02 -0.51661055696E-03  0.91312090509E-03  0.15639905740E-02  0.00000000000E+00 0. -1.
         12    1    1    0    0    0  0.96794302683E-03  0.27432419277E-02 -0.10984362384E-02  0.31094777933E-02  0.00000000000E+00 0.  1.
         14    1    1    0    0    0  0.25164288764E-02 -0.20114874342E-02  0.14195844625E-02  0.35204709960E-02  0.00000000000E+00 0.  1.
     999901    1    1    0    0    0 -0.17138635357E-01 -0.32648777941E-02  0.81128726259E-02  0.90020564926E+00  0.90000000000E+00 0. -1.
     999903    1    1    0    0    0  0.13871238899E-01  0.13902810228E-02 -0.47101676635E-02  0.24830018714E-01  0.20000000000E-01 0.  0.
</event>
<event>
 7    1  0.4717691E-066  0.9118800E+02  0.7957747E-01            NaN
     999900   -1    0    0    0    0  0.00000000000E+00  0.00000000000E+00  0.99999998245E-14  0.93827000000E+00  0.93827000000E+00 0.  1.
        -11    1    1    0    0    0  0.29028169454E-02 -0.34166393297E-02 -0.18268128993E-02  0.48680732222E-02  0.51100000000E-03 0. -1.
        -14    1    1    0    0    0 -0.24803068879E-02  0.13661615134E-02 -0.54258651302E-03  0.28831787428E-02  0.00000000000E+00 0. -1.
         12    1    1    0    0    0 -0.62253340158E-03  0.47833450888E-02  0.22800314559E-02  0.53353989087E-02  0.00000000000E+00 0.  1.
         14    1    1    0    0    0  0.84448803521E-03 -0.24022113607E-02 -0.18437521176E-02  0.31437559279E-02  0.00000000000E+00 0.  1.
     999901    1    1    0    0    0  0.92024562020E-03 -0.40402801985E-02 -0.63213360022E-02  0.90003173833E+00  0.90000000000E+00 0. -1.
     999903    1    1    0    0    0 -0.15647103113E-02  0.37096242868E-02  0.82544560762E-02  0.22007854866E-01  0.20000000000E-01 0.  0.
</event>
<event>
 7    1  0.4717691E-066  0.9118800E+02  0.7957747E-01            NaN
     999900   -1    0    0    0    0  0.00000000000E+00  0.00000000000E+00  0.99999998245E-14  0.93827000000E+00  0.93827000000E+00 0. -1.
        -11    1    1    0    0    0  0.11237984849E-02 -0.59189952583E-03 -0.40328667630E-02  0.42589204514E-02  0.51100000000E-03 0. -1.
        -14    1    1    0    0    0 -0.52277651196E-03  0.84043383210E-04  0.41990317377E-02  0.42322837931E-02  0.00000000000E+00 0. -1.
         12    1    1    0    0    0  0.56888934526E-03  0.45259709057E-02 -0.59801138100E-03  0.46006157564E-02  0.00000000000E+00 0.  1.
         14    1    1    0    0    0  0.91226145290E-03 -0.24318316957E-02 -0.33130095740E-02  0.42097575693E-02  0.00000000000E+00 0.  1.
     999901    1    1    0    0    0  0.40773546724E-02 -0.81503464261E-03  0.42990574836E-02  0.90001987256E+00  0.90000000000E+00 0.  1.
     999903    1    1    0    0    0 -0.61595274434E-02 -0.77124842474E-03 -0.55420150326E-03  0.20948549873E-01  0.20000000000E-01 0.  0.
</event>
<event>
 7    1  0.4717691E-066  0.9118800E+02  0.7957747E-01            NaN
     999900   -1    0    0    0    0  0.00000000000E+00  0.00000000000E+00  0.99999998245E-14  0.93827000000E+00  0.93827000000E+00 0.  1.
        -11    1    1    0    0    0  0.15772342846E-03 -0.42017212840E-03  0.64332758066E-03  0.93616914786E-03  0.51100000000E-03 0. -1.
        -14    1    1    0    0    0 -0.94049014956E-03 -0.26256380884E-02 -0.23151509145E-02  0.36246959665E-02  0.00000000000E+00 0. -1.
         12    1    1    0    0    0 -0.52588202530E-03 -0.27920465122E-02 -0.12848866775E-02  0.31181740498E-02  0.00000000000E+00 0.  1.
         14    1    1    0    0    0  0.40986382606E-02  0.41438039987E-02  0.45334038558E-02  0.73838809369E-02  0.00000000000E+00 0.  1.
     999901    1    1    0    0    0 -0.12000952287E-01  0.10961032863E-02  0.54145965217E-02  0.90009696264E+00  0.90000000000E+00 0.  1.
     999903    1    1    0    0    0  0.92109627728E-02  0.59794944387E-03 -0.69912903661E-02  0.23110117259E-01  0.20000000000E-01 0.  0.
</event>
<event>
 7    1  0.4717691E-066  0.9118800E+02  0.7957747E-01            NaN
     999900   -1    0    0    0    0  0.00000000000E+00  0.00000000000E+00  0.99999998245E-14  0.93827000000E+00  0.93827000000E+00 0.  1.
        -11    1    1    0    0    0  0.15177980324E-02  0.20207764650E-02  0.37726191424E-02  0.45695759740E-02  0.51100000000E-03 0. -1.
        -14    1    1    0    0    0  0.15752291347E-03 -0.12350067415E-03 -0.18415113000E-02  0.18523578900E-02  0.00000000000E+00 0. -1.
         12    1    1    0    0    0 -0.95246291574E-03 -0.22544259478E-02  0.22116770185E-03  0.24573435072E-02  0.00000000000E+00 0.  1.
         14    1    1    0    0    0  0.51908906020E-02 -0.13628613627E-02  0.36159366320E-03  0.53789856212E-02  0.00000000000E+00 0.  1.
     999901    1    1    0    0    0 -0.10796262684E-01  0.11974592005E-01 -0.87296073638E-02  0.90018673406E+00  0.90000000000E+00 0. -1.
     999903    1    1    0    0    0  0.48825140514E-02 -0.10254580485E-01  0.62157381563E-02  0.23825002943E-01  0.20000000000E-01 0.  0.
</event>
<event>
 7    1  0.4717691E-066  0.9118800E+02  0.7957747E-01            NaN
     999900   -1    0    0    0    0  0.00000000000E+00  0.00000000000E+00  0.99999998245E-14  0.93827000000E+00  0.93827000000E+00 0. -1.
        -11    1    1    0    0    0  0.30356413376E-03 -0.45622996372E-02  0.10559920322E-02  0.47204840150E-02  0.51100000000E-03 0. -1.
        -14    1    1    0    0    0 -0.69415858487E-03  0.19923652617E-02 -0.67972537242E-04  0.21109229599E-02  0.00000000000E+00 0. -1.
         12    1    1    0    0    0 -0.23223026718E-02 -0.97722138950E-03  0.26998751345E-02  0.36928819485E-02  0.00000000000E+00 0.  1.
         14    1    1    0    0    0  0.26787014760E-02 -0.23233262512E-02  0.11616974498E-02  0.37313305177E-02  0.00000000000E+00 0.  1.
     999901    1    1    0    0    0 -0.91584639145E-02  0.14921183602E-01 -0.35097957697E-02  0.90017711471E+00  0.90000000000E+00 0. -1.
     999903    1    1    0    0    0  0.91926595614E-02 -0.90507015856E-02 -0.13397963095E-02  0.23837265849E-01  0.20000000000E-01 0.  0.
</event>
<event>
 7    1  0.4717691E-066  0.9118800E+02  0.7957747E-01            NaN
     999900   -1    0    0    0    0  0.00000000000E+00  0.00000000000E+00  0.99999998245E-14  0.93827000000E+00  0.93827000000E+00 0. -1.
        -11    1    1    0    0    0  0.42247973679E-02 -0.33786865171E-03  0.66865188073E-03  0.43210281605E-02  0.51100000000E-03 0. -1.
        -14    1    1    0    0    0  0.19805673729E-02 -0.17983451884E-02  0.16502589482E-02  0.31432542264E-02  0.00000000000E+00 0. -1.
         12    1    1    0    0    0 -0.62687911322E-03 -0.60690653208E-03 -0.18105945751E-02  0.20098670794E-02  0.00000000000E+00 0.  1.
         14    1    1    0    0    0 -0.10287017945E-02  0.13557945567E-02  0.16273017949E-03  0.17096453940E-02  0.00000000000E+00 0.  1.
     999901    1    1    0    0    0 -0.28515592567E-02 -0.79576148369E-02 -0.15957329535E-01  0.90018114365E+00  0.90000000000E+00 0.  1.
     999903    1    1    0    0    0 -0.16982245764E-02  0.93449406524E-02  0.15286283101E-01  0.26905061486E-01  0.20000000000E-01 0.  0.
</event>
<event>
 7    1  0.4717691E-066  0.9118800E+02  0.7957747E-01            NaN
     999900   -1    0    0    0    0  0.00000000000E+00  0.00000000000E+00  0.99999998245E-14  0.93827000000E+00  0.93827000000E+00 0. -1.
        -11    1    1    0    0    0  0.53704805371E-04 -0.69901524868E-03 -0.20095739246E-02  0.21888387063E-02  0.51100000000E-03 0. -1.
        -14    1    1    0    0    0 -0.48438698608E-02  0.54287817814E-02 -0.33044702711E-02  0.79908867237E-02  0.00000000000E+00 0. -1.
         12    1    1    0    0    0  0.12017650357E-02  0.39389174710E-03  0.53786399946E-03  0.13742953072E-02  0.00000000000E+00 0.  1.
         14    1    1    0    0    0  0.15242209017E-02  0.36752954083E-02 -0.21670718275E-02  0.45307003874E-02  0.00000000000E+00 0.  1.
     999901    1    1    0    0    0  0.38398369822E-02 -0.16008767372E-01  0.14346935757E-02  0.90015170017E+00  0.90000000000E+00 0.  1.
     999903    1    1    0    0    0 -0.17756578642E-02  0.72098136836E-02  0.55085584479E-02  0.22033578701E-01  0.20000000000E-01 0.  0.
</event>
<event>
 7    1  0.4717691E-066  0.9118800E+02  0.7957747E-01            NaN
     999900   -1    0    0    0    0  0.00000000000E+00  0.00000000000E+00  0.99999998245E-14  0.93827000000E+00  0.93827000000E+00 0.  1.
        -11    1    1    0    0    0  0.33714246960E-03  0.14504504321E-02 -0.12374566514E-02  0.20024713393E-02  0.51100000000E-03 0. -1.
        -14    1    1    0    0    0  0.18052884851E-02  0.36363950148E-02  0.93269882245E-03  0.41656166784E-02  0.00000000000E+00 0. -1.
         12    1    1    0    0    0  0.19528819986E-02  0.14621463099E-02 -0.22319916684E-02  0.33065702381E-02  0.00000000000E+00 0.  1.
         14    1    1    0    0    0  0.22002284210E-02  0.65270732647E-03  0.62719933892E-02  0.66786924643E-02  0.00000000000E+00 0.  1.
     999901    1    1    0    0    0  0.11374652313E-02 -0.11293470073E-01 -0.72975172287E-02  0.90010115545E+00  0.90000000000E+00 0.  1.
     999903    1    1    0    0    0 -0.74330066056E-02  0.40917709896E-02  0.35622733368E-02  0.22015493825E-01  0.20000000000E-01 0.  0.
</event>
<event>
 7    1  0.4717691E-066  0.9118800E+02  0.7957747E-01            NaN
     999900   -1    0    0    0    0  0.00000000000E+00  0.00000000000E+00  0.99999998245E-14  0.93827000000E+00  0.93827000000E+00 0. -1.
        -11    1    1    0    0    0  0.35818857209E-02 -0.18153862243E-02 -0.40543088256E-02  0.57292297488E-02  0.51100000000E-03 0. -1.
        -14    1    1    0    0    0  0.25454573546E-04 -0.43032471670E-03  0.17476898850E-02  0.18000686740E-02  0.00000000000E+00 0. -1.
         12    1    1    0    0    0  0.69573359085E-04  0.12285833905E-02 -0.32841484765E-02  0.35071197322E-02  0.00000000000E+00 0.  1.
         14    1    1    0    0    0  0.43856134268E-03 -0.23257443497E-02  0.21269734799E-02  0.31820494993E-02  0.00000000000E+00 0.  1.
     999901    1    1    0    0    0 -0.16864311050E-02  0.15186371794E-01 -0.16366294539E-02  0.90013118405E+00  0.90000000000E+00 0. -1.
     999903    1    1    0    0    0 -0.24290438912E-02 -0.11843499894E-01  0.51004233911E-02  0.23920348299E-01  0.20000000000E-01 0.  0.
</event>
<event>
 7    1  0.4717691E-066  0.9118800E+02  0.7957747E-01            NaN
     999900   -1    0    0    0    0  0.00000000000E+00  0.00000000000E+00  0.99999998245E-14  0.93827000000E+00  0.93827000000E+00 0.  1.
        -11    1    1    0    0    0  0.60431173028E-02  0.15861795154E-02 -0.26574327123E-02  0.68086931059E-02  0.51100000000E-03 0. -1.
        -14    1    1    0    0    0 -0.12854123864E-02  0.52636918984E-03 -0.11831279128E-02  0.18245934301E-02  0.00000000000E+00 0. -1.
         12    1    1    0    0    0  0.24348277593E-02  0.25574912251E-02 -0.45769752428E-03  0.35607070376E-02  0.00000000000E+00 0.  1.
         14    1    1    0    0    0 -0.35362158545E-04 -0.34899838258E-02  0.31172442394E-03  0.35040561786E-02  0.00000000000E+00 0.  1.
     999901    1    1    0    0    0  0.23030468633E-02 -0.24679555124E-02 -0.26212216934E-03  0.90000636861E+00  0.90000000000E+00 0. -1.
     999903    1    1    0    0    0 -0.94602173805E-02  0.12878994079E-02  0.42486558947E-02  0.22565581638E-01  0.20000000000E-01 0.  0.
</event>
<event>
 7    1  0.4717691E-066  0.9118800E+02  0.7957747E-01            NaN
     999900   -1    0    0    0    0  0.00000000000E+00  0.00000000000E+00  0.99999998245E-14  0.93827000000E+00  0.93827000000E+00 0. -1.
        -11    1    1    0    0    0 -0.13113162019E-02 -0.89261019742E-03 -0.12632081759E-02  0.20912003829E-02  0.51100000000E-03 0. -1.
        -14    1    1    0    0    0  0.35287379096E-02 -0.22499798680E-02 -0.22752317793E-02  0.47635155390E-02  0.00000000000E+00 0. -1.
         12    1    1    0    0    0 -0.17097536068E-02  0.34327091102E-02 -0.56060546575E-02  0.67922454354E-02  0.00000000000E+00 0.  1.
         14    1    1    0    0    0 -0.11753752266E-02 -0.25250557256E-02  0.16379123560E-02  0.32311252261E-02  0.00000000000E+00 0.  1.
     999901    1    1    0    0    0  0.57552424369E-02 -0.13886485598E-02  0.33225982482E-02  0.90002560565E+00  0.90000000000E+00 0. -1.
     999903    1    1    0    0    0 -0.50875353112E-02  0.36235852407E-02  0.41839840085E-02  0.21366307770E-01  0.20000000000E-01 0.  0.
</event>
<event>
 7    1  0.4717691E-066  0.9118800E+02  0.7957747E-01            NaN
     999900   -1    0    0    0    0  0.00000000000E+00  0.00000000000E+00  0.99999998245E-14  0.93827000000E+00  0.93827000000E+00 0.  1.
        -11    1    1    0    0    0 -0.48622514934E-03 -0.48585291418E-03  0.13624109013E-02  0.16092707709E-02  0.51100000000E-03 0. -1.
        -14    1    1    0    0    0 -0.14346792732E-03 -0.20973405871E-02 -0.36534944112E-02  0.42151443626E-02  0.00000000000E+00 0. -1.
         12    1    1    0    0    0  0.80401913827E-03  0.15116364164E-02 -0.42860817008E-03  0.17649918962E-02  0.00000000000E+00 0.  1.
         14    1    1    0    0    0 -0.22796323413E-02 -0.22839386331E-02  0.57393412758E-04  0.32274437711E-02  0.00000000000E+00 0.  1.
     999901    1    1    0    0    0  0.33984263213E-02 -0.43495891807E-02  0.19403670496E-01  0.90022606642E+00  0.90000000000E+00 0.  1.
     999903    1    1    0    0    0 -0.12931200415E-02  0.77050848987E-02 -0.16741372229E-01  0.27227082783E-01  0.20000000000E-01 0.  0.
</event>
<event>
 7    1  0.4717691E-066  0.9118800E+02  0.7957747E-01            NaN
     999900   -1    0    0    0    0  0.00000000000E+00  0.00000000000E+00  0.99999998245E-14  0.93827000000E+00  0.93827000000E+00 0.  1.
        -11    1    1    0    0    0  0.16853342931E-02  0.83204303487E-03 -0.11489430919E-02  0.22613797823E-02  0.51100000000E-03 0. -1.
        -14    1    1    0    0    0 -0.45502628232E-03 -0.19741021788E-02  0.50369802011E-02  0.54291157546E-02  0.00000000000E+00 0. -1.
         12    1    1    0    0    0  0.17368991025E-02 -0.13864540188E-02  0.84756600302E-03  0.23785376533E-02  0.00000000000E+00 0.  1.
         14    1    1    0    0    0 -0.93132527677E-03 -0.15880429018E-02  0.88653890835E-03  0.20433301899E-02  0.00000000000E+00 0.  1.
     999901    1    1    0    0    0  0.79563712950E-02  0.11581525452E-01 -0.16355578163E-01  0.90025826323E+00  0.90000000000E+00 0. -1.
     999903    1    1    0    0    0 -0.99922531315E-02 -0.74649693875E-02  0.10733436142E-01  0.25899373390E-01  0.20000000000E-01 0.  0.
</event>
<event>
 7    1  0.4717691E-066  0.9118800E+02  0.7957747E-01            NaN
     999900   -1    0    0    0    0  0.00000000000E+00  0.00000000000E+00  0.99999998245E-14  0.93827000000E+00  0.93827000000E+00 0. -1.
        -11    1    1    0    0    0  0.16895207499E-02  0.50273887528E-03  0.15853913079E-02  0.24252450062E-02  0.51100000000E-03 0. -1.
        -14    1    1    0    0    0 -0.26492392142E-02  0.30324533735E-02 -0.36841228020E-02  0.54577470348E-02  0.00000000000E+00 0. -1.
         12    1    1    0    0    0 -0.16513063906E-02  0.46640051681E-03  0.15189196041E-02  0.22916062056E-02  0.00000000000E+00 0.  1.
         14    1    1    0    0    0  0.33502148786E-03 -0.74245551856E-03 -0.12673521258E-02  0.15065394137E-02  0.00000000000E+00 0.  1.
     999901    1    1    0    0    0 -0.59964206925E-03 -0.18578572154E-01 -0.54314666392E-02  0.90020832241E+00  0.90000000000E+00 0.  1.
     999903    1    1    0    0    0  0.28756454364E-02  0.15319434907E-01  0.72786306550E-02  0.26380539926E-01  0.20000000000E-01 0.  0.
</event>
<event>
 7    1  0.4717691E-066  0.9118800E+02  0.7957747E-01            NaN
     999900   -1    0    0    0    0  0.00000000000E+00  0.00000000000E+00  0.99999998245E-14  0.93827000000E+00  0.93827000000E+00 0. -1.
        -11    1    1    0    0    0 -0.97782519013E-03  0.11529172568E-02  0.19007349656E-02  0.24817886117E-02  0.51100000000E-03 0. -1.
        -14    1    1    0    0    0 -0.11115189939E-02 -0.13951873939E-02 -0.16935666923E-02  0.24597134954E-02  0.00000000000E+00 0. -1.
         12    1    1    0    0    0 -0.20409969056E-02 -0.12470989834E-02  0.28942283490E-02  0.37546613668E-02  0.00000000000E+00 0.  1.
         14    1    1    0    0    0  0.65519782578E-02 -0.44857957619E-02  0.42956337137E-02  0.90279151364E-02  0.00000000000E+00 0.  1.
     999901    1    1    0    0    0 -0.30436608408E-02  0.77401443223E-02 -0.32973370382E-02  0.90004446898E+00  0.90000000000E+00 0.  1.
     999903    1    1    0    0    0  0.62202367265E-03 -0.17649794399E-02 -0.40996932979E-02  0.20501452412E-01  0.20000000000E-01 0.  0.
</event>
<event>
 7    1  0.4717691E-066  0.9118800E+02  0.7957747E-01            NaN
     999900   -1    0    0    0    0  0.00000000000E+00  0.00000000000E+00  0.99999998245E-14  0.93827000000E+00  0.93827000000E+00 0. -1.
        -11    1    1    0    0    0 -0.30072091707E-02 -0.20109930334E-02  0.15603903204E-02  0.39728250564E-02  0.51100000000E-03 0. -1.
        -14    1    1    0    0    0  0.87548482581E-03  0.25253262393E-02 -0.42680626976E-02  0.50358817983E-02  0.00000000000E+00 0. -1.
         12    1    1    0    0    0  0.17596715259E-02 -0.21667858695E-02 -0.34589545575E-02  0.44447465073E-02  0.00000000000E+00 0.  1.
         14    1    1    0    0    0 -0.21243268833E-02  0.10600240085E-03  0.13991581588E-02  0.25459074550E-02  0.00000000000E+00 0.  1.
     999901    1    1    0    0    0 -0.44086053772E-02 -0.53773349003E-03  0.11124724073E-01  0.90007971005E+00  0.90000000000E+00 0. -1.
     999903    1    1    0    0    0  0.69049850795E-02  0.20841837527E-02 -0.63572552967E-02  0.22190929133E-01  0.20000000000E-01 0.  0.
</event>
<event>
 7    1  0.4717691E-066  0.9118800E+02  0.7957747E-01            NaN
     999900   -1    0    0    0    0  0.00000000000E+00  0.00000000000E+00  0.99999998245E-14  0.93827000000E+00  0.93827000000E+00 0. -1.
        -11    1    1    0    0    0  0.38753231205E-02  0.10074629976E-03 -0.33685633118E-03  0.39246493210E-02  0.51100000000E-03 0. -1.
        -14    1    1    0    0    0  0.45845332826E-03 -0.43796873246E-02  0.13511908529E-02  0.46062519728E-02  0.00000000000E+00 0. -1.
         12    1    1    0    0    0  0.21985306224E-02  0.88121630638E-03  0.29187007353E-02  0.37588419837E-02  0.00000000000E+00 0.  1.
         14    1    1    0    0    0 -0.18898221536E-02  0.18213036824E-02 -0.29242122872E-02  0.39293246718E-02  0.00000000000E+00 0.  1.
     999901    1    1    0    0    0 -0.19795238740E-02 -0.37641329246E-02 -0.79822420756E-02  0.90004544519E+00  0.90000000000E+00 0.  1.
     999903    1    1    0    0    0 -0.26629610435E-02  0.53405539607E-02  0.69734191058E-02  0.22005486865E-01  0.20000000000E-01 0.  0.
</event>
<event>
 7    1  0.4717691E-066  0.9118800E+02  0.7957747E-01            NaN
     999900   -1    0    0    0    0  0.00000000000E+00  0.00000000000E+00  0.99999998245E-14  0.93827000000E+00  0.93827000000E+00 0.  1.
        -11    1    1    0    0    0 -0.17809257419E-02  0.42206830565E-02  0.18691687809E-02  0.49740099410E-02  0.51100000000E-03 0. -1.
        -14    1    1    0    0    0  0.88806325247E-03 -0.26766590067E-02 -0.92407306048E-03  0.29676709385E-02  0.00000000000E+00 0. -1.
         12    1    1    0    0    0 -0.15672932975E-02 -0.29601191250E-02 -0.84884600116E-03  0.34553224232E-02  0.00000000000E+00 0.  1.
         14    1    1    0    0    0  0.14508288122E-02  0.16588035734E-02 -0.22152389635E-02  0.31247107390E-02  0.00000000000E+00 0.  1.
     999901    1    1    0    0    0 -0.55629196670E-02  0.84725427752E-02  0.84625108960E-02  0.90009685265E+00  0.90000000000E+00 0. -1.
     999903    1    1    0    0    0  0.65722466418E-02 -0.87152512734E-02 -0.63435216518E-02  0.23651433310E-01  0.20000000000E-01 0.  0.
</event>
<event>
 7    1  0.4717691E-066  0.9118800E+02  0.7957747E-01            NaN
     999900   -1    0    0    0    0  0.00000000000E+00  0.00000000000E+00  0.99999998245E-14  0.93827000000E+00  0.93827000000E+00 0. -1.
        -11    1    1    0    0    0  0.14998634347E-02 -0.88859165328E-03  0.35467417910E-03  0.18509727773E-02  0.51100000000E-03 0. -1.
        -14    1    1    0    0    0 -0.24200440168E-02  0.51525338507E-03 -0.11697824629E-02  0.27368759754E-02  0.00000000000E+00 0. -1.
         12    1    1    0    0    0 -0.92131693516E-03  0.12034306133E-02 -0.32435811592E-02  0.35802079370E-02  0.00000000000E+00 0.  1.
         14    1    1    0    0    0  0.59263656369E-02  0.12173986348E-02  0.14404725248E-02  0.62192306753E-02  0.00000000000E+00 0.  1.
     999901    1    1    0    0    0 -0.75558913113E-02 -0.13745285188E-01 -0.12479278983E-02  0.90013753487E+00  0.90000000000E+00 0.  1.
     999903    1    1    0    0    0  0.34710231917E-02  0.11697794208E-01  0.38661448165E-02  0.23745177765E-01  0.20000000000E-01 0.  0.
</event>
<event>
 7    1  0.4717691E-066  0.9118800E+02  0.7957747E-01            NaN
     999900   -1    0    0    0    0  0.00000000000E+00  0.00000000000E+00  0.99999998245E-14  0.93827000000E+00  0.93827000000E+00 0.  1.
        -11    1    1    0    0    0  0.12916176980E-03 -0.65671540274E-03  0.98979535214E-03  0.12995282691E-02  0.51100000000E-03 0. -1.
        -14    1    1    0    0    0  0.37024002290E-02  0.41577373980E-02 -0.81583970393E-02  0.98769423395E-02  0.00000000000E+00 0. -1.
         12    1    1    0    0    0  0.41441403043E-02  0.30796182271E-03  0.96113194607E-03  0.42652683344E-02  0.00000000000E+00 0.  1.
         14    1    1    0    0    0 -0.17323696204E-02 -0.14733732860E-02  0.10265161142E-02  0.24951289895E-02  0.00000000000E+00 0.  1.
     999901    1    1    0    0    0 -0.94153272960E-02 -0.15297408770E-02  0.53481401477E-02  0.90006643705E+00  0.90000000000E+00 0. -1.
     999903    1    1    0    0    0  0.31719946134E-02 -0.80586965508E-03 -0.16718652076E-03  0.20266695021E-01  0.20000000000E-01 0.  0.
</event>
<event>
 7    1  0.4717691E-066  0.9118800E+02  0.7957747E-01            NaN
     999900   -1    0    0    0    0  0.00000000000E+00  0.00000000000E+00  0.99999998245E-14  0.93827000000E+00  0.93827000000E+00 0. -1.
        -11    1    1    0    0    0  0.89210375314E-03  0.62118582006E-03  0.14602370693E-02  0.18908025354E-02  0.51100000000E-03 0. -1.
        -14    1    1    0    0    0 -0.33369780744E-02  0.92660691696E-03  0.35806832175E-02  0.49814973001E-02  0.00000000000E+00 0. -1.
         12    1    1    0    0    0  0.35251414054E-02  0.36159405172E-03 -0.12963503922E-02  0.37733137327E-02  0.00000000000E+00 0.  1.
         14    1    1    0    0    0 -0.24868121492E-02  0.36422316092E-02  0.22064670209E-02  0.49313874797E-02  0.00000000000E+00 0.  1.
     999901    1    1    0    0    0  0.71976054442E-02 -0.13544271093E-01 -0.25636575153E-02  0.90013433728E+00  0.90000000000E+00 0.  1.
     999903    1    1    0    0    0 -0.57910603792E-02  0.79926526946E-02 -0.33873794001E-02  0.22558661676E-01  0.20000000000E-01 0.  0.
</event>
<event>
 7    1  0.4717691E-066  0.9118800E+02  0.7957747E-01            NaN
     999900   -1    0    0    0    0  0.00000000000E+00  0.00000000000E+00  0.99999998245E-14  0.93827000000E+00  0.93827000000E+00 0. -1.
        -11    1    1    0    0    0 -0.31145131307E-02  0.12768288484E-02  0.14927823189E-02  0.37175265972E-02  0.51100000000E-03 0. -1.
        -14    1    1    0    0    0  0.92912761355E-03 -0.22444519861E-02 -0.39805116556E-02  0.46631873092E-02  0.00000000000E+00 0. -1.
         12    1    1    0    0    0 -0.39889577874E-02 -0.24803807322E-02 -0.25246240181E-02  0.53327103089E-02  0.00000000000E+00 0.  1.
         14    1    1    0    0    0  0.27180628134E-02 -0.15957411422E-02 -0.11689449524E-02  0.33616495285E-02  0.00000000000E+00 0.  1.
     999901    1    1    0    0    0  0.82772824417E-02  0.96411144899E-02  0.56229622895E-02  0.90010726150E+00  0.90000000000E+00 0. -1.
     999903    1    1    0    0    0 -0.48210019505E-02 -0.45973694779E-02  0.55833601769E-03  0.21087664760E-01  0.20000000000E-01 0.  0.
</event>
<event>
 7    1  0.4717691E-066  0.9118800E+02  0.7957747E-01            NaN
     999900   -1    0    0    0    0  0.00000000000E+00  0.00000000000E+00  0.99999998245E-14  0.93827000000E+00  0.93827000000E+00 0.  1.
        -11    1    1    0    0    0  0.43461520698E-03  0.14446574831E-02 -0.11496297041E-02  0.19643561485E-02  0.51100000000E-03 0. -1.
        -14    1    1    0    0    0  0.12736015501E-02 -0.15886973953E-02  0.40132160682E-02  0.45002137208E-02  0.00000000000E+00 0. -1.
         12    1    1    0    0    0  0.29813938690E-02  0.46703454341E-02  0.29666835212E-02  0.62850653927E-02  0.00000000000E+00 0.  1.
         14    1    1    0    0    0  0.75382166888E-03 -0.35241294743E-03 -0.41831902063E-03  0.93136072335E-03  0.00000000000E+00 0.  1.
     999901    1    1    0    0    0 -0.92554976545E-02 -0.11121585598E-01 -0.16748155036E-01  0.90027210031E+00  0.90000000000E+00 0. -1.
     999903    1    1    0    0    0  0.38120653596E-02  0.69476930240E-02  0.11336204172E-01  0.24316903703E-01  0.20000000000E-01 0.  0.
</event>
<event>
 7    1  0.4717691E-066  0.9118800E+02  0.7957747E-01            NaN
     999900   -1    0    0    0    0  0.00000000000E+00  0.00000000000E+00  0.99999998245E-14  0.93827000000E+00  0.93827000000E+00 0.  1.
        -11    1    1    0    0    0 -0.83587668710E-03  0.14333172072E-03  0.42539705826E-03  0.10776444105E-02  0.51100000000E-03 0.  1.
        -14    1    1    0    0    0  0.50116017054E-04 -0.18000494513E-03  0.73708253328E-03  0.76039730161E-03  0.00000000000E+00 0. -1.
         12    1    1    0    0    0 -0.35141573619E-02  0.28397554419E-02  0.82644532631E-02  0.94188481605E-02  0.00000000000E+00 0.  1.
         14    1    1    0    0    0 -0.12814422419E-02 -0.17627626765E-02 -0.20970786764E-02  0.30244281191E-02  0.00000000000E+00 0.  1.
     999901    1    1    0    0    0  0.15421305653E-01  0.43371461561E-03 -0.15325260262E-01  0.90026266632E+00  0.90000000000E+00 0. -1.
     999903    1    1    0    0    0 -0.98399453789E-02 -0.14740341566E-02  0.79954060841E-02  0.23726015683E-01  0.20000000000E-01 0.  0.
</event>
<event>
 7    1  0.4717691E-066  0.9118800E+02  0.7957747E-01            NaN
     999900   -1    0    0    0    0  0.00000000000E+00  0.00000000000E+00  0.99999998245E-14  0.93827000000E+00  0.93827000000E+00 0. -1.
        -11    1    1    0    0    0 -0.18319131736E-02 -0.23348645198E-02  0.22935014796E-02  0.37853359479E-02  0.51100000000E-03 0. -1.
        -14    1    1    0    0    0  0.36966315454E-02 -0.10393888262E-02  0.81705540953E-03  0.39259385447E-02  0.00000000000E+00 0. -1.
         12    1    1    0    0    0 -0.82921478049E-03 -0.12746260499E-02  0.41268688149E-03  0.15756202529E-02  0.00000000000E+00 0.  1.
         14    1    1    0    0    0 -0.51134356212E-02 -0.71025137347E-03 -0.19234128809E-02  0.55091921346E-02  0.00000000000E+00 0.  1.
     999901    1    1    0    0    0  0.99969498338E-02  0.11798232039E-01  0.65965666503E-02  0.90015701518E+00  0.90000000000E+00 0. -1.
     999903    1    1    0    0    0 -0.59190178038E-02 -0.64391012699E-02 -0.81963975401E-02  0.23316897940E-01  0.20000000000E-01 0.  0.
</event>
<event>
 7    1  0.4717691E-066  0.9118800E+02  0.7957747E-01            NaN
     999900   -1    0    0    0    0  0.00000000000E+00  0.00000000000E+00  0.99999998245E-14  0.93827000000E+00  0.93827000000E+00 0.  1.
        -11    1    1    0    0    0 -0.81273043080E-03 -0.35163085644E-03 -0.69896078411E-03  0.12384838271E-02  0.51100000000E-03 0. -1.
        -14    1    1    0    0    0  0.12699906624E-02  0.29890655729E-02 -0.10400235415E-02  0.34101375703E-02  0.00000000000E+00 0. -1.
         12    1    1    0    0    0 -0.28309886254E-03  0.12632672859E-02 -0.31749628685E-03  0.13329640257E-02  0.00000000000E+00 0.  1.
         14    1    1    0    0    0  0.13088250976E-02 -0.17516027535E-02 -0.18317221226E-02  0.28524272605E-02  0.00000000000E+00 0.  1.
     999901    1    1    0    0    0 -0.42544432139E-02 -0.21924584528E-01 -0.32635265778E-02  0.90028297679E+00  0.90000000000E+00 0.  1.
     999903    1    1    0    0    0  0.27714567473E-02  0.19775485279E-01  0.71517293129E-02  0.29153010525E-01  0.20000000000E-01 0.  0.
</event>
<event>
 7    1  0.4717691E-066  0.9118800E+02  0.7957747E-01            NaN
     999900   -1    0    0    0    0  0.00000000000E+00  0.00000000000E+00  0.99999998245E-14  0.93827000000E+00  0.93827000000E+00 0. -1.
        -11    1    1    0    0    0 -0.28726333967E-03 -0.13523324617E-02 -0.21470600019E-02  0.26042870358E-02  0.51100000000E-03 0. -1.
        -14    1    1    0    0    0 -0.10138383229E-03 -0.40809229128E-03  0.14955712597E-02  0.15535608751E-02  0.00000000000E+00 0. -1.
         12    1    1    0    0    0 -0.43075093667E-02 -0.11542754955E-02 -0.62300677966E-02  0.76616403997E-02  0.00000000000E+00 0.  1.
         14    1    1    0    0    0  0.14250896781E-02 -0.35222935455E-03  0.19099960216E-02  0.24089480923E-02  0.00000000000E+00 0.  1.
     999901    1    1    0    0    0 -0.61604777255E-02  0.31394762644E-03  0.13596172639E-01  0.90012382813E+00  0.90000000000E+00 0. -1.
     999903    1    1    0    0    0  0.94315445861E-02  0.29529819766E-02 -0.86246121220E-02  0.23917735472E-01  0.20000000000E-01 0.  0.
</event>
<event>
 7    1  0.4717691E-066  0.9118800E+02  0.7957747E-01            NaN
     999900   -1    0    0    0    0  0.00000000000E+00  0.00000000000E+00  0.99999998245E-14  0.93827000000E+00  0.93827000000E+00 0. -1.
        -11    1    1    0    0    0 -0.45155558469E-02  0.78113625237E-04 -0.23597955190E-02  0.51211426690E-02  0.51100000000E-03 0. -1.
        -14    1    1    0    0    0  0.54674558679E-02 -0.15184062659E-02 -0.12435230835E-02  0.58090430292E-02  0.00000000000E+00 0. -1.
         12    1    1    0    0    0 -0.16542185422E-03  0.16175939662E-02  0.53933814792E-03  0.17131433878E-02  0.00000000000E+00 0.  1.
         14    1    1    0    0    0 -0.15701169263E-02 -0.27463057801E-02 -0.53612050919E-04  0.31639116379E-02  0.00000000000E+00 0.  1.
     999901    1    1    0    0    0 -0.30203661746E-02  0.11387684796E-01  0.13811410189E-03  0.90007711950E+00  0.90000000000E+00 0. -1.
     999903    1    1    0    0    0  0.38040049341E-02 -0.88186803417E-02  0.29794784036E-02  0.22385639773E-01  0.20000000000E-01 0.  0.
</event>
<event>
 7    1  0.4717691E-066  0.9118800E+02  0.7957747E-01            NaN
     999900   -1    0    0    0    0  0.00000000000E+00  0.00000000000E+00  0.99999998245E-14  0.93827000000E+00  0.93827000000E+00 0.  1.
        -11    1    1    0    0    0 -0.27951810345E-02  0.30429941042E-02 -0.11558733312E-02  0.43208811939E-02  0.51100000000E-03 0. -1.
        -14    1    1    0    0    0  0.18205094686E-02 -0.18724069422E-02  0.19948176331E-02  0.32862531661E-02  0.00000000000E+00 0. -1.
         12    1    1    0    0    0 -0.43029111619E-03 -0.75925720134E-03 -0.13040911364E-02  0.15691639922E-02  0.00000000000E+00 0.  1.
         14    1    1    0    0    0 -0.18525214890E-02 -0.10616943120E-02  0.56595615333E-02  0.60489393639E-02  0.00000000000E+00 0.  1.
     999901    1    1    0    0    0  0.95390808899E-02 -0.23993892446E-02  0.37203895197E-02  0.90006143814E+00  0.90000000000E+00 0.  1.
     999903    1    1    0    0    0 -0.62815967188E-02  0.30497535959E-02 -0.89148042184E-02  0.22983324141E-01  0.20000000000E-01 0.  0.
</event>
<event>
 7    1  0.4717691E-066  0.9118800E+02  0.7957747E-01            NaN
     999900   -1    0    0    0    0  0.00000000000E+00  0.00000000000E+00  0.99999998245E-14  0.93827000000E+00  0.93827000000E+00 0.  1.
        -11    1    1    0    0    0 -0.16406599465E-02  0.40152467227E-02  0.63043344692E-02  0.76694018935E-02  0.51100000000E-03 0. -1.
        -14    1    1    0    0    0 -0.92578832857E-03 -0.30220579720E-03  0.47856882435E-03  0.10850993009E-02  0.00000000000E+00 0. -1.
         12    1    1    0    0    0 -0.14216904210E-02 -0.25807451506E-02 -0.28523921364E-02  0.41009255157E-02  0.00000000000E+00 0.  1.
         14    1    1    0    0    0  0.72502242573E-03  0.14038174352E-02 -0.50075540975E-03  0.16574428767E-02  0.00000000000E+00 0.  1.
     999901    1    1    0    0    0  0.45431635370E-02 -0.13562984003E-01 -0.92221446851E-02  0.90016089830E+00  0.90000000000E+00 0. -1.
     999903    1    1    0    0    0 -0.12800472667E-02  0.11026870793E-01  0.57923889377E-02  0.23596232116E-01  0.20000000000E-01 0.  0.
</event>
<event>
 7    1  0.4717691E-066  0.9118800E+02  0.7957747E-01            NaN
     999900   -1    0    0    0    0  0.00000000000E+00  0.00000000000E+00  0.99999998245E-14  0.93827000000E+00  0.93827000000E+00 0. -1.
        -11    1    1    0    0    0 -0.29512178992E-02 -0.41848148292E-03  0.49568060772E-02  0.58065360868E-02  0.51100000000E-03 0. -1.
        -14    1    1    0    0    0 -0.22408539448E-03  0.49016414791E-02 -0.75156954336E-04  0.49073365507E-02  0.00000000000E+00 0. -1.
         12    1    1    0    0    0  0.12726960035E-02 -0.56912678613E-03 -0.35225637178E-03  0.14379655654E-02  0.00000000000E+00 0.  1.
         14    1    1    0    0    0 -0.22575479022E-02 -0.14726185608E-02 -0.11420989589E-02  0.29273739064E-02  0.00000000000E+00 0.  1.
     999901    1    1    0    0    0  0.78210175127E-02 -0.11972025724E-01 -0.85310086369E-02  0.90015402894E+00  0.90000000000E+00 0.  1.
     999903    1    1    0    0    0 -0.36608623203E-02  0.95306110747E-02  0.51437148447E-02  0.23036758947E-01  0.20000000000E-01 0.  0.
</event>
<event>
 7    1  0.4717691E-066  0.9118800E+02  0.7957747E-01            NaN
     999900   -1    0    0    0    0  0.00000000000E+00  0.00000000000E+00  0.99999998245E-14  0.93827000000E+00  0.93827000000E+00 0.  1.
        -11    1    1    0    0    0  0.26730987996E-02 -0.30290629434E-02 -0.12662746832E-02  0.42644169684E-02  0.51100000000E-03 0. -1.
        -14    1    1    0    0    0  0.15198978414E-04 -0.23865411929E-02  0.35555245351E-03  0.24129292201E-02  0.00000000000E+00 0. -1.
         12    1    1    0    0    0 -0.45128830270E-02  0.47464764095E-03  0.33083567023E-02  0.56157481842E-02  0.00000000000E+00 0.  1.
         14    1    1    0    0    0  0.40532457378E-03 -0.23463985563E-03  0.41910966045E-03  0.62848769236E-03  0.00000000000E+00 0.  1.
     999901    1    1    0    0    0  0.16218053684E-01  0.33516614255E-02  0.71825612312E-03  0.90015263972E+00  0.90000000000E+00 0.  1.
     999903    1    1    0    0    0 -0.14798793009E-01  0.18239349254E-02 -0.35350002562E-02  0.25195778217E-01  0.20000000000E-01 0.  0.
</event>
<event>
 7    1  0.4717691E-066  0.9118800E+02  0.7957747E-01            NaN
     999900   -1    0    0    0    0  0.00000000000E+00  0.00000000000E+00  0.99999998245E-14  0.93827000000E+00  0.93827000000E+00 0.  1.
        -11    1    1    0    0    0 -0.11314917214E-02  0.25122598309E-02 -0.16625976536E-03  0.28072203838E-02  0.51100000000E-03 0. -1.
        -14    1    1    0    0    0  0.17589181061E-02 -0.16508690219E-02  0.12782952521E-02  0.27300549780E-02  0.00000000000E+00 0. -1.
         12    1    1    0    0    0 -0.25760233443E-02 -0.59597878378E-02  0.21846909886E-02  0.68503899201E-02  0.00000000000E+00 0.  1.
         14    1    1    0    0    0  0.28817636983E-02  0.15392400843E-02  0.24880781539E-02  0.41066233026E-02  0.00000000000E+00 0.  1.
     999901    1    1    0    0    0 -0.40827725118E-02  0.52917182083E-02 -0.13263951980E-01  0.90012254929E+00  0.90000000000E+00 0. -1.
     999903    1    1    0    0    0  0.31496057731E-02 -0.17325612639E-02  0.74791473509E-02  0.21653162128E-01  0.20000000000E-01 0.  0.
</event>
<event>
 7    1  0.4717691E-066  0.9118800E+02  0.7957747E-01            NaN
     999900   -1    0    0    0    0  0.00000000000E+00  0.00000000000E+00  0.99999998245E-14  0.93827000000E+00  0.93827000000E+00 0. -1.
        -11    1    1    0    0    0  0.22611321646E-03 -0.50143736923E-02 -0.22094417702E-02  0.55079782723E-02  0.51100000000E-03 0. -1.
        -14    1    1    0    0    0 -0.19040821776E-03  0.64974596125E-03  0.10846714860E-02  0.12786466815E-02  0.00000000000E+00 0. -1.
         12    1    1    0    0    0 -0.17479874434E-03  0.64821328534E-03 -0.34859173539E-03  0.75647290916E-03  0.00000000000E+00 0.  1.
         14    1    1    0    0    0 -0.33217195797E-02  0.39418468231E-02  0.52139667267E-02  0.73319456061E-02  0.00000000000E+00 0.  1.
     999901    1    1    0    0    0  0.61193961967E-02 -0.66722365826E-02  0.60379816248E-02  0.90006578814E+00  0.90000000000E+00 0.  1.
     999903    1    1    0    0    0 -0.26585828713E-02  0.64468042053E-02 -0.97785863320E-02  0.23329168395E-01  0.20000000000E-01 0.  0.
</event>
<event>
 7    1  0.5059736E-066  0.9118800E+02  0.7957747E-01            NaN
     999900   -1    0    0    0    0  0.00000000000E+00  0.00000000000E+00  0.99999998245E-14  0.93827000000E+00  0.93827000000E+00 0.  1.
        -11    1    1    0    0    0  0.89490936500E-03  0.45699492064E-02 -0.54179658937E-02  0.71624558600E-02  0.51100000000E-03 0. -1.
        -14    1    1    0    0    0 -0.32688925885E-02  0.33197808393E-02  0.48742093362E-03  0.46844618413E-02  0.00000000000E+00 0. -1.
         12    1    1    0    0    0  0.18954013212E-03 -0.30008425754E-02 -0.41047369248E-03  0.30347109049E-02  0.00000000000E+00 0.  1.
         14    1    1    0    0    0 -0.19424816259E-02  0.18208047770E-02 -0.20512870735E-03  0.26703263264E-02  0.00000000000E+00 0.  1.
     999901    1    1    0    0    0  0.12344943549E-03 -0.45810828040E-02  0.27131378856E-02  0.90001575690E+00  0.90000000000E+00 0.  1.
     999903    1    1    0    0    0  0.40034752818E-02 -0.21286094431E-02  0.28330094743E-02  0.20702288163E-01  0.20000000000E-01 0.  0.
</event>
<event>
 7    1  0.4717691E-066  0.9118800E+02  0.7957747E-01            NaN
     999900   -1    0    0    0    0  0.00000000000E+00  0.00000000000E+00  0.99999998245E-14  0.93827000000E+00  0.93827000000E+00 0.  1.
        -11    1    1    0    0    0 -0.11361547970E-02 -0.16147909826E-02  0.25592915028E-02  0.32725359641E-02  0.51100000000E-03 0. -1.
        -14    1    1    0    0    0 -0.24383108442E-03  0.39175998592E-02  0.51445924950E-03  0.39587511382E-02  0.00000000000E+00 0. -1.
         12    1    1    0    0    0 -0.25478950374E-02  0.12466034312E-02 -0.31227242556E-02  0.42186723045E-02  0.00000000000E+00 0.  1.
         14    1    1    0    0    0  0.10573970986E-02  0.24565242660E-02  0.58468584000E-03  0.27376007059E-02  0.00000000000E+00 0.  1.
     999901    1    1    0    0    0 -0.14266925063E-03 -0.18929155498E-02 -0.12763593162E-01  0.90009250235E+00  0.90000000000E+00 0. -1.
     999903    1    1    0    0    0  0.30131530708E-02 -0.41130210240E-02  0.12227880825E-01  0.23989937533E-01  0.20000000000E-01 0.  0.
</event>
<event>
 7    1  0.4717691E-066  0.9118800E+02  0.7957747E-01            NaN
     999900   -1    0    0    0    0  0.00000000000E+00  0.00000000000E+00  0.99999998245E-14  0.93827000000E+00  0.93827000000E+00 0.  1.
        -11    1    1    0    0    0 -0.36476820381E-02  0.19695910777E-02 -0.14185990558E-02  0.44111696346E-02  0.51100000000E-03 0. -1.
        -14    1    1    0    0    0  0.74849152153E-03 -0.62513834246E-04 -0.54222095773E-03  0.92636445543E-03  0.00000000000E+00 0. -1.
         12    1    1    0    0    0  0.89616116500E-03  0.27179272506E-02  0.31583125454E-02  0.42620618845E-02  0.00000000000E+00 0.  1.
         14    1    1    0    0    0  0.77534115495E-03  0.46622418616E-02 -0.44716546764E-02  0.65064082739E-02  0.00000000000E+00 0.  1.
     999901    1    1    0    0    0  0.98450431410E-02 -0.12523869840E-01  0.30461955589E-02  0.90014612786E+00  0.90000000000E+00 0. -1.
     999903    1    1    0    0    0 -0.86173549444E-02  0.32366234842E-02  0.22796658564E-03  0.22017867894E-01  0.20000000000E-01 0.  0.
</event>
<event>
 7    1  0.4717691E-066  0.9118800E+02  0.7957747E-01            NaN
     999900   -1    0    0    0    0  0.00000000000E+00  0.00000000000E+00  0.99999998245E-14  0.93827000000E+00  0.93827000000E+00 0. -1.
        -11    1    1    0    0    0  0.18663145863E-02 -0.20040087917E-02 -0.20931038766E-02  0.34844491975E-02  0.51100000000E-03 0. -1.
        -14    1    1    0    0    0  0.22599125913E-02  0.40614477921E-02  0.54554884421E-03  0.46797635228E-02  0.00000000000E+00 0. -1.
         12    1    1    0    0    0 -0.37346084954E-02 -0.52392730473E-02  0.17730790391E-02  0.66739112938E-02  0.00000000000E+00 0.  1.
         14    1    1    0    0    0  0.28910609958E-03  0.12833783534E-02 -0.11359400428E-03  0.13204339941E-02  0.00000000000E+00 0.  1.
     999901    1    1    0    0    0  0.23056089067E-02  0.11464667155E-02  0.86867914097E-02  0.90004560471E+00  0.90000000000E+00 0. -1.
     999903    1    1    0    0    0 -0.29863336885E-02  0.75198897800E-03 -0.87987214121E-02  0.22065837279E-01  0.20000000000E-01 0.  0.
</event>
<event>
 7    1  0.4717691E-066  0.9118800E+02  0.7957747E-01            NaN
     999900   -1    0    0    0    0  0.00000000000E+00  0.00000000000E+00  0.99999998245E-14  0.93827000000E+00  0.93827000000E+00 0.  1.
        -11    1    1    0    0    0 -0.52143542849E-02  0.23525320063E-04 -0.25877139433E-02  0.58435801100E-02  0.51100000000E-03 0. -1.
        -14    1    1    0    0    0 -0.37345810928E-03 -0.14124431974E-02 -0.10493806593E-02  0.17987958509E-02  0.00000000000E+00 0. -1.
         12    1    1    0    0    0 -0.58350382177E-03 -0.57795181408E-02  0.23403536148E-02  0.62626321697E-02  0.00000000000E+00 0.  1.
         14    1    1    0    0    0 -0.22592545056E-02  0.20411276769E-02 -0.14305229165E-02  0.33640494837E-02  0.00000000000E+00 0.  1.
     999901    1    1    0    0    0  0.13734677410E-01  0.61062639699E-02  0.51904604883E-02  0.90014047165E+00  0.90000000000E+00 0.  1.
     999903    1    1    0    0    0 -0.53041066881E-02 -0.97895562856E-03 -0.24631965840E-02  0.20860470735E-01  0.20000000000E-01 0.  0.
</event>
<event>
 7    1  0.4717691E-066  0.9118800E+02  0.7957747E-01            NaN
     999900   -1    0    0    0    0  0.00000000000E+00  0.00000000000E+00  0.99999998245E-14  0.93827000000E+00  0.93827000000E+00 0.  1.
        -11    1    1    0    0    0  0.27890509753E-02  0.47572032789E-02  0.35499599487E-02  0.65782311465E-02  0.51100000000E-03 0. -1.
        -14    1    1    0    0    0  0.58599943785E-03  0.79817051464E-03  0.16356940595E-02  0.19120582020E-02  0.00000000000E+00 0. -1.
         12    1    1    0    0    0  0.11246379267E-02  0.34772255567E-02 -0.24193402038E-02  0.43828204458E-02  0.00000000000E+00 0.  1.
         14    1    1    0    0    0 -0.26000639790E-03  0.13935752264E-02 -0.81880691416E-04  0.14199858050E-02  0.00000000000E+00 0.  1.
     999901    1    1    0    0    0  0.41284458728E-02 -0.69627990208E-02  0.67970702134E-02  0.90006206719E+00  0.90000000000E+00 0.  1.
     999903    1    1    0    0    0 -0.83681278148E-02 -0.34633755559E-02 -0.94815033263E-02  0.23914837208E-01  0.20000000000E-01 0.  0.
</event>
<event>
 7    1  0.4717691E-066  0.9118800E+02  0.7957747E-01            NaN
     999900   -1    0    0    0    0  0.00000000000E+00  0.00000000000E+00  0.99999998245E-14  0.93827000000E+00  0.93827000000E+00 0.  1.
        -11    1    1    0    0    0 -0.82512040415E-03 -0.13628752347E-02  0.38030060296E-03  0.17158094694E-02  0.51100000000E-03 0. -1.
        -14    1    1    0    0    0  0.94065027810E-03  0.11391170237E-02  0.55584764433E-03  0.15784096879E-02  0.00000000000E+00 0. -1.
         12    1    1    0    0    0 -0.26612335892E-03 -0.25849018216E-02 -0.56728866025E-02  0.62397260736E-02  0.00000000000E+00 0.  1.
         14    1    1    0    0    0  0.27701627395E-03  0.27804516706E-03  0.36716463829E-02  0.36925647309E-02  0.00000000000E+00 0.  1.
     999901    1    1    0    0    0 -0.13187716643E-01  0.11131767443E-02  0.79888334323E-02  0.90013275493E+00  0.90000000000E+00 0.  1.
     999903    1    1    0    0    0  0.13061293854E-01  0.14174381212E-02 -0.69237414600E-02  0.24910735111E-01  0.20000000000E-01 0.  0.
</event>
<event>
 7    1  0.4717691E-066  0.9118800E+02  0.7957747E-01            NaN
     999900   -1    0    0    0    0  0.00000000000E+00  0.00000000000E+00  0.99999998245E-14  0.93827000000E+00  0.93827000000E+00 0. -1.
        -11    1    1    0    0    0 -0.10532845458E-02 -0.75187433707E-02 -0.91426354941E-03  0.76640660910E-02  0.51100000000E-03 0. -1.
        -14    1    1    0    0    0  0.27004985267E-02  0.15155393574E-02 -0.18436571041E-02  0.36039732732E-02  0.00000000000E+00 0. -1.
         12    1    1    0    0    0  0.89665036651E-03  0.77202009452E-03  0.17018650825E-02  0.20727618448E-02  0.00000000000E+00 0.  1.
         14    1    1    0    0    0 -0.69809933770E-03 -0.10661435221E-02 -0.23357422543E-02  0.26607699212E-02  0.00000000000E+00 0.  1.
     999901    1    1    0    0    0 -0.76837999283E-02  0.13662381365E-01  0.22192177746E-02  0.90013922611E+00  0.90000000000E+00 0.  1.
     999903    1    1    0    0    0  0.58380349185E-02 -0.73650539241E-02  0.11725800507E-02  0.22129202764E-01  0.20000000000E-01 0.  0.
</event>
<event>
 7    1  0.4717691E-066  0.9118800E+02  0.7957747E-01            NaN
     999900   -1    0    0    0    0  0.00000000000E+00  0.00000000000E+00  0.99999998245E-14  0.93827000000E+00  0.93827000000E+00 0.  1.
        -11    1    1    0    0    0  0.17626744949E-02  0.40367051436E-02  0.15499896630E-02  0.46974034047E-02  0.51100000000E-03 0. -1.
        -14    1    1    0    0    0  0.73989558510E-03 -0.28765870786E-02 -0.12667020712E-02  0.32290451893E-02  0.00000000000E+00 0. -1.
         12    1    1    0    0    0  0.26454599923E-02 -0.17083763283E-02 -0.12321906933E-02  0.33816123602E-02  0.00000000000E+00 0.  1.
         14    1    1    0    0    0 -0.21278992390E-02 -0.21193932143E-02 -0.33214483447E-02  0.44779238354E-02  0.00000000000E+00 0.  1.
     999901    1    1    0    0    0 -0.45177160397E-02 -0.66159645759E-02  0.79994054411E-02  0.90007120342E+00  0.90000000000E+00 0.  1.
     999903    1    1    0    0    0  0.14975852065E-02  0.92836160536E-02 -0.37290539949E-02  0.22412811787E-01  0.20000000000E-01 0.  0.
</event>
<event>
 7    1  0.4717691E-066  0.9118800E+02  0.7957747E-01            NaN
     999900   -1    0    0    0    0  0.00000000000E+00  0.00000000000E+00  0.99999998245E-14  0.93827000000E+00  0.93827000000E+00 0. -1.
        -11    1    1    0    0    0  0.15499273312E-03 -0.11206311139E-02 -0.21816086325E-02  0.25100545943E-02  0.51100000000E-03 0. -1.
        -14    1    1    0    0    0 -0.34839470442E-03 -0.17583236158E-02  0.10526770828E-02  0.20787519930E-02  0.00000000000E+00 0. -1.
         12    1    1    0    0    0 -0.51816631165E-02 -0.75529374338E-03  0.69236559629E-02  0.86808474923E-02  0.00000000000E+00 0.  1.
         14    1    1    0    0    0  0.98521873251E-03  0.57163125315E-04 -0.11375441974E-02  0.15059649315E-02  0.00000000000E+00 0.  1.
     999901    1    1    0    0    0 -0.13927119741E-02  0.14043983341E-01 -0.63208373321E-02  0.90013283803E+00  0.90000000000E+00 0.  1.
     999903    1    1    0    0    0  0.57825583294E-02 -0.10466897993E-01  0.16636571164E-02  0.23361542959E-01  0.20000000000E-01 0.  0.
</event>
<event>
 7    1  0.4717691E-066  0.9118800E+02  0.7957747E-01            NaN
     999900   -1    0    0    0    0  0.00000000000E+00  0.00000000000E+00  0.99999998245E-14  0.93827000000E+00  0.93827000000E+00 0. -1.
        -11    1    1    0    0    0  0.23649081487E-03  0.11516291550E-02 -0.10889624983E-02  0.16820041435E-02  0.51100000000E-03 0. -1.
        -14    1    1    0    0    0 -0.29179602977E-02 -0.50777388731E-02  0.83196698846E-04  0.58570338955E-02  0.00000000000E+00 0. -1.
         12    1    1    0    0    0 -0.14665633041E-02 -0.70021898817E-03  0.66001448705E-02  0.67972808437E-02  0.00000000000E+00 0.  1.
         14    1    1    0    0    0  0.10059593182E-02  0.73731440494E-03 -0.66634527595E-03  0.14140730916E-02  0.00000000000E+00 0.  1.
     999901    1    1    0    0    0  0.45376222401E-02  0.95507439521E-02 -0.13057690337E-01  0.90015682523E+00  0.90000000000E+00 0.  1.
     999903    1    1    0    0    0 -0.13955487713E-02 -0.56617296507E-02  0.81296565423E-02  0.22362782799E-01  0.20000000000E-01 0.  0.
</event>
<event>
 7    1  0.4717691E-066  0.9118800E+02  0.7957747E-01            NaN
     999900   -1    0    0    0    0  0.00000000000E+00  0.00000000000E+00  0.99999998245E-14  0.93827000000E+00  0.93827000000E+00 0. -1.
        -11    1    1    0    0    0  0.28787297230E-02  0.18518800508E-02 -0.54187629386E-02  0.64296700791E-02  0.51100000000E-03 0. -1.
        -14    1    1    0    0    0 -0.14510805390E-02 -0.10113076853E-03  0.16480616391E-02  0.21981740899E-02  0.00000000000E+00 0. -1.
         12    1    1    0    0    0  0.32620016263E-04  0.24053571498E-02 -0.17707700855E-02  0.29870443217E-02  0.00000000000E+00 0.  1.
         14    1    1    0    0    0 -0.13340487183E-02 -0.14580076745E-02 -0.19263372871E-02  0.27597550082E-02  0.00000000000E+00 0.  1.
     999901    1    1    0    0    0 -0.98412344241E-02 -0.10869996002E-01  0.56543562598E-02  0.90013719979E+00  0.90000000000E+00 0. -1.
     999903    1    1    0    0    0  0.97150139422E-02  0.81718972447E-02  0.18134524123E-02  0.23758156707E-01  0.20000000000E-01 0.  0.
</event>
<event>
 7    1  0.4717691E-066  0.9118800E+02  0.7957747E-01            NaN
     999900   -1    0    0    0    0  0.00000000000E+00  0.00000000000E+00  0.99999998245E-14  0.93827000000E+00  0.93827000000E+00 0. -1.
        -11    1    1    0    0    0  0.15358213071E-02 -0.19173572906E-02  0.19798127449E-02  0.31962142563E-02  0.51100000000E-03 0. -1.
        -14    1    1    0    0    0 -0.17940203123E-02  0.16256026390E-02  0.10108682340E-02  0.26235371938E-02  0.00000000000E+00 0. -1.
         12    1    1    0    0    0  0.15156384765E-02 -0.30171927779E-02  0.14357077945E-02  0.36690419896E-02  0.00000000000E+00 0.  1.
         14    1    1    0    0    0 -0.30687077513E-02  0.33348224928E-03 -0.13183001929E-02  0.33565001224E-02  0.00000000000E+00 0.  1.
     999901    1    1    0    0    0  0.78070600574E-02 -0.23736950347E-02 -0.16243999170E-01  0.90018356579E+00  0.90000000000E+00 0.  1.
     999903    1    1    0    0    0 -0.59957917774E-02  0.53491602149E-02  0.13135910589E-01  0.25241140645E-01  0.20000000000E-01 0.  0.
</event>
<event>
 7    1  0.4717691E-066  0.9118800E+02  0.7957747E-01            NaN
     999900   -1    0    0    0    0  0.00000000000E+00  0.00000000000E+00  0.99999998245E-14  0.93827000000E+00  0.93827000000E+00 0. -1.
        -11    1    1    0    0    0 -0.53209294380E-03 -0.21625795740E-02 -0.12031000185E-02  0.25823330477E-02  0.51100000000E-03 0. -1.
        -14    1    1    0    0    0  0.26315747691E-02  0.11525754283E-02  0.26185679963E-02  0.38872244898E-02  0.00000000000E+00 0. -1.
         12    1    1    0    0    0 -0.47278204406E-03  0.16683203803E-03  0.16222465024E-02  0.16979515613E-02  0.00000000000E+00 0.  1.
         14    1    1    0    0    0  0.87769522920E-03 -0.51539876248E-02  0.38884623062E-02  0.65156792784E-02  0.00000000000E+00 0.  1.
     999901    1    1    0    0    0 -0.41842014117E-02 -0.61372462070E-02 -0.48755264917E-02  0.90004385676E+00  0.90000000000E+00 0. -1.
     999903    1    1    0    0    0  0.16798064013E-02  0.12134405939E-01 -0.20506502948E-02  0.23542954863E-01  0.20000000000E-01 0.  0.
</event>
<event>
 7    1  0.4717691E-066  0.9118800E+02  0.7957747E-01            NaN
     999900   -1    0    0    0    0  0.00000000000E+00  0.00000000000E+00  0.99999998245E-14  0.93827000000E+00  0.93827000000E+00 0. -1.
        -11    1    1    0    0    0 -0.19743449175E-03  0.11134908011E-02  0.15442457129E-02  0.19810749518E-02  0.51100000000E-03 0. -1.
        -14    1    1    0    0    0  0.11666200371E-02 -0.25367417376E-02  0.17324900660E-02  0.32859675566E-02  0.00000000000E+00 0. -1.
         12    1    1    0    0    0  0.35351134982E-03 -0.18745324803E-02 -0.32907025355E-02  0.38036253064E-02  0.00000000000E+00 0.  1.
         14    1    1    0    0    0 -0.41614670152E-02 -0.15052035919E-02 -0.13061101360E-03  0.44272457361E-02  0.00000000000E+00 0.  1.
     999901    1    1    0    0    0  0.14689048483E-01  0.30110300750E-02 -0.77423345594E-02  0.90015819620E+00  0.90000000000E+00 0.  1.
     999903    1    1    0    0    0 -0.11850278363E-01  0.17919569337E-02  0.78869123296E-02  0.24613890246E-01  0.20000000000E-01 0.  0.
</event>
<event>
 7    1  0.4717691E-066  0.9118800E+02  0.7957747E-01            NaN
     999900   -1    0    0    0    0  0.00000000000E+00  0.00000000000E+00  0.99999998245E-14  0.93827000000E+00  0.93827000000E+00 0. -1.
        -11    1    1    0    0    0 -0.25378806455E-02  0.14519465711E-02  0.19225970383E-02  0.35364512422E-02  0.51100000000E-03 0. -1.
        -14    1    1    0    0    0  0.20407793669E-02  0.21408228976E-02 -0.33404897239E-02  0.44617008751E-02  0.00000000000E+00 0. -1.
         12    1    1    0    0    0 -0.12873014412E-02  0.44533537049E-02  0.16227618630E-02  0.49115028541E-02  0.00000000000E+00 0.  1.
         14    1    1    0    0    0  0.54402238963E-03 -0.23123186558E-02 -0.16484443389E-02  0.28913918214E-02  0.00000000000E+00 0.  1.
     999901    1    1    0    0    0  0.95411851633E-02 -0.10935286129E-01 -0.46577760864E-03  0.90011712107E+00  0.90000000000E+00 0.  1.
     999903    1    1    0    0    0 -0.83008048331E-02  0.52014816112E-02  0.19093527701E-02  0.22351832136E-01  0.20000000000E-01 0.  0.
</event>
<event>
 7    1  0.4717691E-066  0.9118800E+02  0.7957747E-01            NaN
     999900   -1    0    0    0    0  0.00000000000E+00  0.00000000000E+00  0.99999998245E-14  0.93827000000E+00  0.93827000000E+00 0. -1.
        -11    1    1    0    0    0  0.21167114526E-02 -0.63810054036E-05 -0.96985091490E-03  0.23837449293E-02  0.51100000000E-03 0. -1.
        -14    1    1    0    0    0 -0.38905303471E-02  0.13460436874E-02  0.79824368295E-03  0.41934774314E-02  0.00000000000E+00 0. -1.
         12    1    1    0    0    0  0.50831793068E-03  0.17194994274E-03 -0.36631650396E-02  0.37022603918E-02  0.00000000000E+00 0.  1.
         14    1    1    0    0    0  0.61720613355E-03 -0.70257574466E-03  0.22753216910E-02  0.24600091231E-02  0.00000000000E+00 0.  1.
     999901    1    1    0    0    0 -0.13538685274E-01  0.17763182856E-03 -0.50476297696E-02  0.90011599592E+00  0.90000000000E+00 0.  1.
     999903    1    1    0    0    0  0.14186980105E-01 -0.98666870861E-03  0.66070803501E-02  0.25414512200E-01  0.20000000000E-01 0.  0.
</event>
<event>
 7    1  0.4717691E-066  0.9118800E+02  0.7957747E-01            NaN
     999900   -1    0    0    0    0  0.00000000000E+00  0.00000000000E+00  0.99999998245E-14  0.93827000000E+00  0.93827000000E+00 0.  1.
        -11    1    1    0    0    0 -0.22161941750E-02  0.75247792543E-03  0.73120929556E-03  0.25047011166E-02  0.51100000000E-03 0. -1.
        -14    1    1    0    0    0 -0.18156735120E-03  0.17807121794E-02  0.11042795248E-02  0.21031728027E-02  0.00000000000E+00 0. -1.
         12    1    1    0    0    0  0.20132245384E-02 -0.72216996878E-03 -0.11411754612E-02  0.24242285245E-02  0.00000000000E+00 0.  1.
         14    1    1    0    0    0  0.43760971199E-03 -0.87376764594E-03  0.31881115811E-02  0.33345205972E-02  0.00000000000E+00 0.  1.
     999901    1    1    0    0    0 -0.11716055446E-01 -0.35243402582E-02  0.11196591142E-01  0.90015279291E+00  0.90000000000E+00 0. -1.
     999903    1    1    0    0    0  0.11662982722E-01  0.25870877681E-02 -0.15079016082E-01  0.27750584050E-01  0.20000000000E-01 0.  0.
</event>
<event>
 7    1  0.4717691E-066  0.9118800E+02  0.7957747E-01            NaN
     999900   -1    0    0    0    0  0.00000000000E+00  0.00000000000E+00  0.99999998245E-14  0.93827000000E+00  0.93827000000E+00 0.  1.
        -11    1    1    0    0    0 -0.15123711448E-02  0.38268499786E-02 -0.90029404473E-03  0.42430764317E-02  0.51100000000E-03 0. -1.
        -14    1    1    0    0    0 -0.49537602260E-03  0.43573014455E-03  0.26349630705E-02  0.27163005256E-02  0.00000000000E+00 0. -1.
         12    1    1    0    0    0 -0.13771946600E-02  0.19731123808E-03 -0.23748524081E-02  0.27523664030E-02  0.00000000000E+00 0.  1.
         14    1    1    0    0    0  0.69133502646E-02 -0.69873794789E-04 -0.22774323281E-03  0.69174533759E-02  0.00000000000E+00 0.  1.
     999901    1    1    0    0    0  0.31763291851E-02 -0.39046342441E-02 -0.38407748959E-02  0.90002227016E+00  0.90000000000E+00 0. -1.
     999903    1    1    0    0    0 -0.67047376222E-02 -0.48538332239E-03  0.47087015111E-02  0.21618533102E-01  0.20000000000E-01 0.  0.
</event>
<event>
 7    1  0.4717691E-066  0.9118800E+02  0.7957747E-01            NaN
     999900   -1    0    0    0    0  0.00000000000E+00  0.00000000000E+00  0.99999998245E-14  0.93827000000E+00  0.93827000000E+00 0. -1.
        -11    1    1    0    0    0  0.12695010021E-02  0.23203623315E-02  0.20238621320E-03  0.27014431927E-02  0.51100000000E-03 0. -1.
        -14    1    1    0    0    0  0.42317400775E-02 -0.38776178184E-02 -0.78911217889E-03  0.57936380677E-02  0.00000000000E+00 0. -1.
         12    1    1    0    0    0 -0.25410307800E-02  0.72789041172E-03  0.77786784365E-03  0.27553112816E-02  0.00000000000E+00 0.  1.
         14    1    1    0    0    0 -0.20720778659E-02  0.15780814803E-02 -0.21971219348E-02  0.34075200127E-02  0.00000000000E+00 0.  1.
     999901    1    1    0    0    0  0.83984457181E-03 -0.12835073602E-01 -0.26960018290E-04  0.90009190930E+00  0.90000000000E+00 0.  1.
     999903    1    1    0    0    0 -0.17279770055E-02  0.12086357197E-01  0.20329400752E-02  0.23520178149E-01  0.20000000000E-01 0.  0.
</event>
<event>
 7    1  0.4717691E-066  0.9118800E+02  0.7957747E-01            NaN
     999900   -1    0    0    0    0  0.00000000000E+00  0.00000000000E+00  0.99999998245E-14  0.93827000000E+00  0.93827000000E+00 0. -1.
        -11    1    1    0    0    0 -0.87431963790E-03 -0.32030594079E-02 -0.13711956940E-02  0.36284050257E-02  0.51100000000E-03 0. -1.
        -14    1    1    0    0    0 -0.13983617021E-02  0.35431074018E-02  0.13530200313E-02  0.40422380825E-02  0.00000000000E+00 0. -1.
         12    1    1    0    0    0 -0.49963255736E-03  0.50110718030E-02 -0.18555610542E-02  0.53668966948E-02  0.00000000000E+00 0.  1.
         14    1    1    0    0    0 -0.21841662054E-02  0.56297851728E-03 -0.18298725419E-02  0.29044724724E-02  0.00000000000E+00 0.  1.
     999901    1    1    0    0    0  0.10169424825E-01 -0.12952668112E-01  0.74137239238E-02  0.90018117738E+00  0.90000000000E+00 0.  1.
     999903    1    1    0    0    0 -0.52129447219E-02  0.70385697978E-02 -0.37101146650E-02  0.22146810341E-01  0.20000000000E-01 0.  0.
</event>
<event>
 7    1  0.4717691E-066  0.9118800E+02  0.7957747E-01            NaN
     999900   -1    0    0    0    0  0.00000000000E+00  0.00000000000E+00  0.99999998245E-14  0.93827000000E+00  0.93827000000E+00 0.  1.
        -11    1    1    0    0    0 -0.54142307758E-03  0.30136850375E-03 -0.20544938197E-02  0.22059074729E-02  0.51100000000E-03 0. -1.
        -14    1    1    0    0    0 -0.30006337977E-02 -0.94213314995E-02  0.11775924750E-02  0.99575104544E-02  0.00000000000E+00 0. -1.
         12    1    1    0    0    0 -0.76175768763E-03  0.95668635637E-03 -0.78459964180E-03  0.14529694274E-02  0.00000000000E+00 0.  1.
         14    1    1    0    0    0  0.10653357150E-02  0.70045474141E-03  0.19541419162E-02  0.23332911646E-02  0.00000000000E+00 0.  1.
     999901    1    1    0    0    0  0.11626467839E-01  0.11287353117E-01  0.22751586218E-02  0.90014874073E+00  0.90000000000E+00 0.  1.
     999903    1    1    0    0    0 -0.83879889907E-02 -0.38245312193E-02 -0.25677995514E-02  0.22171580749E-01  0.20000000000E-01 0.  0.
</event>
<event>
 7    1  0.4717691E-066  0.9118800E+02  0.7957747E-01            NaN
     999900   -1    0    0    0    0  0.00000000000E+00  0.00000000000E+00  0.99999998245E-14  0.93827000000E+00  0.93827000000E+00 0. -1.
        -11    1    1    0    0    0 -0.57407675925E-02 -0.13764712197E-02 -0.38539847627E-02  0.70686211612E-02  0.51100000000E-03 0. -1.
        -14    1    1    0    0    0  0.42186870053E-03  0.12865967476E-03  0.14648434221E-02  0.15298015439E-02  0.00000000000E+00 0. -1.
         12    1    1    0    0    0 -0.25996224259E-02 -0.10459980121E-02 -0.19453350062E-02  0.34112280611E-02  0.00000000000E+00 0.  1.
         14    1    1    0    0    0 -0.25178797551E-03 -0.33734034251E-02  0.35342512302E-03  0.34011993724E-02  0.00000000000E+00 0.  1.
     999901    1    1    0    0    0  0.39101165182E-02  0.28951909212E-03  0.12417527659E-01  0.90009419942E+00  0.90000000000E+00 0. -1.
     999903    1    1    0    0    0  0.42601927752E-02  0.53776938900E-02 -0.84364764352E-02  0.22764950444E-01  0.20000000000E-01 0.  0.
</event>
<event>
 7    1  0.4717691E-066  0.9118800E+02  0.7957747E-01            NaN
     999900   -1    0    0    0    0  0.00000000000E+00  0.00000000000E+00  0.99999998245E-14  0.93827000000E+00  0.93827000000E+00 0. -1.
        -11    1    1    0    0    0  0.22694971327E-02  0.29105963594E-02  0.12270670289E-02  0.39228819631E-02  0.51100000000E-03 0. -1.
        -14    1    1    0    0    0 -0.52281146207E-02 -0.11129868510E-02 -0.11413725474E-03  0.53464894586E-02  0.00000000000E+00 0. -1.
         12    1    1    0    0    0  0.15896341890E-02 -0.51283578689E-03  0.21950520475E-02  0.27582949244E-02  0.00000000000E+00 0.  1.
         14    1    1    0    0    0 -0.10705387812E-02 -0.24879615941E-02  0.14894054907E-03  0.27125982863E-02  0.00000000000E+00 0.  1.
     999901    1    1    0    0    0  0.12715362235E-01 -0.15442162932E-02  0.25478656349E-02  0.90009474871E+00  0.90000000000E+00 0. -1.
     999903    1    1    0    0    0 -0.10275840154E-01  0.27474041658E-02 -0.60047880056E-02  0.23434986655E-01  0.20000000000E-01 0.  0.
</event>
<event>
 7    1  0.4717691E-066  0.9118800E+02  0.7957747E-01            NaN
     999900   -1    0    0    0    0  0.00000000000E+00  0.00000000000E+00  0.99999998245E-14  0.93827000000E+00  0.93827000000E+00 0. -1.
        -11    1    1    0    0    0  0.15164562535E-02  0.27524451219E-02 -0.23635690476E-03  0.31925819182E-02  0.51100000000E-03 0. -1.
        -14    1    1    0    0    0 -0.29148827127E-02  0.45826947033E-02 -0.43143150020E-02  0.69362054402E-02  0.00000000000E+00 0. -1.
         12    1    1    0    0    0  0.44283486656E-03 -0.26754631692E-03  0.84965732840E-03  0.99478707593E-03  0.00000000000E+00 0.  1.
         14    1    1    0    0    0 -0.11595100769E-03 -0.15011573840E-02 -0.64065039035E-03  0.16362613026E-02  0.00000000000E+00 0.  1.
     999901    1    1    0    0    0  0.15836507612E-01 -0.37517965568E-02 -0.34689308828E-03  0.90014720534E+00  0.90000000000E+00 0. -1.
     999903    1    1    0    0    0 -0.14764965012E-01 -0.18146395676E-02  0.46885580570E-02  0.25362958921E-01  0.20000000000E-01 0.  0.
</event>
<event>
 7    1  0.4717691E-066  0.9118800E+02  0.7957747E-01            NaN
     999900   -1    0    0    0    0  0.00000000000E+00  0.00000000000E+00  0.99999998245E-14  0.93827000000E+00  0.93827000000E+00 0.  1.
        -11    1    1    0    0    0  0.25834998959E-03 -0.57653271404E-03 -0.39461463503E-02  0.40289361754E-02  0.51100000000E-03 0. -1.
        -14    1    1    0    0    0 -0.26750183948E-02  0.33506768260E-02  0.51853775345E-02  0.67283652383E-02  0.00000000000E+00 0. -1.
         12    1    1    0    0    0  0.29030915634E-03 -0.82721559017E-03 -0.16797822859E-02  0.18947911671E-02  0.00000000000E+00 0.  1.
         14    1    1    0    0    0  0.70517810908E-03 -0.72814499061E-03  0.84300354278E-03  0.13183801675E-02  0.00000000000E+00 0.  1.
     999901    1    1    0    0    0 -0.67889134011E-02 -0.33916399996E-02 -0.11055862436E-01  0.90009989705E+00  0.90000000000E+00 0. -1.
     999903    1    1    0    0    0  0.82100945409E-02  0.21728564684E-02  0.10653409995E-01  0.24199630206E-01  0.20000000000E-01 0.  0.
</event>
<event>
 7    1  0.4717691E-066  0.9118800E+02  0.7957747E-01            NaN
     999900   -1    0    0    0    0  0.00000000000E+00  0.00000000000E+00  0.99999998245E-14  0.93827000000E+00  0.93827000000E+00 0.  1.
        -11    1    1    0    0    0 -0.15541721495E-03  0.33907804179E-03 -0.85608596945E-04  0.63841856254E-03  0.51100000000E-03 0. -1.
        -14    1    1    0    0    0 -0.20591451653E-02 -0.10578253010E-03  0.25572712047E-02  0.32849512584E-02  0.00000000000E+00 0. -1.
         12    1    1    0    0    0 -0.28418684838E-02  0.70500465471E-03 -0.22339194487E-02  0.36828853018E-02  0.00000000000E+00 0.  1.
         14    1    1    0    0    0  0.59154616739E-02 -0.24930472633E-02  0.50536788244E-03  0.64392055542E-02  0.00000000000E+00 0.  1.
     999901    1    1    0    0    0  0.67078890776E-02 -0.82961431789E-02 -0.60796521703E-02  0.90008376496E+00  0.90000000000E+00 0. -1.
     999903    1    1    0    0    0 -0.75669198874E-02  0.98508902758E-02  0.53365411288E-02  0.24140774367E-01  0.20000000000E-01 0.  0.
</event>
<event>
 7    1  0.4717691E-066  0.9118800E+02  0.7957747E-01            NaN
     999900   -1    0    0    0    0  0.00000000000E+00  0.00000000000E+00  0.99999998245E-14  0.93827000000E+00  0.93827000000E+00 0. -1.
        -11    1    1    0    0    0  0.91708285823E-03  0.14715425151E-02  0.38994457983E-02  0.42980550108E-02  0.51100000000E-03 0. -1.
        -14    1    1    0    0    0 -0.43128204285E-03  0.14600180717E-02 -0.12812270534E-02  0.19897737893E-02  0.00000000000E+00 0. -1.
         12    1    1    0    0    0  0.12829923344E-02 -0.21845649318E-02 -0.13299911337E-03  0.25369434435E-02  0.00000000000E+00 0.  1.
         14    1    1    0    0    0 -0.32631085037E-02 -0.20070221445E-02 -0.23545915306E-02  0.44966783598E-02  0.00000000000E+00 0.  1.
     999901    1    1    0    0    0  0.52806755083E-02  0.74642652631E-02  0.12631783421E-01  0.90013508028E+00  0.90000000000E+00 0. -1.
     999903    1    1    0    0    0 -0.37863601543E-02 -0.62042387735E-02 -0.12762411522E-01  0.24813469121E-01  0.20000000000E-01 0.  0.
</event>
<event>
 7    1  0.4717691E-066  0.9118800E+02  0.7957747E-01            NaN
     999900   -1    0    0    0    0  0.00000000000E+00  0.00000000000E+00  0.99999998245E-14  0.93827000000E+00  0.93827000000E+00 0. -1.
        -11    1    1    0    0    0 -0.11406964228E-03  0.11207609158E-02 -0.11870886967E-02  0.17144729475E-02  0.51100000000E-03 0. -1.
        -14    1    1    0    0    0 -0.13075471686E-02  0.37497718037E-02 -0.10731578657E-02  0.41136523896E-02  0.00000000000E+00 0. -1.
         12    1    1    0    0    0 -0.18271599166E-02 -0.20728742018E-02  0.32023688743E-02  0.42297147923E-02  0.00000000000E+00 0.  1.
         14    1    1    0    0    0 -0.51538977653E-03  0.68270600898E-03 -0.25777925335E-02  0.27160133398E-02  0.00000000000E+00 0.  1.
     999901    1    1    0    0    0 -0.68470169416E-03 -0.12893291721E-01 -0.99468496534E-02  0.90014756879E+00  0.90000000000E+00 0. -1.
     999903    1    1    0    0    0  0.44488681981E-02  0.94129271947E-02  0.11582519875E-01  0.25348577737E-01  0.20000000000E-01 0.  0.
</event>
<event>
 7    1  0.4717691E-066  0.9118800E+02  0.7957747E-01            NaN
     999900   -1    0    0    0    0  0.00000000000E+00  0.00000000000E+00  0.99999998245E-14  0.93827000000E+00  0.93827000000E+00 0. -1.
        -11    1    1    0    0    0 -0.59128167088E-03  0.26165240934E-02  0.17383371049E-02  0.32370896243E-02  0.51100000000E-03 0. -1.
        -14    1    1    0    0    0 -0.54577571305E-03 -0.22134478578E-02 -0.27165380160E-02  0.35463786234E-02  0.00000000000E+00 0. -1.
         12    1    1    0    0    0 -0.30782913579E-02  0.16403112774E-02 -0.72832398968E-03  0.35632786314E-02  0.00000000000E+00 0.  1.
         14    1    1    0    0    0  0.79298761764E-03  0.20040013634E-02  0.89904951529E-03  0.23351961068E-02  0.00000000000E+00 0.  1.
     999901    1    1    0    0    0  0.92843634832E-02  0.78991547623E-02 -0.76650768791E-02  0.90011518677E+00  0.90000000000E+00 0.  1.
     999903    1    1    0    0    0 -0.58620023589E-02 -0.11946543639E-01  0.84725522647E-02  0.25472870244E-01  0.20000000000E-01 0.  0.
</event>
<event>
 7    1  0.4717691E-066  0.9118800E+02  0.7957747E-01            NaN
     999900   -1    0    0    0    0  0.00000000000E+00  0.00000000000E+00  0.99999998245E-14  0.93827000000E+00  0.93827000000E+00 0.  1.
        -11    1    1    0    0    0 -0.87138431910E-03  0.13262399468E-02  0.16344799415E-02  0.23347095552E-02  0.51100000000E-03 0. -1.
        -14    1    1    0    0    0  0.11574018052E-02 -0.32918719405E-02  0.14319946802E-02  0.37718176752E-02  0.00000000000E+00 0. -1.
         12    1    1    0    0    0 -0.14080017439E-03  0.42551398911E-02 -0.98644587081E-03  0.43702534982E-02  0.00000000000E+00 0.  1.
         14    1    1    0    0    0 -0.58543569519E-03 -0.22822464280E-02 -0.33254759759E-03  0.23794897806E-02  0.00000000000E+00 0.  1.
     999901    1    1    0    0    0  0.14185575545E-02 -0.14134820126E-01 -0.79016055252E-02  0.90014678848E+00  0.90000000000E+00 0. -1.
     999903    1    1    0    0    0 -0.97833917096E-03  0.14127558657E-01  0.61541243720E-02  0.25266941008E-01  0.20000000000E-01 0.  0.
</event>
<event>
 7    1  0.4717691E-066  0.9118800E+02  0.7957747E-01            NaN
     999900   -1    0    0    0    0  0.00000000000E+00  0.00000000000E+00  0.99999998245E-14  0.93827000000E+00  0.93827000000E+00 0.  1.
        -11    1    1    0    0    0 -0.12218618029E-02 -0.13191209865E-02 -0.37687737564E-02  0.42068756898E-02  0.51100000000E-03 0. -1.
        -14    1    1    0    0    0  0.17412651370E-02  0.27995084586E-02 -0.13452767839E-02  0.35607613670E-02  0.00000000000E+00 0. -1.
         12    1    1    0    0    0 -0.37378990647E-02 -0.16264648662E-02 -0.26840385829E-02  0.48807110643E-02  0.00000000000E+00 0.  1.
         14    1    1    0    0    0  0.16792408100E-02 -0.12409029640E-02  0.10858222905E-03  0.20908084476E-02  0.00000000000E+00 0.  1.
     999901    1    1    0    0    0 -0.66303128465E-02  0.10226859181E-01  0.56639212403E-02  0.90010034424E+00  0.90000000000E+00 0. -1.
     999903    1    1    0    0    0  0.81695677671E-02 -0.88398788233E-02  0.20255856539E-02  0.23430499191E-01  0.20000000000E-01 0.  0.
</event>
<event>
 7    1  0.4717691E-066  0.9118800E+02  0.7957747E-01            NaN
     999900   -1    0    0    0    0  0.00000000000E+00  0.00000000000E+00  0.99999998245E-14  0.93827000000E+00  0.93827000000E+00 0. -1.
        -11    1    1    0    0    0  0.71428703465E-03  0.62205601368E-03 -0.28550683730E-03  0.11134607340E-02  0.51100000000E-03 0. -1.
        -14    1    1    0    0    0 -0.63794203788E-02 -0.28384294462E-02 -0.30395496420E-02  0.76152838500E-02  0.00000000000E+00 0. -1.
         12    1    1    0    0    0 -0.25797133807E-03  0.16361735289E-02 -0.13544143680E-02  0.21396381255E-02  0.00000000000E+00 0.  1.
         14    1    1    0    0    0  0.18010836177E-02  0.11447984690E-02  0.35561593302E-02  0.41473768715E-02  0.00000000000E+00 0.  1.
     999901    1    1    0    0    0  0.10033715166E-01  0.18457649942E-03 -0.89070697478E-02  0.90010001966E+00  0.90000000000E+00 0.  1.
     999903    1    1    0    0    0 -0.59116941011E-02 -0.74917506477E-03  0.10030381265E-01  0.23154220754E-01  0.20000000000E-01 0.  0.
</event>
<event>
 7    1  0.4717691E-066  0.9118800E+02  0.7957747E-01            NaN
     999900   -1    0    0    0    0  0.00000000000E+00  0.00000000000E+00  0.99999998245E-14  0.93827000000E+00  0.93827000000E+00 0. -1.
        -11    1    1    0    0    0  0.29658018566E-03  0.16956806972E-02  0.80425643681E-03  0.19675472674E-02  0.51100000000E-03 0. -1.
        -14    1    1    0    0    0  0.45986670439E-02 -0.30699771982E-03 -0.59495133414E-02  0.75258684004E-02  0.00000000000E+00 0. -1.
         12    1    1    0    0    0 -0.22748250595E-03  0.85159870590E-04  0.19896409513E-02  0.20044130336E-02  0.00000000000E+00 0.  1.
         14    1    1    0    0    0 -0.93974830841E-03 -0.68426398154E-03 -0.50645096597E-02  0.51962103665E-02  0.00000000000E+00 0.  1.
     999901    1    1    0    0    0 -0.43746802008E-02  0.67918360926E-02  0.59353841405E-02  0.90005582918E+00  0.90000000000E+00 0. -1.
     999903    1    1    0    0    0  0.64666378561E-03 -0.75814149590E-02  0.22847414725E-02  0.21520131747E-01  0.20000000000E-01 0.  0.
</event>
<event>
 7    1  0.4717691E-066  0.9118800E+02  0.7957747E-01            NaN
     999900   -1    0    0    0    0  0.00000000000E+00  0.00000000000E+00  0.99999998245E-14  0.93827000000E+00  0.93827000000E+00 0. -1.
        -11    1    1    0    0    0  0.62019900237E-03 -0.22307751048E-02 -0.18085330653E-02  0.29820994650E-02  0.51100000000E-03 0. -1.
        -14    1    1    0    0    0  0.16053279492E-02  0.50999110484E-02 -0.26337168402E-02  0.59600868215E-02  0.00000000000E+00 0. -1.
         12    1    1    0    0    0  0.26314247859E-02 -0.12655722846E-02  0.17522226320E-02  0.34053419452E-02  0.00000000000E+00 0.  1.
         14    1    1    0    0    0  0.23708205533E-02  0.39424984252E-03  0.13904399924E-02  0.27766069954E-02  0.00000000000E+00 0.  1.
     999901    1    1    0    0    0 -0.59166085452E-02 -0.38582412202E-02  0.12491899607E-01  0.90011440375E+00  0.90000000000E+00 0. -1.
     999903    1    1    0    0    0 -0.13111637456E-02  0.18604277188E-02 -0.11192312326E-01  0.23031461023E-01  0.20000000000E-01 0.  0.
</event>
<event>
 7    1  0.4717691E-066  0.9118800E+02  0.7957747E-01            NaN
     999900   -1    0    0    0    0  0.00000000000E+00  0.00000000000E+00  0.99999998245E-14  0.93827000000E+00  0.93827000000E+00 0. -1.
        -11    1    1    0    0    0 -0.28137789996E-02  0.12691286094E-02 -0.13587212821E-02  0.34110532403E-02  0.51100000000E-03 0. -1.
        -14    1    1    0    0    0 -0.15650749609E-02 -0.14001357203E-02  0.32010741367E-02  0.38284089773E-02  0.00000000000E+00 0. -1.
         12    1    1    0    0    0  0.11857705124E-02  0.55639843003E-02 -0.20496502370E-02  0.60469032650E-02  0.00000000000E+00 0.  1.
         14    1    1    0    0    0  0.70656189054E-03 -0.28219676543E-02 -0.11464744972E-02  0.31268410449E-02  0.00000000000E+00 0.  1.
     999901    1    1    0    0    0  0.68467442600E-02 -0.17369842012E-02  0.87614108344E-02  0.90007036244E+00  0.90000000000E+00 0.  1.
     999903    1    1    0    0    0 -0.43602227025E-02 -0.87402533382E-03 -0.74076389548E-02  0.21786431034E-01  0.20000000000E-01 0.  0.
</event>
<event>
 7    1  0.4717691E-066  0.9118800E+02  0.7957747E-01            NaN
     999900   -1    0    0    0    0  0.00000000000E+00  0.00000000000E+00  0.99999998245E-14  0.93827000000E+00  0.93827000000E+00 0.  1.
        -11    1    1    0    0    0 -0.89172607097E-03  0.26767161253E-02 -0.48408132442E-03  0.29078239854E-02  0.51100000000E-03 0. -1.
        -14    1    1    0    0    0 -0.18144340732E-02 -0.25329928392E-02  0.40307453393E-03  0.31417658744E-02  0.00000000000E+00 0. -1.
         12    1    1    0    0    0  0.14909493909E-03 -0.15656506114E-02 -0.27090040720E-02  0.31324422101E-02  0.00000000000E+00 0.  1.
         14    1    1    0    0    0 -0.40972715122E-02  0.32516944799E-02  0.23043277044E-02  0.57158618777E-02  0.00000000000E+00 0.  1.
     999901    1    1    0    0    0  0.14558591751E-01  0.17682744462E-02 -0.75023353742E-02  0.90015074539E+00  0.90000000000E+00 0. -1.
     999903    1    1    0    0    0 -0.79042550332E-02 -0.35980416008E-02  0.79880185324E-02  0.23221360664E-01  0.20000000000E-01 0.  0.
</event>
<event>
 7    1  0.6289090E-066  0.9118800E+02  0.7957747E-01            NaN
     999900   -1    0    0    0    0  0.00000000000E+00  0.00000000000E+00  0.99999998245E-14  0.93827000000E+00  0.93827000000E+00 0. -1.
        -11    1    1    0    0    0 -0.42907960459E-02  0.61012522082E-02  0.24641506598E-02  0.78720625436E-02  0.51100000000E-03 0. -1.
        -14    1    1    0    0    0 -0.73630283566E-03 -0.25834981177E-02  0.16189326271E-02  0.31364864485E-02  0.00000000000E+00 0. -1.
         12    1    1    0    0    0  0.67684293720E-03 -0.26631867891E-02  0.20059150075E-03  0.27551619164E-02  0.00000000000E+00 0.  1.
         14    1    1    0    0    0 -0.22476366823E-03  0.30626947014E-02  0.75595069996E-03  0.31626063620E-02  0.00000000000E+00 0.  1.
     999901    1    1    0    0    0 -0.21393604237E-02 -0.46268303453E-02 -0.78488332483E-02  0.90004865902E+00  0.90000000000E+00 0.  1.
     999903    1    1    0    0    0  0.67143800363E-02  0.70956834250E-03  0.28092077607E-02  0.21295023709E-01  0.20000000000E-01 0.  0.
</event>
<event>
 7    1  0.4717691E-066  0.9118800E+02  0.7957747E-01            NaN
     999900   -1    0    0    0    0  0.00000000000E+00  0.00000000000E+00  0.99999998245E-14  0.93827000000E+00  0.93827000000E+00 0. -1.
        -11    1    1    0    0    0 -0.17979678689E-02 -0.47189601246E-02  0.29811291422E-02  0.58863847205E-02  0.51100000000E-03 0. -1.
        -14    1    1    0    0    0  0.59048595793E-03  0.18305049592E-03  0.79466438626E-03  0.10068131094E-02  0.00000000000E+00 0. -1.
         12    1    1    0    0    0  0.49705737306E-03  0.17997632110E-02  0.32068390311E-04  0.18674158694E-02  0.00000000000E+00 0.  1.
         14    1    1    0    0    0 -0.82808381681E-03 -0.25883186557E-02  0.30307106313E-02  0.40706661865E-02  0.00000000000E+00 0.  1.
     999901    1    1    0    0    0  0.10486634205E-01 -0.58773175924E-02 -0.12587121299E-01  0.90016828870E+00  0.90000000000E+00 0.  1.
     999903    1    1    0    0    0 -0.89481258499E-02  0.11201782666E-01  0.57485487490E-02  0.25270431414E-01  0.20000000000E-01 0.  0.
</event>
<event>
 7    1  0.4717691E-066  0.9118800E+02  0.7957747E-01            NaN
     999900   -1    0    0    0    0  0.00000000000E+00  0.00000000000E+00  0.99999998245E-14  0.93827000000E+00  0.93827000000E+00 0.  1.
        -11    1    1    0    0    0 -0.21166523189E-03 -0.38467186034E-02  0.45719798644E-02  0.60005139000E-02  0.51100000000E-03 0. -1.
        -14    1    1    0    0    0 -0.67226600550E-03  0.18553881772E-02 -0.38639815996E-03  0.20108979110E-02  0.00000000000E+00 0. -1.
         12    1    1    0    0    0 -0.74535475236E-03  0.16652527110E-02  0.26190327671E-02  0.31918572859E-02  0.00000000000E+00 0.  1.
         14    1    1    0    0    0 -0.48613893318E-03  0.28180003167E-02 -0.13474522166E-02  0.31611840065E-02  0.00000000000E+00 0.  1.
     999901    1    1    0    0    0 -0.69502986118E-02 -0.39428831816E-02  0.37684123519E-02  0.90004336224E+00  0.90000000000E+00 0.  1.
     999903    1    1    0    0    0  0.90657235348E-02  0.14509605801E-02 -0.92255746069E-02  0.23862184658E-01  0.20000000000E-01 0.  0.
</event>
<event>
 7    1  0.4717691E-066  0.9118800E+02  0.7957747E-01            NaN
     999900   -1    0    0    0    0  0.00000000000E+00  0.00000000000E+00  0.99999998245E-14  0.93827000000E+00  0.93827000000E+00 0. -1.
        -11    1    1    0    0    0 -0.33649578163E-02  0.26054346668E-02 -0.22088747932E-02  0.48219788220E-02  0.51100000000E-03 0. -1.
        -14    1    1    0    0    0 -0.35041941214E-02 -0.10084677296E-02 -0.22859774616E-02  0.43037282160E-02  0.00000000000E+00 0. -1.
         12    1    1    0    0    0 -0.39264493786E-02  0.15109071109E-02  0.12434742035E-02  0.43870346608E-02  0.00000000000E+00 0.  1.
         14    1    1    0    0    0  0.30163546377E-02  0.43973976483E-03  0.17658642818E-02  0.35227890971E-02  0.00000000000E+00 0.  1.
     999901    1    1    0    0    0  0.81012100788E-02  0.20053334347E-02 -0.27736924458E-02  0.90004296805E+00  0.90000000000E+00 0.  1.
     999903    1    1    0    0    0 -0.32196340015E-03 -0.55529472476E-02  0.42592062154E-02  0.21191501154E-01  0.20000000000E-01 0.  0.
</event>
<event>
 7    1  0.4717691E-066  0.9118800E+02  0.7957747E-01            NaN
     999900   -1    0    0    0    0  0.00000000000E+00  0.00000000000E+00  0.99999998245E-14  0.93827000000E+00  0.93827000000E+00 0.  1.
        -11    1    1    0    0    0 -0.58301562082E-03 -0.26456563374E-02  0.31643423772E-02  0.41968545782E-02  0.51100000000E-03 0. -1.
        -14    1    1    0    0    0 -0.22129211551E-02  0.30397621109E-02  0.18020997265E-02  0.41695008279E-02  0.00000000000E+00 0. -1.
         12    1    1    0    0    0 -0.12144365090E-02  0.48384133407E-03  0.26704108401E-02  0.29732225826E-02  0.00000000000E+00 0.  1.
         14    1    1    0    0    0  0.15621499220E-02 -0.84990146229E-03 -0.99611375878E-03  0.20383541142E-02  0.00000000000E+00 0.  1.
     999901    1    1    0    0    0 -0.86787302434E-02 -0.10237825738E-02  0.29748629121E-02  0.90004734225E+00  0.90000000000E+00 0. -1.
     999903    1    1    0    0    0  0.11126953606E-01  0.99573692854E-03 -0.96156020971E-02  0.24844725643E-01  0.20000000000E-01 0.  0.
</event>
<event>
 7    1  0.4717691E-066  0.9118800E+02  0.7957747E-01            NaN
     999900   -1    0    0    0    0  0.00000000000E+00  0.00000000000E+00  0.99999998245E-14  0.93827000000E+00  0.93827000000E+00 0.  1.
        -11    1    1    0    0    0  0.96997993263E-03 -0.12591476096E-02 -0.48419912181E-02  0.51217490888E-02  0.51100000000E-03 0. -1.
        -14    1    1    0    0    0  0.13204474232E-02 -0.11374797800E-02  0.11098671805E-02  0.20662155758E-02  0.00000000000E+00 0. -1.
         12    1    1    0    0    0  0.10893872351E-02  0.24713241861E-02  0.44488680797E-03  0.27371759265E-02  0.00000000000E+00 0.  1.
         14    1    1    0    0    0 -0.39343707010E-02  0.31122321798E-03 -0.12176915786E-02  0.41302427877E-02  0.00000000000E+00 0.  1.
     999901    1    1    0    0    0  0.11260675141E-01  0.73921284389E-02  0.20050214046E-02  0.90010303103E+00  0.90000000000E+00 0. -1.
     999903    1    1    0    0    0 -0.10706119031E-01 -0.77780484534E-02  0.24999074037E-02  0.24111585586E-01  0.20000000000E-01 0.  0.
</event>
<event>
 7    1  0.4717691E-066  0.9118800E+02  0.7957747E-01            NaN
     999900   -1    0    0    0    0  0.00000000000E+00  0.00000000000E+00  0.99999998245E-14  0.93827000000E+00  0.93827000000E+00 0. -1.
        -11    1    1    0    0    0 -0.12437799273E-02 -0.86352811851E-03  0.89009138465E-03  0.18292219636E-02  0.51100000000E-03 0. -1.
        -14    1    1    0    0    0  0.57996913753E-03 -0.19671344625E-02 -0.82672597742E-03  0.22112118930E-02  0.00000000000E+00 0. -1.
         12    1    1    0    0    0 -0.68823923452E-04 -0.13524493088E-03 -0.18182788596E-02  0.18246002124E-02  0.00000000000E+00 0.  1.
         14    1    1    0    0    0 -0.31757389095E-03 -0.52147230112E-03  0.52950436168E-02  0.53301288390E-02  0.00000000000E+00 0.  1.
     999901    1    1    0    0    0  0.14078727080E-01  0.23227438162E-02 -0.15724121280E-01  0.90025043943E+00  0.90000000000E+00 0.  1.
     999903    1    1    0    0    0 -0.13028518476E-01  0.11646359969E-02  0.12183991116E-01  0.26824397667E-01  0.20000000000E-01 0.  0.
</event>
<event>
 7    1  0.4717691E-066  0.9118800E+02  0.7957747E-01            NaN
     999900   -1    0    0    0    0  0.00000000000E+00  0.00000000000E+00  0.99999998245E-14  0.93827000000E+00  0.93827000000E+00 0.  1.
        -11    1    1    0    0    0  0.13253798426E-02  0.21014984799E-02 -0.25417866869E-02  0.35909230220E-02  0.51100000000E-03 0. -1.
        -14    1    1    0    0    0 -0.51999672210E-02 -0.39245944974E-03  0.42932075179E-03  0.52323990508E-02  0.00000000000E+00 0. -1.
         12    1    1    0    0    0 -0.17248986300E-02  0.28900834203E-02  0.33609969446E-02  0.47564858795E-02  0.00000000000E+00 0.  1.
         14    1    1    0    0    0  0.17965480344E-02  0.87933345432E-03 -0.24061123664E-03  0.20146230245E-02  0.00000000000E+00 0.  1.
     999901    1    1    0    0    0 -0.63967731477E-02 -0.50380278057E-02  0.18552465280E-02  0.90003874493E+00  0.90000000000E+00 0.  1.
     999903    1    1    0    0    0  0.10199711122E-01 -0.44042809916E-03 -0.28631663008E-02  0.22636824096E-01  0.20000000000E-01 0.  0.
</event>
<event>
 7    1  0.4717691E-066  0.9118800E+02  0.7957747E-01            NaN
     999900   -1    0    0    0    0  0.00000000000E+00  0.00000000000E+00  0.99999998245E-14  0.93827000000E+00  0.93827000000E+00 0. -1.
        -11    1    1    0    0    0 -0.31984048828E-02 -0.22076476669E-02  0.85150736817E-03  0.40111953098E-02  0.51100000000E-03 0. -1.
        -14    1    1    0    0    0  0.61128133482E-02  0.31034436308E-02 -0.30778424563E-02  0.75147164674E-02  0.00000000000E+00 0. -1.
         12    1    1    0    0    0 -0.93289883870E-04 -0.55319026993E-03  0.38394058882E-04  0.56231359661E-03  0.00000000000E+00 0.  1.
         14    1    1    0    0    0  0.15168049711E-02  0.19009382239E-02 -0.56985298226E-03  0.24977982050E-02  0.00000000000E+00 0.  1.
     999901    1    1    0    0    0 -0.13745562068E-01 -0.69593899934E-02 -0.38431693582E-02  0.90014006884E+00  0.90000000000E+00 0.  1.
     999903    1    1    0    0    0  0.94076385158E-02  0.47158460755E-02  0.66009633697E-02  0.23543907578E-01  0.20000000000E-01 0.  0.
</event>
<event>
 7    1  0.4717691E-066  0.9118800E+02  0.7957747E-01            NaN
     999900   -1    0    0    0    0  0.00000000000E+00  0.00000000000E+00  0.99999998245E-14  0.93827000000E+00  0.93827000000E+00 0. -1.
        -11    1    1    0    0    0  0.16637614155E-02  0.63174794432E-03 -0.21143645382E-02  0.28104921123E-02  0.51100000000E-03 0. -1.
        -14    1    1    0    0    0 -0.77186724185E-03 -0.28661361265E-03  0.28614593474E-02  0.29775620898E-02  0.00000000000E+00 0. -1.
         12    1    1    0    0    0  0.97007576347E-03 -0.21774724206E-02 -0.39465109822E-02  0.46105728562E-02  0.00000000000E+00 0.  1.
         14    1    1    0    0    0  0.23019393735E-02  0.20054929947E-02 -0.27626296943E-02  0.41174081483E-02  0.00000000000E+00 0.  1.
     999901    1    1    0    0    0 -0.15573986639E-01  0.14985178233E-02  0.10637468895E-01  0.90019883935E+00  0.90000000000E+00 0.  1.
     999903    1    1    0    0    0  0.11410077328E-01 -0.16716727291E-02 -0.46754230279E-02  0.23555125447E-01  0.20000000000E-01 0.  0.
</event>
<event>
 7    1  0.4717691E-066  0.9118800E+02  0.7957747E-01            NaN
     999900   -1    0    0    0    0  0.00000000000E+00  0.00000000000E+00  0.99999998245E-14  0.93827000000E+00  0.93827000000E+00 0. -1.
        -11    1    1    0    0    0  0.15078978615E-02 -0.64352249160E-03 -0.90899524256E-04  0.17196688290E-02  0.51100000000E-03 0. -1.
        -14    1    1    0    0    0 -0.14913570496E-03 -0.41286400210E-03 -0.45950578161E-02  0.46159781711E-02  0.00000000000E+00 0. -1.
         12    1    1    0    0    0 -0.23879913925E-02  0.68215171363E-03  0.23141422759E-02  0.33945674723E-02  0.00000000000E+00 0.  1.
         14    1    1    0    0    0  0.21926833676E-02  0.56101625726E-03  0.16529820725E-02  0.28026682507E-02  0.00000000000E+00 0.  1.
     999901    1    1    0    0    0 -0.22219755848E-03 -0.97614219282E-02  0.13445485112E-01  0.90015338460E+00  0.90000000000E+00 0. -1.
     999903    1    1    0    0    0 -0.94125657305E-03  0.95746404510E-02 -0.12726652120E-01  0.25583732681E-01  0.20000000000E-01 0.  0.
</event>
<event>
 7    1  0.4717691E-066  0.9118800E+02  0.7957747E-01            NaN
     999900   -1    0    0    0    0  0.00000000000E+00  0.00000000000E+00  0.99999998245E-14  0.93827000000E+00  0.93827000000E+00 0.  1.
        -11    1    1    0    0    0 -0.14578879877E-02  0.21717501267E-02  0.45781660689E-03  0.27041917541E-02  0.51100000000E-03 0. -1.
        -14    1    1    0    0    0  0.18811247550E-02  0.15387693190E-02 -0.11950366533E-03  0.24332534777E-02  0.00000000000E+00 0. -1.
         12    1    1    0    0    0  0.19685972785E-02  0.77895097987E-03 -0.34418266459E-02  0.40408304263E-02  0.00000000000E+00 0.  1.
         14    1    1    0    0    0 -0.45981611107E-02  0.52196529219E-03  0.17582735386E-03  0.46310310541E-02  0.00000000000E+00 0.  1.
     999901    1    1    0    0    0  0.89528114662E-04  0.83807876578E-02  0.63192055090E-02  0.90006120790E+00  0.90000000000E+00 0.  1.
     999903    1    1    0    0    0  0.21167989502E-02 -0.13392223376E-01 -0.33915191586E-02  0.24399485383E-01  0.20000000000E-01 0.  0.
</event>
<event>
 7    1  0.4717691E-066  0.9118800E+02  0.7957747E-01            NaN
     999900   -1    0    0    0    0  0.00000000000E+00  0.00000000000E+00  0.99999998245E-14  0.93827000000E+00  0.93827000000E+00 0.  1.
        -11    1    1    0    0    0  0.57482147694E-03  0.21069079528E-02 -0.21187639384E-02  0.30854112333E-02  0.51100000000E-03 0. -1.
        -14    1    1    0    0    0  0.35991359144E-02  0.42741427266E-02  0.22102182818E-02  0.60089217194E-02  0.00000000000E+00 0. -1.
         12    1    1    0    0    0  0.36457320623E-02 -0.51597927702E-02 -0.26420391823E-02  0.68480066255E-02  0.00000000000E+00 0.  1.
         14    1    1    0    0    0 -0.23500839234E-03  0.26754141192E-03 -0.22372164165E-03  0.42054574604E-03  0.00000000000E+00 0.  1.
     999901    1    1    0    0    0 -0.13585658321E-01 -0.76253609578E-02  0.22879329232E-02  0.90013773995E+00  0.90000000000E+00 0.  1.
     999903    1    1    0    0    0  0.60009772600E-02  0.61365616368E-02  0.48637355735E-03  0.21769374728E-01  0.20000000000E-01 0.  0.
</event>
<event>
 7    1  0.4717691E-066  0.9118800E+02  0.7957747E-01            NaN
     999900   -1    0    0    0    0  0.00000000000E+00  0.00000000000E+00  0.99999998245E-14  0.93827000000E+00  0.93827000000E+00 0. -1.
        -11    1    1    0    0    0  0.85983466239E-02  0.19982820211E-02 -0.27400121831E-02  0.92570774796E-02  0.51100000000E-03 0. -1.
        -14    1    1    0    0    0  0.32077051421E-02 -0.12650410331E-02  0.90169829091E-03  0.35640932791E-02  0.00000000000E+00 0. -1.
         12    1    1    0    0    0  0.42277587897E-03  0.17048662438E-02 -0.15866786366E-02  0.23670355825E-02  0.00000000000E+00 0.  1.
         14    1    1    0    0    0 -0.20463598785E-02 -0.11049433165E-02  0.19558250659E-03  0.23338254009E-02  0.00000000000E+00 0.  1.
     999901    1    1    0    0    0 -0.15115257863E-01 -0.11182032530E-02  0.39145522630E-02  0.90013612588E+00  0.90000000000E+00 0. -1.
     999903    1    1    0    0    0  0.49327900969E-02 -0.21496066234E-03 -0.68514224077E-03  0.20611842376E-01  0.20000000000E-01 0.  0.
</event>
<event>
 7    1  0.4717691E-066  0.9118800E+02  0.7957747E-01            NaN
     999900   -1    0    0    0    0  0.00000000000E+00  0.00000000000E+00  0.99999998245E-14  0.93827000000E+00  0.93827000000E+00 0. -1.
        -11    1    1    0    0    0  0.89580472039E-04 -0.14472407581E-02 -0.24981518102E-02  0.29333281336E-02  0.51100000000E-03 0. -1.
        -14    1    1    0    0    0  0.44368327124E-02  0.16913746693E-02  0.16954204646E-02  0.50418928332E-02  0.00000000000E+00 0. -1.
         12    1    1    0    0    0 -0.13994574612E-02  0.19130367559E-02 -0.19705625896E-02  0.30824191367E-02  0.00000000000E+00 0.  1.
         14    1    1    0    0    0  0.19909361170E-02 -0.35576107330E-02 -0.11455789149E-02  0.42347103560E-02  0.00000000000E+00 0.  1.
     999901    1    1    0    0    0 -0.14564299220E-01  0.18739045064E-02  0.94642354111E-02  0.90016954074E+00  0.90000000000E+00 0. -1.
     999903    1    1    0    0    0  0.94464073803E-02 -0.47346444057E-03 -0.55453625612E-02  0.22808108797E-01  0.20000000000E-01 0.  0.
</event>
<event>
 7    1  0.4717691E-066  0.9118800E+02  0.7957747E-01            NaN
     999900   -1    0    0    0    0  0.00000000000E+00  0.00000000000E+00  0.99999998245E-14  0.93827000000E+00  0.93827000000E+00 0.  1.
        -11    1    1    0    0    0  0.27646103491E-02  0.65292909801E-03  0.19350642635E-02  0.34749074078E-02  0.51100000000E-03 0. -1.
        -14    1    1    0    0    0 -0.21809936775E-02 -0.42398116295E-02 -0.49594560543E-02  0.68796032174E-02  0.00000000000E+00 0. -1.
         12    1    1    0    0    0  0.15140176332E-02  0.13074344638E-02  0.10778035921E-02  0.22722884619E-02  0.00000000000E+00 0.  1.
         14    1    1    0    0    0 -0.18939536150E-02  0.27288652614E-02 -0.18683336240E-02  0.38110938641E-02  0.00000000000E+00 0.  1.
     999901    1    1    0    0    0 -0.74454212038E-02 -0.49795739821E-02  0.48887960683E-02  0.90005784857E+00  0.90000000000E+00 0. -1.
     999903    1    1    0    0    0  0.72417405140E-02  0.45301567885E-02 -0.10738742457E-02  0.21774258474E-01  0.20000000000E-01 0.  0.
</event>
<event>
 7    1  0.4717691E-066  0.9118800E+02  0.7957747E-01            NaN
     999900   -1    0    0    0    0  0.00000000000E+00  0.00000000000E+00  0.99999998245E-14  0.93827000000E+00  0.93827000000E+00 0. -1.
        -11    1    1    0    0    0  0.14383345323E-02  0.18979445331E-02  0.84617764782E-03  0.25783982022E-02  0.51100000000E-03 0. -1.
        -14    1    1    0    0    0  0.38618445857E-02 -0.33971598689E-02  0.41359525686E-04  0.51435638802E-02  0.00000000000E+00 0. -1.
         12    1    1    0    0    0 -0.38387314602E-02  0.17658500634E-03 -0.22896981154E-02  0.44732269055E-02  0.00000000000E+00 0.  1.
         14    1    1    0    0    0  0.67304920980E-03  0.29266813766E-02  0.48297366482E-02  0.56872502327E-02  0.00000000000E+00 0.  1.
     999901    1    1    0    0    0 -0.29709464462E-02 -0.35717390982E-02 -0.17308285237E-03  0.90001200759E+00  0.90000000000E+00 0. -1.
     999903    1    1    0    0    0  0.83644957856E-03  0.19676880511E-02 -0.32544928539E-02  0.20375553192E-01  0.20000000000E-01 0.  0.
</event>
<event>
 7    1  0.4717691E-066  0.9118800E+02  0.7957747E-01            NaN
     999900   -1    0    0    0    0  0.00000000000E+00  0.00000000000E+00  0.99999998245E-14  0.93827000000E+00  0.93827000000E+00 0. -1.
        -11    1    1    0    0    0 -0.48665180297E-03 -0.17794759511E-02 -0.23078792899E-02  0.29984650164E-02  0.51100000000E-03 0. -1.
        -14    1    1    0    0    0 -0.29698785522E-02 -0.68261885513E-02  0.14109164948E-02  0.75767878489E-02  0.00000000000E+00 0. -1.
         12    1    1    0    0    0 -0.42106375300E-03  0.14534902540E-02 -0.11711334161E-02  0.19134999558E-02  0.00000000000E+00 0.  1.
         14    1    1    0    0    0  0.25568201046E-02 -0.12341129730E-02 -0.14685475376E-02  0.31964035646E-02  0.00000000000E+00 0.  1.
     999901    1    1    0    0    0 -0.21313505797E-04  0.98154394943E-02 -0.65988040141E-02  0.90007771193E+00  0.90000000000E+00 0.  1.
     999903    1    1    0    0    0  0.13420875093E-02 -0.14291522729E-02  0.10135447763E-01  0.22507131680E-01  0.20000000000E-01 0.  0.
</event>
<event>
 7    1  0.4717691E-066  0.9118800E+02  0.7957747E-01            NaN
     999900   -1    0    0    0    0  0.00000000000E+00  0.00000000000E+00  0.99999998245E-14  0.93827000000E+00  0.93827000000E+00 0.  1.
        -11    1    1    0    0    0  0.14173680724E-02  0.96193613711E-03 -0.29333473118E-02  0.34350983735E-02  0.51100000000E-03 0. -1.
        -14    1    1    0    0    0 -0.52853386657E-02 -0.93631028243E-03  0.75596861314E-02  0.92714797180E-02  0.00000000000E+00 0. -1.
         12    1    1    0    0    0  0.12893142106E-02 -0.97113095719E-03  0.80101315693E-03  0.18019568661E-02  0.00000000000E+00 0.  1.
         14    1    1    0    0    0 -0.47088642743E-03  0.42313733980E-03  0.37225804287E-04  0.63416480222E-03  0.00000000000E+00 0.  1.
     999901    1    1    0    0    0 -0.52389415094E-02  0.44221194362E-02 -0.12240933310E-01  0.90010935008E+00  0.90000000000E+00 0. -1.
     999903    1    1    0    0    0  0.82884843195E-02 -0.38997516735E-02  0.67763555296E-02  0.23017950163E-01  0.20000000000E-01 0.  0.
</event>
<event>
 7    1  0.4717691E-066  0.9118800E+02  0.7957747E-01            NaN
     999900   -1    0    0    0    0  0.00000000000E+00  0.00000000000E+00  0.99999998245E-14  0.93827000000E+00  0.93827000000E+00 0.  1.
        -11    1    1    0    0    0 -0.17664813101E-02 -0.52591275847E-02 -0.26839146344E-02  0.61841246701E-02  0.51100000000E-03 0. -1.
        -14    1    1    0    0    0 -0.14775478590E-02  0.15035408505E-02 -0.69737288354E-03  0.22203854854E-02  0.00000000000E+00 0. -1.
         12    1    1    0    0    0 -0.86003314914E-03 -0.30923515942E-03  0.21353273733E-02  0.23226937794E-02  0.00000000000E+00 0.  1.
         14    1    1    0    0    0 -0.37521182451E-02  0.31419721074E-03 -0.29180601831E-02  0.47636316445E-02  0.00000000000E+00 0.  1.
     999901    1    1    0    0    0  0.55746859446E-02  0.11429150753E-01 -0.29369299080E-02  0.90009462179E+00  0.90000000000E+00 0. -1.
     999903    1    1    0    0    0  0.22814946187E-02 -0.76785260702E-02  0.71009502357E-02  0.22684542635E-01  0.20000000000E-01 0.  0.
</event>
<event>
 7    1  0.4717691E-066  0.9118800E+02  0.7957747E-01            NaN
     999900   -1    0    0    0    0  0.00000000000E+00  0.00000000000E+00  0.99999998245E-14  0.93827000000E+00  0.93827000000E+00 0.  1.
        -11    1    1    0    0    0 -0.19724314618E-02  0.77909252382E-03  0.98605733697E-03  0.23939300541E-02  0.51100000000E-03 0. -1.
        -14    1    1    0    0    0  0.19007595899E-03 -0.29950991172E-02  0.42706852741E-03  0.30313586260E-02  0.00000000000E+00 0. -1.
         12    1    1    0    0    0  0.66337932807E-03 -0.42789109854E-03  0.30635704605E-03  0.84676889691E-03  0.00000000000E+00 0.  1.
         14    1    1    0    0    0  0.46700627314E-02  0.63472128423E-03 -0.18595763320E-02  0.50665946314E-02  0.00000000000E+00 0.  1.
     999901    1    1    0    0    0 -0.20362294810E-01  0.45630329695E-02  0.48816550778E-02  0.90025511655E+00  0.90000000000E+00 0. -1.
     999903    1    1    0    0    0  0.16811208253E-01 -0.25538565618E-02 -0.47415616562E-02  0.26676231241E-01  0.20000000000E-01 0.  0.
</event>
<event>
 7    1  0.4717691E-066  0.9118800E+02  0.7957747E-01            NaN
     999900   -1    0    0    0    0  0.00000000000E+00  0.00000000000E+00  0.99999998245E-14  0.93827000000E+00  0.93827000000E+00 0.  1.
        -11    1    1    0    0    0  0.12403979380E-02 -0.51809587390E-02  0.10463659405E-03  0.53528488038E-02  0.51100000000E-03 0. -1.
        -14    1    1    0    0    0 -0.16777568726E-02 -0.49759421363E-03 -0.74276004969E-03  0.19010945838E-02  0.00000000000E+00 0. -1.
         12    1    1    0    0    0 -0.20755637083E-02  0.40445638560E-02  0.40355594997E-03  0.45639148652E-02  0.00000000000E+00 0.  1.
         14    1    1    0    0    0 -0.28496449237E-02 -0.43244707180E-02 -0.98090877315E-03  0.52710250620E-02  0.00000000000E+00 0.  1.
     999901    1    1    0    0    0  0.74217177354E-02 -0.11256085420E-04  0.38824181381E-02  0.90003897426E+00  0.90000000000E+00 0.  1.
     999903    1    1    0    0    0 -0.20591501687E-02  0.59697159001E-02 -0.26669418592E-02  0.21142142423E-01  0.20000000000E-01 0.  0.
</event>
<event>
 7    1  0.4717691E-066  0.9118800E+02  0.7957747E-01            NaN
     999900   -1    0    0    0    0  0.00000000000E+00  0.00000000000E+00  0.99999998245E-14  0.93827000000E+00  0.93827000000E+00 0. -1.
        -11    1    1    0    0    0  0.18531347361E-02 -0.22909278339E-02 -0.13937704811E-02  0.32994205316E-02  0.51100000000E-03 0. -1.
        -14    1    1    0    0    0  0.24168827505E-02  0.15454133724E-02  0.30192335269E-03  0.28845766469E-02  0.00000000000E+00 0. -1.
         12    1    1    0    0    0 -0.39000106518E-03  0.30435849334E-04  0.21701891518E-02  0.22051639681E-02  0.00000000000E+00 0.  1.
         14    1    1    0    0    0  0.71039271891E-03 -0.17724296995E-02 -0.13603795733E-02  0.23445249920E-02  0.00000000000E+00 0.  1.
     999901    1    1    0    0    0  0.62338308532E-02 -0.93142070050E-02 -0.94764345721E-02  0.90011966866E+00  0.90000000000E+00 0. -1.
     999903    1    1    0    0    0 -0.10824239993E-01  0.11801715317E-01  0.97584721220E-02  0.27416645200E-01  0.20000000000E-01 0.  0.
</event>
<event>
 7    1  0.4717691E-066  0.9118800E+02  0.7957747E-01            NaN
     999900   -1    0    0    0    0  0.00000000000E+00  0.00000000000E+00  0.99999998245E-14  0.93827000000E+00  0.93827000000E+00 0.  1.
        -11    1    1    0    0    0 -0.16345973337E-02 -0.19504531472E-02  0.14407957130E-02  0.29687016032E-02  0.51100000000E-03 0. -1.
        -14    1    1    0    0    0  0.11899455052E-02  0.13417945447E-02  0.22139614089E-02  0.28492118253E-02  0.00000000000E+00 0. -1.
         12    1    1    0    0    0  0.70527162675E-03 -0.30976017852E-02  0.70033088777E-04  0.31776484263E-02  0.00000000000E+00 0.  1.
         14    1    1    0    0    0 -0.26370452660E-04 -0.85410357866E-04  0.49612790218E-03  0.50411628155E-03  0.00000000000E+00 0.  1.
     999901    1    1    0    0    0  0.13122609652E-03 -0.14434063692E-01 -0.13337955114E-01  0.90021456357E+00  0.90000000000E+00 0.  1.
     999903    1    1    0    0    0 -0.36547544217E-03  0.18225734438E-01  0.91170370013E-02  0.28555758295E-01  0.20000000000E-01 0.  0.
</event>
<event>
 7    1  0.4717691E-066  0.9118800E+02  0.7957747E-01            NaN
     999900   -1    0    0    0    0  0.00000000000E+00  0.00000000000E+00  0.99999998245E-14  0.93827000000E+00  0.93827000000E+00 0. -1.
        -11    1    1    0    0    0 -0.19155865140E-02  0.25391093929E-02  0.27346574861E-03  0.32330253196E-02  0.51100000000E-03 0. -1.
        -14    1    1    0    0    0 -0.29612478176E-03 -0.11301274080E-02  0.88758344636E-03  0.14672021738E-02  0.00000000000E+00 0. -1.
         12    1    1    0    0    0 -0.36261337205E-02  0.63171948152E-03 -0.19162813054E-02  0.41497047249E-02  0.00000000000E+00 0.  1.
         14    1    1    0    0    0  0.12123777828E-02  0.21348369841E-02 -0.20613256933E-02  0.32056906355E-02  0.00000000000E+00 0.  1.
     999901    1    1    0    0    0  0.15023447308E-01 -0.10807957787E-02  0.15311708986E-01  0.90025625270E+00  0.90000000000E+00 0. -1.
     999903    1    1    0    0    0 -0.10397980075E-01 -0.30947426718E-02 -0.12495151182E-01  0.25958124449E-01  0.20000000000E-01 0.  0.
</event>
<event>
 7    1  0.4717691E-066  0.9118800E+02  0.7957747E-01            NaN
     999900   -1    0    0    0    0  0.00000000000E+00  0.00000000000E+00  0.99999998245E-14  0.93827000000E+00  0.93827000000E+00 0.  1.
        -11    1    1    0    0    0  0.47183064875E-02  0.45938570288E-03 -0.19487905100E-02  0.51509568806E-02  0.51100000000E-03 0. -1.
        -14    1    1    0    0    0  0.27352395913E-03  0.26808129740E-02  0.37166449587E-02  0.45907541109E-02  0.00000000000E+00 0. -1.
         12    1    1    0    0    0 -0.13188550603E-02  0.12095895847E-02 -0.10070207732E-02  0.20534304155E-02  0.00000000000E+00 0.  1.
         14    1    1    0    0    0  0.12447795215E-02 -0.36555374401E-02  0.20178498645E-02  0.43570802275E-02  0.00000000000E+00 0.  1.
     999901    1    1    0    0    0 -0.39063845282E-02 -0.89093428149E-02 -0.69245091447E-02  0.90007921043E+00  0.90000000000E+00 0. -1.
     999903    1    1    0    0    0 -0.10113703796E-02  0.82150919934E-02  0.41458256048E-02  0.22038567931E-01  0.20000000000E-01 0.  0.
</event>
<event>
 7    1  0.4717691E-066  0.9118800E+02  0.7957747E-01            NaN
     999900   -1    0    0    0    0  0.00000000000E+00  0.00000000000E+00  0.99999998245E-14  0.93827000000E+00  0.93827000000E+00 0.  1.
        -11    1    1    0    0    0  0.16676935800E-02  0.43160644295E-03 -0.19268915217E-02  0.26346760589E-02  0.51100000000E-03 0. -1.
        -14    1    1    0    0    0  0.27489133855E-02  0.40092232894E-02  0.72717851631E-02  0.87469569362E-02  0.00000000000E+00 0. -1.
         12    1    1    0    0    0 -0.34024924269E-02 -0.15880223345E-02 -0.58705423814E-03  0.38004476484E-02  0.00000000000E+00 0.  1.
         14    1    1    0    0    0 -0.99752896436E-03  0.16001843847E-02  0.32088034293E-03  0.19127514983E-02  0.00000000000E+00 0.  1.
     999901    1    1    0    0    0  0.17159629237E-02  0.17255648184E-02 -0.74782097205E-02  0.90003435808E+00  0.90000000000E+00 0. -1.
     999903    1    1    0    0    0 -0.17325484980E-02 -0.61785566010E-02  0.23994899744E-02  0.21140809779E-01  0.20000000000E-01 0.  0.
</event>
<event>
 7    1  0.4717691E-066  0.9118800E+02  0.7957747E-01            NaN
     999900   -1    0    0    0    0  0.00000000000E+00  0.00000000000E+00  0.99999998245E-14  0.93827000000E+00  0.93827000000E+00 0.  1.
        -11    1    1    0    0    0 -0.13713999958E-02 -0.13648732149E-02  0.16480846137E-02  0.25924738639E-02  0.51100000000E-03 0. -1.
        -14    1    1    0    0    0  0.49359175735E-02  0.11868814730E-02 -0.39133254006E-02  0.64098428697E-02  0.00000000000E+00 0. -1.
         12    1    1    0    0    0 -0.42157217667E-02  0.19497569333E-03  0.87711357767E-03  0.43104122499E-02  0.00000000000E+00 0.  1.
         14    1    1    0    0    0  0.11227478308E-03 -0.20954332260E-03 -0.93288828694E-03  0.96270171230E-03  0.00000000000E+00 0.  1.
     999901    1    1    0    0    0  0.69393931846E-02 -0.19184252578E-02  0.13461968852E-01  0.90012946854E+00  0.90000000000E+00 0.  1.
     999903    1    1    0    0    0 -0.64004637786E-02  0.21109846289E-02 -0.11140953356E-01  0.23865100762E-01  0.20000000000E-01 0.  0.
</event>
<event>
 7    1  0.4717691E-066  0.9118800E+02  0.7957747E-01            NaN
     999900   -1    0    0    0    0  0.00000000000E+00  0.00000000000E+00  0.99999998245E-14  0.93827000000E+00  0.93827000000E+00 0.  1.
        -11    1    1    0    0    0  0.29368471386E-03  0.14165285196E-02 -0.13311618386E-02  0.20312352396E-02  0.51100000000E-03 0. -1.
        -14    1    1    0    0    0  0.68046198450E-02  0.16386933880E-02 -0.76448411940E-03  0.70407814356E-02  0.00000000000E+00 0. -1.
         12    1    1    0    0    0  0.16537999365E-03  0.12068276471E-02 -0.42063296688E-03  0.12886875513E-02  0.00000000000E+00 0.  1.
         14    1    1    0    0    0 -0.35606813684E-02 -0.19826550743E-02  0.33787176769E-02  0.52938743932E-02  0.00000000000E+00 0.  1.
     999901    1    1    0    0    0 -0.11081372697E-01 -0.66051268492E-02  0.49275866867E-02  0.90010594134E+00  0.90000000000E+00 0.  1.
     999903    1    1    0    0    0  0.73783695125E-02  0.43257323688E-02 -0.57900254387E-02  0.22509480042E-01  0.20000000000E-01 0.  0.
</event>
<event>
 7    1  0.4717691E-066  0.9118800E+02  0.7957747E-01            NaN
     999900   -1    0    0    0    0  0.00000000000E+00  0.00000000000E+00  0.99999998245E-14  0.93827000000E+00  0.93827000000E+00 0.  1.
        -11    1    1    0    0    0  0.13047141472E-02  0.96995792912E-03  0.20019017467E-03  0.17158946635E-02  0.51100000000E-03 0. -1.
        -14    1    1    0    0    0  0.36645174234E-03 -0.56193879123E-02 -0.32875860087E-03  0.56409121254E-02  0.00000000000E+00 0. -1.
         12    1    1    0    0    0 -0.16817067029E-02  0.10295554312E-02 -0.35115292103E-02  0.40272768982E-02  0.00000000000E+00 0.  1.
         14    1    1    0    0    0  0.13579714486E-02  0.74509332956E-03 -0.10642657039E-02  0.18793381849E-02  0.00000000000E+00 0.  1.
     999901    1    1    0    0    0  0.36599202013E-02  0.22089537498E-02 -0.93274042780E-02  0.90005848419E+00  0.90000000000E+00 0. -1.
     999903    1    1    0    0    0 -0.50073508366E-02  0.66582747260E-03  0.14031767618E-01  0.24948093938E-01  0.20000000000E-01 0.  0.
</event>
<event>
 7    1  0.4717691E-066  0.9118800E+02  0.7957747E-01            NaN
     999900   -1    0    0    0    0  0.00000000000E+00  0.00000000000E+00  0.99999998245E-14  0.93827000000E+00  0.93827000000E+00 0.  1.
        -11    1    1    0    0    0 -0.36892846198E-02 -0.12529429138E-02 -0.12342876424E-02  0.41188923190E-02  0.51100000000E-03 0. -1.
        -14    1    1    0    0    0 -0.45366814736E-03  0.13566782670E-02 -0.16445140987E-04  0.14306156545E-02  0.00000000000E+00 0. -1.
         12    1    1    0    0    0 -0.29837029556E-03 -0.71898316774E-02  0.34156509570E-02  0.79655116498E-02  0.00000000000E+00 0.  1.
         14    1    1    0    0    0 -0.13175398845E-02  0.12326277909E-02 -0.33095835120E-03  0.18343434925E-02  0.00000000000E+00 0.  1.
     999901    1    1    0    0    0  0.15637274729E-01  0.70821969632E-02 -0.60597846129E-02  0.90018409387E+00  0.90000000000E+00 0. -1.
     999903    1    1    0    0    0 -0.98784117817E-02 -0.12287284300E-02  0.42258247905E-02  0.22736543010E-01  0.20000000000E-01 0.  0.
</event>
<event>
 7    1  0.4717691E-066  0.9118800E+02  0.7957747E-01            NaN
     999900   -1    0    0    0    0  0.00000000000E+00  0.00000000000E+00  0.99999998245E-14  0.93827000000E+00  0.93827000000E+00 0. -1.
        -11    1    1    0    0    0 -0.55348395502E-02 -0.62253653412E-03 -0.41175869401E-03  0.56082677187E-02  0.51100000000E-03 0. -1.
        -14    1    1    0    0    0  0.10628960293E-02  0.26935403191E-02 -0.42810707916E-02  0.51684112203E-02  0.00000000000E+00 0. -1.
         12    1    1    0    0    0  0.24387602293E-02  0.93827499399E-03 -0.75262981350E-03  0.27192578136E-02  0.00000000000E+00 0.  1.
         14    1    1    0    0    0 -0.17120353173E-02  0.28517744261E-02 -0.96416326935E-03  0.34631334244E-02  0.00000000000E+00 0.  1.
     999901    1    1    0    0    0  0.77073864225E-02  0.14390615369E-03  0.64669201486E-02  0.90005624578E+00  0.90000000000E+00 0. -1.
     999903    1    1    0    0    0 -0.39621678137E-02 -0.60049593588E-02 -0.57297580147E-04  0.21254684041E-01  0.20000000000E-01 0.  0.
</event>
<event>
 7    1  0.4717691E-066  0.9118800E+02  0.7957747E-01            NaN
     999900   -1    0    0    0    0  0.00000000000E+00  0.00000000000E+00  0.99999998245E-14  0.93827000000E+00  0.93827000000E+00 0.  1.
        -11    1    1    0    0    0 -0.10420168439E-03  0.18855678155E-03  0.26763552934E-02  0.27332051346E-02  0.51100000000E-03 0. -1.
        -14    1    1    0    0    0  0.70735149713E-03 -0.28923174422E-02 -0.90004443637E-03  0.31106151022E-02  0.00000000000E+00 0. -1.
         12    1    1    0    0    0 -0.58995360070E-03 -0.21320030212E-02 -0.15825264156E-02  0.27199029375E-02  0.00000000000E+00 0.  1.
         14    1    1    0    0    0  0.19411505630E-02  0.39236022911E-02 -0.12996439227E-02  0.45663765474E-02  0.00000000000E+00 0.  1.
     999901    1    1    0    0    0 -0.14290442477E-02 -0.12030019763E-01  0.87235392603E-02  0.90012380464E+00  0.90000000000E+00 0.  1.
     999903    1    1    0    0    0 -0.52530252734E-03  0.12942181153E-01 -0.76176797791E-02  0.25016095638E-01  0.20000000000E-01 0.  0.
</event>
<event>
 7    1  0.4717691E-066  0.9118800E+02  0.7957747E-01            NaN
     999900   -1    0    0    0    0  0.00000000000E+00  0.00000000000E+00  0.99999998245E-14  0.93827000000E+00  0.93827000000E+00 0.  1.
        -11    1    1    0    0    0  0.21336795599E-02 -0.30307818417E-02  0.21613540475E-02  0.43209720382E-02  0.51100000000E-03 0. -1.
        -14    1    1    0    0    0  0.38952580932E-03  0.11987537854E-02 -0.78720303668E-03  0.14860786033E-02  0.00000000000E+00 0. -1.
         12    1    1    0    0    0 -0.37402736562E-02  0.51919343657E-04  0.46815002497E-03  0.37698152591E-02  0.00000000000E+00 0.  1.
         14    1    1    0    0    0  0.29877849892E-02  0.86182772989E-03 -0.21652750722E-02  0.37891981098E-02  0.00000000000E+00 0.  1.
     999901    1    1    0    0    0  0.17614826504E-02  0.14911370097E-01 -0.20405136555E-02  0.90012755511E+00  0.90000000000E+00 0.  1.
     999903    1    1    0    0    0 -0.35321993525E-02 -0.13993089114E-01  0.23634876919E-02  0.24776380876E-01  0.20000000000E-01 0.  0.
</event>
<event>
 7    1  0.4717691E-066  0.9118800E+02  0.7957747E-01            NaN
     999900   -1    0    0    0    0  0.00000000000E+00  0.00000000000E+00  0.99999998245E-14  0.93827000000E+00  0.93827000000E+00 0. -1.
        -11    1    1    0    0    0  0.21839725019E-02 -0.58824449251E-03 -0.18929539516E-02  0.29933531590E-02  0.51100000000E-03 0. -1.
        -14    1    1    0    0    0  0.48161340706E-02 -0.44729184941E-02 -0.50969474116E-02  0.83175128589E-02  0.00000000000E+00 0. -1.
         12    1    1    0    0    0  0.27858212671E-02  0.10717821505E-02 -0.86722890233E-03  0.31083119340E-02  0.00000000000E+00 0.  1.
         14    1    1    0    0    0 -0.11554100147E-02  0.35548530201E-04 -0.63400858753E-03  0.13184092267E-02  0.00000000000E+00 0.  1.
     999901    1    1    0    0    0 -0.16249818428E-01  0.99840341727E-02  0.67289446359E-02  0.90022720256E+00  0.90000000000E+00 0. -1.
     999903    1    1    0    0    0  0.76193006035E-02 -0.60302018668E-02  0.17621942171E-02  0.22305210259E-01  0.20000000000E-01 0.  0.
</event>
<event>
 7    1  0.4717691E-066  0.9118800E+02  0.7957747E-01            NaN
     999900   -1    0    0    0    0  0.00000000000E+00  0.00000000000E+00  0.99999998245E-14  0.93827000000E+00  0.93827000000E+00 0.  1.
        -11    1    1    0    0    0  0.29323199375E-03  0.85797709553E-04  0.63127315666E-03  0.86774019582E-03  0.51100000000E-03 0. -1.
        -14    1    1    0    0    0 -0.34715095270E-02  0.43876374779E-02 -0.11042361632E-02  0.57028132126E-02  0.00000000000E+00 0. -1.
         12    1    1    0    0    0  0.13940299037E-02  0.79709661018E-03  0.89169031345E-03  0.18367890443E-02  0.00000000000E+00 0.  1.
         14    1    1    0    0    0 -0.40606246883E-02  0.25821486356E-02 -0.12812401309E-02  0.49797329957E-02  0.00000000000E+00 0.  1.
     999901    1    1    0    0    0  0.15456220335E-01  0.68065528792E-03 -0.59486537692E-02  0.90015262290E+00  0.90000000000E+00 0.  1.
     999903    1    1    0    0    0 -0.96113480170E-02 -0.85333357212E-02  0.68111665932E-02  0.24730301648E-01  0.20000000000E-01 0.  0.
</event>
